Control file title. For DL_FIELD 4.10
49780
    1MOL     C1    1   0.018   7.136   7.800  0.5910 -0.4405  0.1661
    1MOL     C2    2   0.043   7.092   7.649 -0.1288 -0.8348 -0.5368
    1MOL     C3    3   0.184   7.089   7.584 -0.2636 -0.0963  0.7404
    1MOL     C4    4   0.084   7.191   7.546 -0.0107 -0.4601 -0.5274
    1MOL     C5    5   7.708   7.150   7.828  0.4637 -0.1048 -0.6604
    1MOL     H6    6   0.070   7.059   0.018  0.1968 -0.7841  0.0589
    1MOL     H7    7   7.810   7.026   7.602 -1.1070 -0.6825  0.7140
    1MOL     H8    8   0.272   7.131   7.632  0.8988 -0.4050 -1.0334
    1MOL     H9    9   0.202   7.008   7.514  1.3337  2.4329 -1.8919
    1MOL    H10   10   0.037   7.191   7.447  0.8954  2.1729 -1.0051
    1MOL    H11   11   0.098   7.291   7.587 -0.2470 -1.1376  1.2499
    1MOL    H12   12   7.654   7.121   7.738 -0.6599  0.0720 -0.0470
    1MOL    H13   13   7.678   7.253   0.006 -1.5331 -0.8586  0.5850
    1MOL    H14   14   0.073   7.224   7.834 -0.8274  0.3907  0.3604
    1MOL    C15   15   7.649   7.068   0.107  0.0990  0.5577 -0.4608
    1MOL    C16   16   7.682   7.126   0.239 -0.8436 -0.2028 -0.7740
    1MOL    C17   17   7.828   7.087   0.299 -0.1436 -0.4868 -0.1155
    1MOL    C18   18   7.694   7.037   0.352  0.6443 -0.6744 -0.5584
    1MOL    C19   19   7.494   7.045   0.102 -0.8333 -0.7325 -0.1138
    1MOL    H20   20   7.688   6.966   0.111  2.0661  1.3106 -0.2544
    1MOL    H21   21   7.647   7.225   0.270 -3.6073 -1.2649 -0.3786
    1MOL    H22   22   0.043   7.167   0.349 -0.7271 -0.5180  0.5918
    1MOL    H23   23   0.060   7.017   0.257  1.3322  1.2797 -0.6233
    1MOL    H24   24   7.680   6.929   0.342 -2.6456 -0.1400 -2.2405
    1MOL    H25   25   7.658   7.077   0.446  0.7605  3.0173 -2.0201
    1MOL    H26   26   7.460   7.148   0.114  0.5573 -0.3638  0.8611
    1MOL    H27   27   7.457   6.986   0.186 -1.3160  0.6234  0.6441
    1MOL    C28   28   7.430   6.972   7.814  0.2542 -0.2271  0.6980
    1MOL    C29   29   7.282   6.988   7.809  0.0416 -0.5985 -0.3286
    1MOL    C30   30   7.222   7.127   7.778  0.4691 -0.3430 -0.1403
    1MOL    C31   31   7.217   7.025   7.672 -0.0648  0.0779 -0.2806
    1MOL    C32   32   7.471   6.820   7.806  0.7288 -0.5222 -0.7272
    1MOL    H33   33   7.486   7.024   7.735 -0.6745  0.3911  0.4390
    1MOL    H34   34   7.219   6.930   0.036  1.7496 -0.8011  1.1533
    1MOL    H35   35   7.289   7.209   7.751 -0.4534  0.6664  0.6032
    1MOL    H36   36   7.134   7.165   7.829  1.6255  1.1448  0.7888
    1MOL    H37   37   7.291   7.009   7.594 -1.0583 -0.0936 -1.1977
    1MOL    H38   38   7.123   6.980   7.641 -0.7882  1.2701  0.1381
    1MOL    H39   39   7.386   6.780   0.023 -0.4028  1.3758 -1.0381
    1MOL    H40   40   7.563   6.794   0.018  0.3176 -0.4137  0.0696
    1MOL    C41   41   7.475   6.760   7.663 -0.1716  0.2777  0.2007
    1MOL    C42   42   7.417   6.624   7.675  0.6487  0.5069 -0.5454
    1MOL    C43   43   7.340   6.544   7.578  0.5949  0.1261  0.6096
    1MOL    C44   44   7.265   6.612   7.695 -0.3126  0.4299 -0.1371
    1MOL    C45   45   7.608   6.764   7.592 -0.7973  0.4348 -0.5187
    1MOL    H46   46   7.411   6.818   7.597  1.8410  1.4845 -0.7123
    1MOL    H47   47   7.484   6.558   7.728 -0.6541  0.5965  1.2615
    1MOL    H48   48   7.313   6.593   7.485  0.2904 -1.8027 -0.3281
    1MOL    H49   49   7.346   6.436   7.582 -0.2915  0.0195 -0.6856
    1MOL    H50   50   7.223   6.540   7.765 -1.4053 -0.4092 -1.6196
    1MOL    H51   51   7.197   6.696   7.678 -1.8685 -1.1494 -1.9586
    1MOL    H52   52   7.672   6.684   7.629 -1.6736  0.0909  0.2596
    1MOL    H53   53   7.664   6.856   7.607 -0.2857 -0.4195  3.1735
    1MOL    C54   54   7.592   6.732   7.437  0.1252  0.2961 -0.1760
    1MOL    C55   55   7.558   6.864   7.369 -0.8515  0.2373 -0.7333
    1MOL    C56   56   7.418   6.924   7.356  0.0609  0.3755  0.4815
    1MOL    C57   57   7.499   6.874   7.235  0.2807 -0.3181  0.0919
    1MOL    C58   58   7.714   6.657   7.379  0.1813  0.2307  0.0673
    1MOL    H59   59   7.506   6.664   7.430  0.4804 -0.3302  1.2223
    1MOL    H60   60   7.638   6.937   7.382  0.2745 -1.5771  2.9638
    1MOL    H61   61   7.338   6.858   7.389 -2.6894  2.3235 -1.9836
    1MOL    H62   62   7.397   7.031   7.354 -2.2618 -0.0629 -0.5967
    1MOL    H63   63   7.549   6.935   7.160 -0.8595  0.9265  0.3196
    1MOL    H64   64   7.460   6.786   7.186 -0.6724  0.3837 -0.4355
    1MOL    H65   65   7.707   6.654   7.270 -0.6202  0.9252  0.1006
    1MOL    H66   66   7.800   6.720   7.400 -1.3125  2.6236 -0.6950
    1MOL    C67   67   7.743   6.510   7.420 -0.3730 -0.5241  0.4256
    1MOL    C68   68   7.684   6.412   7.322 -0.4166  0.2310 -0.6675
    1MOL    C69   69   7.636   6.275   7.365  0.3255  0.1631 -0.1414
    1MOL    C70   70   7.541   6.379   7.317 -0.1364 -0.5116 -0.2890
    1MOL    C71   71   0.060   6.491   7.426  0.1183 -1.0324 -0.3035
    1MOL    H72   72   7.704   6.498   7.521 -0.3968 -1.2164  0.3385
    1MOL    H73   73   7.740   6.410   7.228 -0.2719 -0.6503 -0.5671
    1MOL    H74   74   7.668   6.191   7.303  1.2052  0.1932  0.2657
    1MOL    H75   75   7.629   6.245   7.469  1.8676 -0.3616 -0.1729
    1MOL    H76   76   7.490   6.423   7.402 -0.3261 -0.6310 -0.3417
    1MOL    H77   77   7.495   6.361   7.220  2.1395 -0.6903 -1.3779
    1MOL    H78   78   0.107   6.537   7.339  0.3120 -1.5163 -0.4567
    1MOL    H79   79   0.080   6.386   7.406  0.1849 -1.4198  1.6952
    1MOL    C80   80   0.132   6.540   7.560 -0.1017 -0.4491 -0.4226
    1MOL    C81   81   0.278   6.570   7.525  0.2598  0.5782  0.7342
    1MOL    C82   82   0.375   6.670   7.570  0.0138 -0.0613  0.4258
    1MOL    C83   83   0.299   6.695   7.445 -0.4975  0.3774  1.0150
    1MOL    C84   84   0.109   6.436   7.671 -0.2690 -0.2512 -0.0089
    1MOL    H85   85   0.096   6.638   7.592  3.2849  0.9704 -0.7593
    1MOL    H86   86   0.329   6.481   7.489 -0.9760  0.5893 -1.1131
    1MOL    H87   87   0.482   6.660   7.558  0.1626 -1.2968  2.4311
    1MOL    H88   88   0.358   6.744   7.648  1.3532 -0.9587  1.5945
    1MOL    H89   89   0.207   6.753   7.455 -0.4154  0.4016  1.6875
    1MOL    H90   90   0.363   6.685   7.358 -1.7905  0.0744  0.0904
    1MOL    H91   91   0.007   6.398   7.677 -0.3013 -0.1768 -0.0764
    1MOL    H92   92   0.188   6.361   7.669 -0.3931 -0.3751 -0.3222
    1MOL    C93   93   0.138   6.509   7.804 -0.1716 -0.1903  0.2523
    1MOL    C94   94   0.020   6.603   0.006 -0.6053 -0.4708 -0.4490
    1MOL    C95   95   0.022   6.691   0.132  0.6209  0.5553  0.4177
    1MOL    C96   96   0.036   6.754   7.834  0.2584 -0.3674 -0.2219
    1MOL    C97   97   0.149   6.411   0.088  0.1863 -0.3035 -0.2302
    1MOL    H98   98   0.228   6.570   7.803 -1.7654  2.1784 -0.3404
    1MOL    H99   99   7.762   6.564   7.815 -1.1119 -0.9254  1.7209
    1MOL   H100  100   7.768   6.707   0.185 -0.1308 -4.3217  0.7858
    1MOL   H101  101   0.107   6.685   0.199  1.5269  2.1033 -0.5405
    1MOL   H102  102   7.796   6.824   7.808 -1.0091 -1.1838  1.3267
    1MOL   H103  103   0.131   6.806   7.826 -1.2137  2.3338 -0.6297
    1MOL   H104  104   0.122   6.307   0.070  0.9177 -0.8746  1.8016
    1MOL   H105  105   0.074   6.428   0.166  1.2140  2.0189  0.2909
    1MOL   C106  106   0.295   6.420   0.154 -0.6702 -0.3220  0.0365
    1MOL   C107  107   0.299   6.364   0.285 -0.3396  0.1442 -0.0904
    1MOL   C108  108   0.363   6.424   0.408  0.2354 -0.1916  0.6442
    1MOL   C109  109   0.220   6.400   0.404  1.0355  0.0440 -0.2109
    1MOL   C110  110   0.405   6.365   0.062 -0.3211  0.5388 -0.0642
    1MOL   H111  111   0.303   6.527   0.173  0.7599 -0.4961  0.4779
    1MOL   H112  112   0.307   6.256   0.274  1.9369  0.0692  2.0044
    1MOL   H113  113   0.432   6.354   0.454  1.1269  1.2290  1.5022
    1MOL   H114  114   0.399   6.527   0.409  0.6253 -0.3335  1.2042
    1MOL   H115  115   0.148   6.481   0.396 -1.3205 -2.0919 -1.6231
    1MOL   H116  116   0.183   6.320   0.469 -1.0875  0.6316 -0.6413
    1MOL   H117  117   0.420   6.258   0.077  0.3297  0.9095  2.1293
    1MOL   H118  118   0.371   6.375   7.798 -2.2376  0.2606  0.5171
    1MOL   C119  119   0.548   6.421   0.090  0.1005 -0.1360  0.0225
    1MOL   C120  120   0.654   6.327   0.038 -0.1950 -0.9708  0.5196
    1MOL   C121  121   0.682   6.189   0.092  0.3832  0.0424 -0.3091
    1MOL   C122  122   0.782   6.305   0.106  0.6884  1.0001  0.6959
    1MOL   C123  123   0.562   6.566   0.023 -0.3850  0.2810  0.3393
    1MOL   H124  124   0.561   6.421   0.198 -1.7147  0.5467  0.2661
    1MOL   H125  125   0.662   6.344   7.771 -2.8079  0.4534  0.4957
    1MOL   H126  126   0.701   6.109   0.020 -1.7261 -1.1842  0.4588
    1MOL   H127  127   0.633   6.149   0.180  0.1407  0.6857 -0.1511
    1MOL   H128  128   0.809   6.348   0.202  2.0705  1.4728  0.1049
    1MOL   H129  129   0.859   6.297   0.029  2.5230  0.4604  2.5394
    1MOL   H130  130   0.571   6.561   7.754 -0.2681  0.1292  0.3544
    1MOL   H131  131   0.467   6.617   0.038  0.5386  1.7018  1.4729
    1MOL   C132  132   0.685   6.649   0.049 -0.0835 -0.1452 -0.1915
    1MOL   C133  133   0.666   6.718   0.180  0.9238  0.6142  0.2896
    1MOL   C134  134   0.778   6.758   0.260 -0.4117  0.6399 -0.5980
    1MOL   C135  135   0.688   6.649   0.315  0.2625  0.1985 -0.1816
    1MOL   C136  136   0.733   6.749   7.780  0.3706 -0.4227  1.0672
    1MOL   H137  137   0.766   6.582   0.079 -2.3351 -2.4472  1.0033
    1MOL   H138  138   0.579   6.783   0.193  0.7372  0.6886 -1.2682
    1MOL   H139  139   0.874   6.721   0.224 -0.3080  0.9198 -0.6060
    1MOL   H140  140   0.774   6.857   0.304 -0.1292 -0.0325  0.9707
    1MOL   H141  141   0.728   6.548   0.317 -0.1400  0.0442  3.9836
    1MOL   H142  142   0.614   6.676   0.391  0.3097  0.1896 -0.1332
    1MOL   H143  143   0.652   6.781   7.715  2.4254  0.7646 -0.9836
    1MOL   H144  144   0.762   6.834   0.002 -0.3208  2.2117 -2.1122
    1MOL   C145  145   0.853   6.707   7.693 -0.1409  0.2908 -0.2750
    1MOL   C146  146   0.979   6.685   7.778 -0.1012  0.4627 -0.3400
    1MOL   C147  147   1.024   6.548   7.820 -0.6276 -0.5704 -0.0144
    1MOL   C148  148   1.106   6.634   7.725  0.1155 -0.3271 -0.6875
    1MOL   C149  149   0.814   6.600   7.580 -0.2447 -0.2687 -0.3881
    1MOL   H150  150   0.881   6.795   7.636  1.7065 -0.0264  0.1005
    1MOL   H151  151   0.987   6.764   0.013 -2.4963  1.3650 -0.9813
    1MOL   H152  152   1.038   6.547   0.089 -0.1151 -0.4009 -0.0789
    1MOL   H153  153   0.965   6.464   7.784 -0.4088 -1.2906  1.2465
    1MOL   H154  154   1.098   6.617   7.618 -0.5887  1.2885 -0.9070
    1MOL   H155  155   1.201   6.669   7.765 -0.3609  1.2883 -0.9017
    1MOL   H156  156   0.904   6.548   7.547 -0.9635 -1.0626 -1.1170
    1MOL   H157  157   0.744   6.525   7.618 -0.1401 -0.1109  0.1266
    1MOL   C158  158   0.762   6.667   7.443 -0.4973  0.8325  0.0202
    1MOL   C159  159   0.672   6.581   7.356 -0.0380  0.4344 -0.1669
    1MOL   C160  160   0.721   6.448   7.309 -0.5656 -0.0370 -0.3987
    1MOL   C161  161   0.604   6.451   7.404  0.0940  0.2109  0.0196
    1MOL   C162  162   0.873   6.728   7.358  0.6452  0.7155 -0.3882
    1MOL   H163  163   0.693   6.747   7.470 -0.2445  0.8370  0.6740
    1MOL   H164  164   0.610   6.637   7.287 -0.9268 -2.0493 -1.4395
    1MOL   H165  165   0.817   6.407   7.341 -1.8603 -1.5225  1.6258
    1MOL   H166  166   0.693   6.415   7.209  0.5029 -2.6264  0.1158
    1MOL   H167  167   0.503   6.431   7.367  0.2599  1.1255 -0.9552
    1MOL   H168  168   0.622   6.412   7.504  0.6396  1.0597  0.2498
    1MOL   H169  169   0.884   6.676   7.263 -0.8433 -0.1320 -0.1221
    1MOL   H170  170   0.970   6.702   7.401 -0.2350 -1.8315  0.1733
    1MOL   C171  171   0.857   6.879   7.346 -0.0627 -0.5380 -0.2939
    1MOL   C172  172   0.992   6.942   7.315 -0.4872 -0.4592 -0.0903
    1MOL   C173  173   1.034   7.078   7.366  0.3452 -0.3797 -0.1188
    1MOL   C174  174   1.096   6.951   7.423 -0.3988 -0.1136  0.1403
    1MOL   C175  175   0.756   6.925   7.232 -0.6262  0.5561  0.3200
    1MOL   H176  176   0.825   6.926   7.439 -0.0871  0.5057 -0.8285
    1MOL   H177  177   1.026   6.918   7.214 -0.8529  2.5929 -0.9729
    1MOL   H178  178   1.071   7.130   7.278 -0.8598 -0.4108 -0.6572
    1MOL   H179  179   0.962   7.135   7.424  2.8402  0.7085  1.9708
    1MOL   H180  180   1.072   6.928   7.527 -1.1698  0.8131  0.1848
    1MOL   H181  181   1.195   6.916   7.397 -0.5481 -0.7386  0.3955
    1MOL   H182  182   0.687   6.842   7.215  2.0714 -1.6255 -0.3416
    1MOL   H183  183   0.804   6.930   7.135  2.8076  0.1879  1.9375
    1MOL   C184  184   0.677   7.051   7.240  0.2105  0.2509  0.4844
    1MOL   C185  185   0.569   7.031   7.350 -0.1203  0.2710  0.1326
    1MOL   C186  186   0.495   7.148   7.404  0.1339  0.4579 -0.1699
    1MOL   C187  187   0.593   7.061   7.492 -0.2939 -0.4600  0.9232
    1MOL   C188  188   0.589   7.058   7.117  0.5806 -0.1865  1.1606
    1MOL   H189  189   0.731   7.144   7.262  0.9780 -0.1199  0.2040
    1MOL   H190  190   0.516   6.936   7.339  0.4155  0.1835 -1.8707
    1MOL   H191  191   0.389   7.130   7.423 -0.2676  1.3997 -1.4639
    1MOL   H192  192   0.519   7.252   7.384 -0.4681  0.7929  0.7999
    1MOL   H193  193   0.549   6.995   7.566 -0.6526 -1.7291 -0.3877
    1MOL   H194  194   0.680   7.119   7.523  1.0981 -1.5259 -0.8615
    1MOL   H195  195   0.494   7.105   7.143  0.7650  0.3820  0.7980
    1MOL   H196  196   0.563   6.954   7.093 -1.3525  0.7122 -0.7924
    1MOL   C197  197   0.635   7.151   7.004  0.5722  0.1392 -0.0230
    1MOL   C198  198   0.647   7.292   7.056  0.0540 -0.4311 -0.3943
    1MOL   C199  199   0.712   7.404   6.976 -0.1099 -0.3216 -0.3476
    1MOL   C200  200   0.778   7.358   7.102 -0.2756 -1.0215  0.0257
    1MOL   C201  201   0.548   7.152   6.879  0.3462  0.3924  0.8244
    1MOL   H202  202   0.734   7.116   6.977  0.3091 -1.2851  0.7895
    1MOL   H203  203   0.556   7.321   7.108 -1.4930 -3.5700 -1.2219
    1MOL   H204  204   0.768   7.380   6.886 -1.9916  0.2787 -1.7147
    1MOL   H205  205   0.650   7.493   6.974 -1.9471 -1.5128  1.4104
    1MOL   H206  206   0.875   7.310   7.096  1.5523  2.3955  1.0662
    1MOL   H207  207   0.775   7.430   7.183  1.6739  0.9279 -1.5652
    1MOL   H208  208   0.461   7.215   6.901 -0.6476 -0.4457 -0.5758
    1MOL   H209  209   0.601   7.208   6.802 -1.5382  1.0332 -0.0639
    1MOL   C210  210   0.493   7.016   6.824 -0.3279  0.0755 -0.2484
    1MOL   C211  211   0.400   7.048   6.705 -0.4897  0.4615  0.6525
    1MOL   C212  212   0.296   6.947   6.645  0.1833  0.0650 -0.5203
    1MOL   C213  213   0.251   7.078   6.709 -0.4349  0.1592 -0.3729
    1MOL   C214  214   0.607   6.923   6.786  0.9084 -0.1483 -0.3765
    1MOL   H215  215   0.427   6.972   6.899 -0.1761 -1.9872 -1.2775
    1MOL   H216  216   0.453   7.108   6.631  1.4631 -0.3781  1.3301
    1MOL   H217  217   0.298   6.940   6.536  0.2430 -0.8897 -0.4676
    1MOL   H218  218   0.267   6.858   6.701 -0.3752 -1.1755 -2.7074
    1MOL   H219  219   0.214   7.150   6.637  2.6428 -0.4465 -2.7048
    1MOL   H220  220   0.192   7.074   6.800  0.7770  1.1725  0.4697
    1MOL   H221  221   0.650   6.943   6.688  1.7319 -1.0501 -0.2064
    1MOL   H222  222   0.692   6.941   6.851  0.3112 -0.7500  0.5929
    1MOL   C223  223   0.587   6.773   6.787  0.2463 -0.3242 -0.5869
    1MOL   C224  224   0.583   6.727   6.926 -0.2124  0.8610 -0.8216
    1MOL   C225  225   0.447   6.719   7.001  0.1865  0.6697  0.1829
    1MOL   C226  226   0.522   6.596   6.972  0.5740 -0.2841  0.3665
    1MOL   C227  227   0.689   6.692   6.715  0.0760 -0.2605  1.0188
    1MOL   H228  228   0.489   6.763   6.741  0.0330  1.9447 -0.6580
    1MOL   H229  229   0.663   6.770   6.985 -0.2074  0.1624 -0.3150
    1MOL   H230  230   0.351   6.724   6.950 -0.1070 -2.1678  0.4031
    1MOL   H231  231   0.457   6.754   7.103 -0.2109 -0.0450  0.4723
    1MOL   H232  232   0.572   6.546   7.055  2.0710  1.6731  0.6804
    1MOL   H233  233   0.486   6.525   6.898 -0.4715 -0.9408  1.4722
    1MOL   H234  234   0.784   6.746   6.714  0.0894 -0.2828  1.1680
    1MOL   H235  235   0.724   6.602   6.766  0.9052 -1.9475 -2.3326
    1MOL   C236  236   0.652   6.649   6.573  0.5133  1.0562  0.6414
    1MOL   C237  237   0.592   6.756   6.490 -0.1031 -0.3284 -0.3151
    1MOL   C238  238   0.686   6.857   6.424  0.0190 -0.5776 -0.1553
    1MOL   C239  239   0.615   6.759   6.339  0.0322  0.0434 -0.4807
    1MOL   C240  240   0.566   6.522   6.586 -0.0847 -0.3826  0.2715
    1MOL   H241  241   0.747   6.623   6.526 -1.1976 -0.0968 -2.2754
    1MOL   H242  242   0.491   6.788   6.512 -0.0385 -1.2264  1.3038
    1MOL   H243  243   0.649   6.958   6.433 -3.0913 -1.6842 -0.0761
    1MOL   H244  244   0.793   6.846   6.444 -0.1815  0.0477  1.3103
    1MOL   H245  245   0.672   6.678   6.294 -1.1580 -0.6167 -0.8334
    1MOL   H246  246   0.530   6.792   6.280  0.0591  0.8174 -0.0872
    1MOL   H247  247   0.610   6.449   6.654 -0.7090 -0.8647  0.1671
    1MOL   H248  248   0.477   6.560   6.638 -0.3924  0.6081 -0.9654
    1MOL   C249  249   0.544   6.449   6.457  0.0877 -0.3308  0.1305
    1MOL   C250  250   0.435   6.347   6.470  0.3407  0.0336 -0.2862
    1MOL   C251  251   0.291   6.385   6.436  0.0879 -0.3355 -0.3130
    1MOL   C252  252   0.363   6.276   6.352  0.2273 -0.6573 -0.2260
    1MOL   C253  253   0.669   6.382   6.405  0.2799  0.0457 -0.0122
    1MOL   H254  254   0.501   6.523   6.390  1.8216  1.2720  0.7535
    1MOL   H255  255   0.454   6.270   6.544 -0.3215  0.8039  0.6900
    1MOL   H256  256   0.208   6.338   6.490 -1.1508  3.9239  1.6750
    1MOL   H257  257   0.266   6.469   6.372 -0.2896 -0.0703  0.1780
    1MOL   H258  258   0.321   6.177   6.365 -1.5957  0.1240 -0.0561
    1MOL   H259  259   0.408   6.290   6.254 -0.0827 -3.4304 -0.8109
    1MOL   H260  260   0.667   6.345   6.302 -0.9566 -1.4088  0.5155
    1MOL   H261  261   0.699   6.298   6.468  1.3336  0.1560 -0.3578
    1MOL   H262  262   0.754   6.450   6.401  0.2667  0.2527  2.4198
    2MOL     C1  263   1.839   1.580   7.021 -0.0016 -0.1403  0.0273
    2MOL     C2  264   1.949   1.510   7.109 -0.4308 -0.2471 -0.2047
    2MOL     C3  265   1.899   1.454   7.245  0.0974  0.1633 -0.6337
    2MOL     C4  266   2.012   1.559   7.232 -0.1433 -0.3052  0.7940
    2MOL     C5  267   1.746   1.483   6.943 -0.1313 -0.1575  0.0382
    2MOL     H6  268   1.777   1.653   7.073 -0.5001 -1.0280  0.6956
    2MOL     H7  269   2.018   1.452   7.049 -0.4596 -0.6104  0.1128
    2MOL     H8  270   1.797   1.466   7.283  0.4740 -0.4120  0.5857
    2MOL     H9  271   1.946   1.360   7.272  0.4698 -0.0341 -1.9752
    2MOL    H10  272   2.109   1.513   7.255 -1.2031 -2.6735  0.6735
    2MOL    H11  273   1.980   1.653   7.277 -0.0690 -0.7485  1.7922
    2MOL    H12  274   1.692   1.421   7.015  0.4839 -0.0562  0.5873
    2MOL    H13  275   1.797   1.414   6.876 -0.5946 -1.4054  0.9380
    2MOL    H14  276   1.889   1.640   6.944 -1.5562  1.7891  0.4856
    2MOL    C15  277   1.629   1.557   6.880  0.1503  0.1768  0.1668
    2MOL    C16  278   1.671   1.670   6.786  0.9246  0.8863 -0.1825
    2MOL    C17  279   1.689   1.814   6.838 -0.4637 -0.2374 -0.4952
    2MOL    C18  280   1.571   1.782   6.755 -0.0541  0.4791  0.4060
    2MOL    C19  281   1.542   1.451   6.802 -0.8895 -0.4336 -0.2928
    2MOL    H20  282   1.561   1.601   6.953  0.0596  2.7765 -1.4120
    2MOL    H21  283   1.725   1.629   6.701  0.3052  1.5225 -0.8883
    2MOL    H22  284   1.762   1.878   6.788 -1.3391 -0.3149 -1.8855
    2MOL    H23  285   1.689   1.823   6.946  2.8264 -0.5765 -0.4113
    2MOL    H24  286   1.473   1.774   6.801 -0.1171  0.5491  0.2876
    2MOL    H25  287   1.570   1.827   6.655 -1.4116  0.4371  0.3961
    2MOL    H26  288   1.549   1.357   6.857  0.3347 -0.2182 -0.0492
    2MOL    H27  289   1.596   1.428   6.710 -0.2318 -1.2371  0.2756
    2MOL    C28  290   1.398   1.485   6.763  0.2454 -0.1172 -0.0299
    2MOL    C29  291   1.312   1.478   6.882 -0.0329  0.0846 -0.0192
    2MOL    C30  292   1.295   1.579   6.998  0.4360  0.3188  0.6539
    2MOL    C31  293   1.181   1.554   6.904  0.3105 -0.1800  0.3891
    2MOL    C32  294   1.344   1.383   6.651  0.3015 -0.0979 -0.4428
    2MOL    H33  295   1.392   1.583   6.714 -0.4099 -1.5876 -3.0480
    2MOL    H34  296   1.311   1.379   6.927  2.8720  0.4553  0.9464
    2MOL    H35  297   1.349   1.674   6.988 -0.6977  0.7701 -1.5340
    2MOL    H36  298   1.281   1.545   7.100 -0.6034 -1.0686  0.0533
    2MOL    H37  299   1.154   1.627   6.828  0.9034  0.1243  0.4624
    2MOL    H38  300   1.106   1.488   6.946  1.6842 -0.9590  1.6673
    2MOL    H39  301   1.242   1.356   6.676 -0.9297  1.5138 -3.3669
    2MOL    H40  302   1.405   1.293   6.659  3.3303  2.1460  3.2392
    2MOL    C41  303   1.338   1.440   6.506 -0.0215  0.6779  0.3652
    2MOL    C42  304   1.477   1.442   6.451  0.0873 -0.0089  0.9967
    2MOL    C43  305   1.511   1.433   6.308 -0.1956 -0.2641 -0.3479
    2MOL    C44  306   1.519   1.314   6.388 -0.9989 -0.1619  0.1074
    2MOL    C45  307   1.269   1.577   6.490 -0.3163 -0.9733 -0.1805
    2MOL    H46  308   1.279   1.367   6.451  0.4331 -0.4344  1.3194
    2MOL    H47  309   1.550   1.494   6.514 -0.8417  1.3942  0.9471
    2MOL    H48  310   1.424   1.455   6.246 -0.4150  0.0923  0.0822
    2MOL    H49  311   1.603   1.480   6.272  0.8938 -1.1878  1.1353
    2MOL    H50  312   1.621   1.279   6.404 -1.5132 -1.2520  1.0865
    2MOL    H51  313   1.445   1.239   6.360  1.0408 -1.9477 -0.6222
    2MOL    H52  314   1.340   1.654   6.521 -1.3258 -0.9763  2.2645
    2MOL    H53  315   1.205   1.586   6.578  0.3099 -2.7014  0.4669
    2MOL    C54  316   1.207   1.621   6.350  0.0086  0.2579 -0.8544
    2MOL    C55  317   1.096   1.524   6.326  0.4304 -0.0584  0.3881
    2MOL    C56  318   1.102   1.395   6.239  0.6208 -0.3463  0.4821
    2MOL    C57  319   1.035   1.517   6.190  0.0929 -0.1248 -0.4453
    2MOL    C58  320   1.159   1.767   6.353 -0.1718  0.3739 -0.0206
    2MOL    H59  321   1.283   1.615   6.272  1.7317  1.1157  0.7259
    2MOL    H60  322   1.019   1.534   6.403 -0.8182  1.4758 -0.9984
    2MOL    H61  323   1.199   1.375   6.194  1.4138 -2.8697  3.1101
    2MOL    H62  324   1.043   1.309   6.273 -0.4419  1.1122  2.4703
    2MOL    H63  325   0.926   1.514   6.193  0.0992 -0.6108 -0.7751
    2MOL    H64  326   1.079   1.575   6.110 -1.2183  0.2810 -0.8891
    2MOL    H65  327   1.095   1.774   6.265 -1.4749  1.7051  1.0206
    2MOL    H66  328   1.089   1.772   6.436  0.6705 -1.2211  0.8111
    2MOL    C67  329   1.263   1.887   6.347  0.2662  0.6301  0.7111
    2MOL    C68  330   1.384   1.848   6.253  0.1238  0.1241 -0.2487
    2MOL    C69  331   1.517   1.913   6.255  0.2922 -0.1803  0.1547
    2MOL    C70  332   1.504   1.783   6.327  0.7041 -0.1670 -0.0064
    2MOL    C71  333   1.201   2.018   6.301 -0.1233 -0.5702 -0.2356
    2MOL    H72  334   1.301   1.894   6.449 -0.1817 -0.5426  0.9643
    2MOL    H73  335   1.355   1.806   6.157 -0.5383 -1.1736  0.5162
    2MOL    H74  336   1.556   1.919   6.153 -1.4027  1.1076 -0.4351
    2MOL    H75  337   1.511   2.004   6.314 -0.5225 -1.6566  2.3830
    2MOL    H76  338   1.519   1.791   6.435 -0.4250 -1.9453  0.2999
    2MOL    H77  339   1.568   1.705   6.286 -1.3149 -0.9471 -1.7390
    2MOL    H78  340   1.130   2.001   6.220 -0.1090 -0.2467 -0.3163
    2MOL    H79  341   1.280   2.077   6.253  1.3021 -1.0309  1.5106
    2MOL    C80  342   1.124   2.093   6.408  0.1235  0.4813  0.2007
    2MOL    C81  343   1.023   2.192   6.358 -0.6989 -0.4567  0.9731
    2MOL    C82  344   0.903   2.231   6.432  0.5178 -0.3488  0.3571
    2MOL    C83  345   0.888   2.153   6.303 -0.1623  0.8815  1.0862
    2MOL    C84  346   1.223   2.160   6.500 -0.8091 -0.7645 -0.2389
    2MOL    H85  347   1.069   2.014   6.459 -2.7365 -0.5468 -4.1895
    2MOL    H86  348   1.068   2.267   6.294  0.8850 -2.2378 -0.0468
    2MOL    H87  349   0.883   2.338   6.430  1.7958 -0.0989  0.7575
    2MOL    H88  350   0.882   2.181   6.526 -0.6419 -0.3856  0.0912
    2MOL    H89  351   0.864   2.048   6.317  0.7698  0.9738  3.5848
    2MOL    H90  352   0.844   2.201   6.216 -2.2421 -1.2535  0.9269
    2MOL    H91  353   1.326   2.128   6.484 -0.5372  0.9606 -2.0570
    2MOL    H92  354   1.227   2.262   6.462  2.1637  0.4872  3.1682
    2MOL    C93  355   1.179   2.172   6.648 -0.0321  1.0652 -0.5925
    2MOL    C94  356   1.210   2.037   6.730  0.4129 -0.2278  0.3753
    2MOL    C95  357   1.148   2.007   6.868 -0.5064  0.3391 -0.2449
    2MOL    C96  358   1.114   1.930   6.737  0.2374  0.7600  0.6311
    2MOL    C97  359   1.241   2.296   6.717 -0.1381  0.4216  0.2806
    2MOL    H98  360   1.071   2.184   6.656  0.2267  2.5417  0.9639
    2MOL    H99  361   1.310   2.002   6.707 -0.7555 -3.2339 -0.5179
    2MOL   H100  362   1.225   1.977   6.938 -1.6432  0.5215  1.1156
    2MOL   H101  363   1.069   2.074   6.903 -0.8973 -0.4442  0.3765
    2MOL   H102  364   1.155   1.830   6.721 -0.7317  0.0914  2.1807
    2MOL   H103  365   1.017   1.942   6.689 -0.6165  2.3505  2.6651
    2MOL   H104  366   1.177   2.302   6.806  1.4245 -0.9301  1.5212
    2MOL   H105  367   1.208   2.372   6.646 -0.5174  1.0217  1.0905
    2MOL   C106  368   1.391   2.301   6.761 -0.0871  0.3827  0.3950
    2MOL   C107  369   1.492   2.298   6.645  0.3391  0.3169  0.1630
    2MOL   C108  370   1.634   2.240   6.675  0.4881  0.7617  0.2191
    2MOL   C109  371   1.539   2.165   6.591  0.7061 -0.4304 -0.1413
    2MOL   C110  372   1.415   2.425   6.849 -0.0401  0.0102 -0.2050
    2MOL   H111  373   1.408   2.210   6.817 -2.3140  0.9182  2.0242
    2MOL   H112  374   1.504   2.383   6.579 -0.4930  1.1168  1.0266
    2MOL   H113  375   1.716   2.296   6.631  2.5913 -1.4588  1.1768
    2MOL   H114  376   1.655   2.201   6.774 -1.3016 -0.5719  0.1079
    2MOL   H115  377   1.518   2.071   6.640 -1.1980  0.7199  1.3258
    2MOL   H116  378   1.541   2.159   6.482 -1.0596 -1.0287 -0.1424
    2MOL   H117  379   1.414   2.515   6.787  0.4252  0.6776  0.7403
    2MOL   H118  380   1.324   2.443   6.908 -0.5390 -1.2398 -0.5769
    2MOL   C119  381   1.542   2.418   6.941  0.1558  0.3564 -0.4106
    2MOL   C120  382   1.562   2.555   6.994  0.3449  0.2809  0.5433
    2MOL   C121  383   1.619   2.663   6.907 -0.2063  0.0327 -0.3414
    2MOL   C122  384   1.692   2.616   7.029  0.1120 -0.4384  0.0633
    2MOL   C123  385   1.532   2.309   7.052 -0.8093 -0.2640  0.4925
    2MOL   H124  386   1.632   2.393   6.884  0.9600 -1.1109  1.4503
    2MOL   H125  387   1.476   2.594   7.048  1.0785 -2.5347  3.9985
    2MOL   H126  388   1.579   2.764   6.900 -0.2178  0.1718  1.4277
    2MOL   H127  389   1.657   2.624   6.813  1.1986  1.4112 -0.3686
    2MOL   H128  390   1.782   2.561   7.003  0.8273  0.3652  0.7788
    2MOL   H129  391   1.696   2.657   7.130  0.6947 -0.4316  0.0401
    2MOL   H130  392   1.518   2.210   7.008 -2.3640 -0.0909  0.5731
    2MOL   H131  393   1.629   2.298   7.100 -2.1242  2.0348  3.8868
    2MOL   C132  394   1.420   2.343   7.152  0.3286  0.4009 -0.7353
    2MOL   C133  395   1.461   2.311   7.290 -1.3957 -0.3300 -0.5842
    2MOL   C134  396   1.440   2.397   7.417  0.2182 -0.3052 -0.4196
    2MOL   C135  397   1.569   2.403   7.347 -0.5326  0.0821  1.2358
    2MOL   C136  398   1.286   2.267   7.133 -0.2313 -0.3475 -0.3819
    2MOL   H137  399   1.390   2.447   7.156  0.1650  0.4063 -1.8006
    2MOL   H138  400   1.477   2.205   7.307  1.0675  0.0180 -0.4951
    2MOL   H139  401   1.359   2.468   7.405 -1.3077 -1.8471  0.6058
    2MOL   H140  402   1.432   2.342   7.511  1.4046  0.5367  0.1980
    2MOL   H141  403   1.599   2.488   7.286 -1.2140 -0.1485  0.5630
    2MOL   H142  404   1.652   2.370   7.409 -0.7929 -1.8364  0.6251
    2MOL   H143  405   1.270   2.256   7.026 -1.1957  0.4734 -0.3310
    2MOL   H144  406   1.295   2.163   7.166  0.0253 -0.2056  0.0031
    2MOL   C145  407   1.160   2.312   7.201  0.4471 -0.0668  0.6019
    2MOL   C146  408   1.117   2.449   7.146  0.4291  0.3099  0.6310
    2MOL   C147  409   1.018   2.543   7.200 -0.4327 -0.1378  0.5806
    2MOL   C148  410   1.168   2.574   7.203 -0.3653  0.1274  0.1498
    2MOL   C149  411   1.034   2.226   7.193 -0.5103 -0.0481  0.2028
    2MOL   H150  412   1.182   2.344   7.303  1.3117 -3.4390  1.5296
    2MOL   H151  413   1.117   2.442   7.037 -2.8098 -0.3787  0.6328
    2MOL   H152  414   0.953   2.600   7.134 -0.6712 -0.0753  0.8693
    2MOL   H153  415   0.968   2.515   7.292 -1.8601 -3.6432 -1.1592
    2MOL   H154  416   1.210   2.572   7.304  1.0317  0.4922 -0.4082
    2MOL   H155  417   1.200   2.655   7.138 -0.3725 -1.1399 -1.4476
    2MOL   H156  418   0.960   2.292   7.239  0.6065  1.5280 -0.2515
    2MOL   H157  419   1.002   2.213   7.090 -1.6111 -0.0489  0.5366
    2MOL   C158  420   1.018   2.085   7.254 -0.3115  0.0225  0.3313
    2MOL   C159  421   0.881   2.032   7.226 -0.5448  0.5278 -0.5443
    2MOL   C160  422   0.845   1.948   7.105  0.8928  0.2847  0.0439
    2MOL   C161  423   0.850   1.883   7.238  0.3487 -0.3946  0.0234
    2MOL   C162  424   1.049   2.077   7.400  0.3508  0.8339 -0.0436
    2MOL   H163  425   1.092   2.028   7.199  0.4729  1.3363  0.0098
    2MOL   H164  426   0.806   2.105   7.255  2.1960  3.0957  0.3809
    2MOL   H165  427   0.926   1.914   7.041  0.8136  0.6251 -0.2378
    2MOL   H166  428   0.747   1.967   7.061  1.5142 -0.8263 -1.8310
    2MOL   H167  429   0.765   1.875   7.306 -1.0012 -1.2876 -1.7275
    2MOL   H168  430   0.937   1.821   7.257 -1.3383 -2.4017  1.5067
    2MOL   H169  431   0.994   2.003   7.458 -0.3796  0.8714 -0.6901
    2MOL   H170  432   0.995   2.164   7.439 -1.1330 -0.0018 -0.1921
    2MOL   C171  433   1.194   2.066   7.449 -0.3694  0.2498  0.4940
    2MOL   C172  434   1.226   2.125   7.586  0.4040  0.2627 -0.4323
    2MOL   C173  435   1.133   2.226   7.665  0.6838 -0.1257  0.6424
    2MOL   C174  436   1.147   2.082   7.705  0.6228  0.6884 -0.0441
    2MOL   C175  437   1.259   1.920   7.428  0.1879 -0.8002 -0.4444
    2MOL   H176  438   1.240   2.131   7.374 -3.0753  1.3386 -0.2839
    2MOL   H177  439   1.333   2.142   7.592  0.4790 -0.2603 -0.2672
    2MOL   H178  440   1.185   2.306   7.718  2.3584 -0.3436 -0.6140
    2MOL   H179  441   1.036   2.257   7.628  1.2193  1.5338  0.5628
    2MOL   H180  442   1.050   2.035   7.692 -0.2678  2.0172  1.5877
    2MOL   H181  443   1.204   2.050   7.792  0.8185  1.8558  0.2652
    2MOL   H182  444   1.246   1.895   7.323 -2.3069 -0.8445 -0.1482
    2MOL   H183  445   1.205   1.840   7.478 -1.6148  0.0689 -0.9588
    2MOL   C184  446   1.413   1.914   7.458  0.6526 -0.6219 -0.3387
    2MOL   C185  447   1.480   1.824   7.367 -0.6113  0.3161  0.1581
    2MOL   C186  448   1.626   1.849   7.330 -0.3739 -0.3079 -0.7963
    2MOL   C187  449   1.517   1.859   7.227 -0.8491 -0.1850  0.6408
    2MOL   C188  450   1.434   1.870   7.597  0.1376 -0.2846  0.0384
    2MOL   H189  451   1.446   2.016   7.442 -0.6574 -0.1933 -0.3582
    2MOL   H190  452   1.456   1.718   7.375  2.3873 -0.4403 -0.3128
    2MOL   H191  453   1.696   1.765   7.329  0.0972  0.0852 -0.9047
    2MOL   H192  454   1.679   1.937   7.366  1.2347 -1.1483 -1.0562
    2MOL   H193  455   1.508   1.768   7.168  0.5325  2.0468 -3.2233
    2MOL   H194  456   1.484   1.950   7.178 -0.4079 -0.1170  0.4611
    2MOL   H195  457   1.402   1.767   7.608  0.9446 -0.4217  1.2554
    2MOL   H196  458   1.362   1.927   7.655 -1.0392 -1.4821 -0.2431
    2MOL   C197  459   1.573   1.884   7.663 -0.4798  0.0179 -0.0632
    2MOL   C198  460   1.575   1.807   7.799 -0.6520 -0.5659 -0.9536
    2MOL   C199  461   1.696   1.721   7.835  0.5508  0.3297 -0.2334
    2MOL   C200  462   1.570   1.659   7.787  0.0496  0.6854  0.2342
    2MOL   C201  463   1.615   2.032   7.678  0.1649 -0.3459 -0.3062
    2MOL   H202  464   1.647   1.840   7.595  0.8653 -3.1745  3.2880
    2MOL   H203  465   1.508   1.849   0.035  1.4793 -0.0573  0.6890
    2MOL   H204  466   1.781   1.729   7.768  0.3946 -0.4613 -0.5335
    2MOL   H205  467   1.705   1.702   0.103 -1.8481  1.7607  0.2782
    2MOL   H206  468   1.566   1.619   7.686 -0.0258 -0.4365  0.6778
    2MOL   H207  469   1.511   1.611   0.026 -0.5364  1.0453  0.0123
    2MOL   H208  470   1.615   2.081   7.581 -0.1924 -0.3759 -0.3185
    2MOL   H209  471   1.534   2.072   7.738  1.0333  2.8549 -1.1960
    2MOL   C210  472   1.749   2.069   7.757 -0.1957  0.8984 -0.3618
    2MOL   C211  473   1.822   2.179   7.681 -0.3336  0.8248  0.3705
    2MOL   C212  474   1.974   2.213   7.688 -0.6228 -0.2607 -0.0116
    2MOL   C213  475   1.914   2.152   7.567 -0.0636 -0.0024 -0.4092
    2MOL   C214  476   1.717   2.115   0.066 -0.2828  0.2412  0.1810
    2MOL   H215  477   1.803   1.975   7.754 -0.4109  0.6438  2.5715
    2MOL   H216  478   1.752   2.261   7.665 -2.2790 -0.6276  1.1680
    2MOL   H217  479   2.012   2.314   7.674 -1.5015 -0.2467 -2.5179
    2MOL   H218  480   2.044   2.148   7.741  0.6568  0.8283 -0.3479
    2MOL   H219  481   1.905   2.219   7.482 -1.0140 -0.9218 -1.0493
    2MOL   H220  482   1.939   2.048   7.544 -2.6202 -0.7719  0.1673
    2MOL   H221  483   1.669   2.212   0.066 -1.0933 -0.1320 -2.1200
    2MOL   H222  484   1.647   2.044   0.111  0.9564 -0.5776  0.8638
    2MOL   C223  485   1.839   2.108   0.162  0.4646  0.2002  0.5440
    2MOL   C224  486   1.838   1.989   0.253 -0.2602 -0.4779  0.4025
    2MOL   C225  487   1.911   1.861   0.215  0.2384 -0.0976 -0.4542
    2MOL   C226  488   1.967   1.949   0.326  0.1919  0.1831 -0.5294
    2MOL   C227  489   1.836   2.232   0.255 -0.0122 -0.4966 -0.8789
    2MOL   H228  490   1.930   2.101   0.103  0.5214 -1.3769  0.7975
    2MOL   H229  491   1.744   1.971   0.304 -1.6954 -0.7798 -2.2632
    2MOL   H230  492   1.977   1.864   0.129  2.5593  0.7450  1.2795
    2MOL   H231  493   1.849   1.774   0.233  0.7447 -0.5447 -0.8624
    2MOL   H232  494   1.957   1.904   0.425  0.2456  0.5013 -0.3768
    2MOL   H233  495   2.055   2.004   0.297  0.7565 -0.6340 -0.3791
    2MOL   H234  496   1.774   2.204   0.340 -1.2381  1.0803 -1.2322
    2MOL   H235  497   1.931   2.234   0.310 -0.2533 -0.5825 -0.4557
    2MOL   C236  498   1.822   2.368   0.194 -0.7453  0.4162  0.6042
    2MOL   C237  499   1.950   2.441   0.217 -0.4952 -0.1915  0.0438
    2MOL   C238  500   2.084   2.387   0.172 -0.4264  0.6019 -0.7229
    2MOL   C239  501   2.019   2.509   0.105 -0.0733 -0.3017  1.1632
    2MOL   C240  502   1.700   2.450   0.237 -0.5150  0.1873  0.5886
    2MOL   H241  503   1.804   2.359   0.087 -2.2951 -0.8828  0.9666
    2MOL   H242  504   1.960   2.491   0.313 -2.9517 -0.0177  0.2352
    2MOL   H243  505   2.168   2.400   0.241 -0.3674 -0.5734 -0.5635
    2MOL   H244  506   2.100   2.304   0.104 -2.3891  0.3624 -0.9069
    2MOL   H245  507   1.971   2.493   0.009 -0.2158 -1.0114  1.3564
    2MOL   H246  508   2.080   2.599   0.117  0.7399 -0.8702  1.3480
    2MOL   H247  509   1.611   2.388   0.233 -0.4325  0.1068  0.0103
    2MOL   H248  510   1.717   2.466   0.344 -0.5309 -2.0095  0.9260
    2MOL   C249  511   1.674   2.579   0.157  0.2935 -0.2370  0.4304
    2MOL   C250  512   1.562   2.670   0.209 -0.4201 -0.1472 -0.6401
    2MOL   C251  513   1.590   2.779   0.318  0.5942  0.4529  0.7648
    2MOL   C252  514   1.547   2.820   0.182 -0.4478 -0.4602 -0.3762
    2MOL   C253  515   1.634   2.548   0.015  0.1042 -0.6315  0.0977
    2MOL   H254  516   1.766   2.637   0.154  0.2810 -0.2645 -0.7881
    2MOL   H255  517   1.467   2.618   0.222  1.7959 -3.6818  2.5683
    2MOL   H256  518   1.513   2.766   0.394 -0.2361  1.1856  0.0577
    2MOL   H257  519   1.688   2.814   0.349  1.2994 -0.4250 -0.4381
    2MOL   H258  520   1.446   2.860   0.183  0.0358  0.7502  1.1830
    2MOL   H259  521   1.609   2.860   0.102  1.9810  1.9049  2.5301
    2MOL   H260  522   1.545   2.486   0.024 -0.6290  0.2202 -1.1463
    2MOL   H261  523   1.716   2.499   7.801  1.0590  0.0726  0.8844
    2MOL   H262  524   1.598   2.641   7.810 -0.4282 -1.1649 -0.6146
    3MOL     C1  525   4.513   6.740   0.700  0.5577  0.6127 -0.5923
    3MOL     C2  526   4.440   6.813   0.809 -0.0207  0.1605  0.5511
    3MOL     C3  527   4.428   6.965   0.802  0.2207 -0.0338 -0.6403
    3MOL     C4  528   4.525   6.902   0.901  0.4031 -0.5889  0.3010
    3MOL     C5  529   4.435   6.710   0.578 -0.4098 -0.9273 -0.3810
    3MOL     H6  530   4.603   6.791   0.666 -0.4942  2.1154 -1.2153
    3MOL     H7  531   4.363   6.757   0.861 -0.8397 -1.5711 -2.3963
    3MOL     H8  532   4.453   7.010   0.707 -0.5499 -0.8216 -1.2225
    3MOL     H9  533   4.333   7.005   0.837  1.8660  2.7020  0.8614
    3MOL    H10  534   4.495   6.897   1.006  0.9185  0.0684  0.4864
    3MOL    H11  535   4.631   6.897   0.875  0.3817 -0.9398  0.2760
    3MOL    H12  536   4.396   6.804   0.539  2.6559  0.9510  0.9551
    3MOL    H13  537   4.342   6.659   0.603 -1.3826 -0.1519 -2.2757
    3MOL    H14  538   4.533   6.644   0.747  2.4734  0.9609 -0.6764
    3MOL    C15  539   4.504   6.617   0.470 -0.4477 -0.8924 -0.4415
    3MOL    C16  540   4.488   6.476   0.515  0.3119 -0.4777 -0.6118
    3MOL    C17  541   4.589   6.404   0.598  0.3621  0.1171 -0.1732
    3MOL    C18  542   4.575   6.369   0.450 -0.2893 -0.1813 -0.1304
    3MOL    C19  543   4.448   6.640   0.326 -0.7147  0.0683  0.5022
    3MOL    H20  544   4.611   6.636   0.471 -0.1809 -2.2690 -1.3772
    3MOL    H21  545   4.385   6.445   0.531  0.2127  0.6127  0.9717
    3MOL    H22  546   4.542   6.355   0.684 -1.0019 -0.8557 -1.4427
    3MOL    H23  547   4.671   6.467   0.630 -0.8208  0.7606  1.6486
    3MOL    H24  548   4.521   6.276   0.432  0.7368 -1.5017  3.1890
    3MOL    H25  549   4.659   6.397   0.387  1.6603 -1.3918  1.8490
    3MOL    H26  550   4.340   6.626   0.329 -0.8575  0.8701 -0.4722
    3MOL    H27  551   4.483   6.564   0.257 -0.6583  0.5892 -0.0553
    3MOL    C28  552   4.479   6.778   0.264  0.0528 -0.7532  0.1873
    3MOL    C29  553   4.407   6.794   0.133 -0.0840  0.0388  0.3495
    3MOL    C30  554   4.264   6.843   0.119 -0.6429 -0.8130 -0.2255
    3MOL    C31  555   4.378   6.929   0.080  0.6815  0.3079 -0.2041
    3MOL    C32  556   4.636   6.786   0.244  0.0175 -0.2926 -0.1680
    3MOL    H33  557   4.441   6.856   0.331  0.2450 -0.7335  0.2746
    3MOL    H34  558   4.434   6.720   0.058 -1.5298  0.9234 -1.0758
    3MOL    H35  559   4.213   6.868   0.211  0.0344  1.1509 -0.3714
    3MOL    H36  560   4.207   6.785   0.046  0.5127  1.6643 -3.1916
    3MOL    H37  561   4.393   7.017   0.142 -0.7504 -0.4328  1.2297
    3MOL    H38  562   4.372   6.950   7.813  0.4244  1.5039  0.0361
    3MOL    H39  563   4.652   6.758   0.140 -2.4450 -2.2650 -0.0631
    3MOL    H40  564   4.696   6.710   0.294  1.7083  1.2554  0.2265
    3MOL    C41  565   4.697   6.926   0.280 -0.8521  0.8362 -0.0354
    3MOL    C42  566   4.841   6.936   0.220 -0.0459  0.5712  0.0996
    3MOL    C43  567   4.900   7.061   0.153  0.3261  0.2723  0.3097
    3MOL    C44  568   4.869   6.940   0.075  0.7639 -0.6722  0.4218
    3MOL    C45  569   4.700   6.958   0.436  0.3509  0.1485  0.3132
    3MOL    H46  570   4.633   6.999   0.232 -2.6107  0.4348  1.6308
    3MOL    H47  571   4.915   6.895   0.288 -0.1064 -0.1903 -0.2795
    3MOL    H48  572   4.827   7.141   0.138  0.1090  0.0731  0.3015
    3MOL    H49  573   5.001   7.088   0.183  1.1684 -0.2030 -2.0187
    3MOL    H50  574   4.944   6.871   0.035  0.6460 -0.8010  0.4190
    3MOL    H51  575   4.780   6.952   0.013  1.4448  0.5038 -0.3553
    3MOL    H52  576   4.749   6.867   0.471  1.1415  0.3340 -0.2727
    3MOL    H53  577   4.597   6.954   0.471 -0.0523 -0.8536 -0.9157
    3MOL    C54  578   4.766   7.084   0.479 -0.0230  0.1224 -0.3045
    3MOL    C55  579   4.665   7.197   0.500 -0.7520  0.2762 -0.7469
    3MOL    C56  580   4.606   7.255   0.374  0.1458 -0.7958 -0.5360
    3MOL    C57  581   4.692   7.339   0.467 -0.4865 -0.1147  0.5369
    3MOL    C58  582   4.847   7.061   0.608 -0.2001 -0.4226 -0.2585
    3MOL    H59  583   4.833   7.117   0.400  2.8584  0.5522  2.1983
    3MOL    H60  584   4.588   7.186   0.576 -1.0797 -0.3329 -1.1572
    3MOL    H61  585   4.647   7.221   0.279  1.3696 -3.3073  0.8314
    3MOL    H62  586   4.499   7.276   0.374 -0.1843 -2.4099  0.6753
    3MOL    H63  587   4.651   7.413   0.536  0.8335 -0.0050  1.2193
    3MOL    H64  588   4.792   7.368   0.434 -0.4343  0.8849  1.5472
    3MOL    H65  589   4.780   7.032   0.690  0.7626  0.5897  0.8922
    3MOL    H66  590   4.883   6.960   0.589  0.6242 -0.2571  0.3948
    3MOL    C67  591   4.960   7.155   0.652 -0.3923 -0.5918  0.5171
    3MOL    C68  592   5.037   7.099   0.766 -0.5161 -0.5431 -0.1054
    3MOL    C69  593   5.106   7.194   0.864 -0.0195 -0.2274 -0.5354
    3MOL    C70  594   4.990   7.104   0.911 -0.1293  0.2075 -0.2902
    3MOL    C71  595   5.047   7.186   0.520  0.0242  0.3966  0.0842
    3MOL    H72  596   4.917   7.246   0.694 -1.1979  0.2781 -2.0631
    3MOL    H73  597   5.069   6.996   0.752  4.5946  0.7119  1.4595
    3MOL    H74  598   5.205   7.170   0.902 -0.3274 -0.4049  0.1865
    3MOL    H75  599   5.084   7.300   0.853  0.5439 -0.0748 -0.2088
    3MOL    H76  600   4.896   7.143   0.950 -0.8412  0.1944 -1.9638
    3MOL    H77  601   5.018   7.016   0.968  2.1912  0.7087 -0.5978
    3MOL    H78  602   4.982   7.260   0.473 -1.3396 -0.9531 -0.1990
    3MOL    H79  603   5.056   7.093   0.463  0.2987  0.5256 -0.0841
    3MOL    C80  604   5.182   7.255   0.534  0.3320  0.0139  0.1637
    3MOL    C81  605   5.208   7.302   0.388 -0.5126 -0.4130 -0.0923
    3MOL    C82  606   5.289   7.420   0.347  0.0643  0.6021 -0.6459
    3MOL    C83  607   5.139   7.425   0.341  0.0163  0.1636  0.3499
    3MOL    C84  608   5.287   7.151   0.582  0.3058  0.1995 -0.0482
    3MOL    H85  609   5.181   7.342   0.600 -1.9504  0.0090  0.1645
    3MOL    H86  610   5.215   7.225   0.311  2.0660 -1.6136  1.2835
    3MOL    H87  611   5.337   7.409   0.250 -0.1887 -3.0598 -0.4239
    3MOL    H88  612   5.349   7.474   0.420  0.6808  2.0616 -2.2119
    3MOL    H89  613   5.089   7.492   0.410  1.2038 -0.7676  2.1653
    3MOL    H90  614   5.103   7.446   0.240  3.0960  0.7813 -0.6768
    3MOL    H91  615   5.259   7.083   0.662 -2.3814  0.2324 -0.8916
    3MOL    H92  616   5.292   7.086   0.495 -1.4363  1.5009 -1.1683
    3MOL    C93  617   5.423   7.214   0.614 -0.4579  0.3725  0.7514
    3MOL    C94  618   5.433   7.263   0.757 -0.2232 -0.4939 -0.3488
    3MOL    C95  619   5.534   7.369   0.792  0.0589  0.5405 -0.1151
    3MOL    C96  620   5.380   7.399   0.789 -0.7204 -0.5631 -0.0958
    3MOL    C97  621   5.535   7.114   0.582  0.5845 -0.6568 -0.1695
    3MOL    H98  622   5.446   7.294   0.543 -1.1368 -0.3777 -0.3245
    3MOL    H99  623   5.410   7.188   0.832 -2.7348  1.4569  0.9383
    3MOL   H100  624   5.578   7.352   0.890  0.4066 -1.5966 -0.6006
    3MOL   H101  625   5.601   7.416   0.721  2.3746 -1.1011  0.8890
    3MOL   H102  626   5.321   7.408   0.880  1.2364  1.5931  1.0249
    3MOL   H103  627   5.338   7.453   0.704  2.1453 -0.8101 -1.7312
    3MOL   H104  628   5.499   7.021   0.538  1.9584 -1.4689  0.3860
    3MOL   H105  629   5.577   7.080   0.677 -0.9358 -0.4056  0.6057
    3MOL   C106  630   5.642   7.170   0.491 -0.7427  0.3579 -0.7606
    3MOL   C107  631   5.755   7.065   0.506 -0.1506  0.6475  0.1452
    3MOL   C108  632   5.901   7.109   0.502  0.3162  0.2177 -0.1318
    3MOL   C109  633   5.840   7.056   0.631  0.2581 -0.1561  0.1865
    3MOL   C110  634   5.592   7.179   0.346  0.2157  0.2741  0.0660
    3MOL   H111  635   5.681   7.264   0.531  1.5319 -0.1163 -1.7719
    3MOL   H112  636   5.722   6.968   0.468  1.1562  0.8498 -1.5850
    3MOL   H113  637   5.985   7.048   0.468  1.7024  1.5440  0.8171
    3MOL   H114  638   5.917   7.216   0.495  0.0032  0.4390  2.0233
    3MOL   H115  639   5.817   7.127   0.710 -3.3980 -2.0577  0.9276
    3MOL   H116  640   5.876   6.959   0.662 -0.8001 -0.7132 -0.2839
    3MOL   H117  641   5.558   7.080   0.314  0.0720  0.5946 -0.7732
    3MOL   H118  642   5.496   7.231   0.350 -0.7870 -1.1475 -3.1266
    3MOL   C119  643   5.699   7.251   0.252 -0.1699  0.2911  0.3620
    3MOL   C120  644   5.731   7.186   0.107 -0.1774 -0.6660 -0.0175
    3MOL   C121  645   5.636   7.108   0.012  0.6308  0.0566  0.2768
    3MOL   C122  646   5.735   7.033   0.097 -0.5124  0.0811  0.5097
    3MOL   C123  647   5.668   7.401   0.235 -0.6427  0.1963  0.1348
    3MOL   H124  648   5.794   7.243   0.306 -0.4326  1.8337  1.0572
    3MOL   H125  649   5.817   7.237   0.065  1.2556 -1.6990  1.6094
    3MOL   H126  650   5.649   7.103   7.744  0.6910  1.2863  0.2182
    3MOL   H127  651   5.532   7.124   0.040 -0.3059  1.4068 -3.6693
    3MOL   H128  652   5.693   6.979   0.181 -1.6799 -0.7175 -0.5684
    3MOL   H129  653   5.818   6.983   0.049  0.1980  0.4976  1.2932
    3MOL   H130  654   5.580   7.399   0.171 -0.4043  1.6666 -0.2545
    3MOL   H131  655   5.639   7.445   0.331  1.4724  2.2709 -0.1278
    3MOL   C132  656   5.776   7.485   0.169 -0.9556 -0.9407 -0.1000
    3MOL   C133  657   5.837   7.572   0.279  0.3625  0.5302 -0.0440
    3MOL   C134  658   5.975   7.612   0.254  0.7241  0.9495  0.1163
    3MOL   C135  659   5.941   7.514   0.371  0.1279  0.0426  0.2528
    3MOL   C136  660   5.718   7.577   0.062 -0.2843 -0.6322 -0.2172
    3MOL   H137  661   5.859   7.427   0.127 -1.2774 -2.1132  0.8444
    3MOL   H138  662   5.769   7.649   0.314 -0.8128 -0.3248 -0.4457
    3MOL   H139  663   6.038   7.562   0.181 -1.1993  0.3599 -1.1648
    3MOL   H140  664   6.019   7.707   0.282  0.7071  1.2661 -0.9175
    3MOL   H141  665   5.969   7.409   0.368  2.0523  0.3347  4.8083
    3MOL   H142  666   5.949   7.562   0.468 -0.6774  0.1315  0.2747
    3MOL   H143  667   5.628   7.630   0.093 -0.6501 -1.5648  0.3242
    3MOL   H144  668   5.778   7.666   0.042  1.1566 -0.9658  2.4702
    3MOL   C145  669   5.683   7.520   7.762  0.1529  0.1105 -0.2636
    3MOL   C146  670   5.566   7.594   7.705  0.6421  0.3170 -0.0718
    3MOL   C147  671   5.490   7.533   7.594  0.0677 -0.0615 -0.5216
    3MOL   C148  672   5.422   7.544   7.724 -0.0914 -0.0575 -0.1785
    3MOL   C149  673   5.803   7.502   7.665 -0.1796 -1.0784 -0.1050
    3MOL   H150  674   5.652   7.417   7.782 -0.7261  0.2036 -1.1239
    3MOL   H151  675   5.577   7.701   7.715  1.5205  0.3130 -0.8964
    3MOL   H152  676   5.449   7.594   7.513  2.4821  2.3713  0.0272
    3MOL   H153  677   5.519   7.432   7.567  1.0470 -0.4793  2.0417
    3MOL   H154  678   5.401   7.451   7.776 -2.2929  1.8701  2.5074
    3MOL   H155  679   5.339   7.614   7.717 -2.9251 -3.1536  1.1820
    3MOL   H156  680   5.877   7.442   7.720 -0.2062 -0.1119  0.9995
    3MOL   H157  681   5.773   7.427   7.592 -1.5826 -1.1597  0.5509
    3MOL   C158  682   5.863   7.629   7.607 -0.0421 -0.4325 -0.3463
    3MOL   C159  683   5.851   7.615   7.461 -0.3110  0.6855 -0.7494
    3MOL   C160  684   5.735   7.681   7.380 -0.1903  0.4965  0.5420
    3MOL   C161  685   5.882   7.727   7.364 -0.3690  0.2701 -0.3996
    3MOL   C162  686   6.008   7.652   7.662  0.3153 -0.3664  0.0213
    3MOL   H163  687   5.795   7.709   7.635  0.5329 -1.1367  3.3729
    3MOL   H164  688   5.897   7.523   7.426 -0.8814 -0.1368  0.6440
    3MOL   H165  689   5.665   7.754   7.421 -0.0041  1.0817 -0.1718
    3MOL   H166  690   5.688   7.619   7.304  0.8607 -0.0027  0.2921
    3MOL   H167  691   5.933   7.687   7.277  1.3632  1.0321  0.2446
    3MOL   H168  692   5.914   7.823   7.405 -0.8675  0.2872 -0.0267
    3MOL   H169  693   6.076   7.601   7.594  1.0716 -0.1611  0.6201
    3MOL   H170  694   6.018   7.610   7.762 -0.9413  1.2112  0.8453
    3MOL   C171  695   6.061   7.801   7.662  0.5252  0.0742  0.3439
    3MOL   C172  696   6.009   0.030   7.787 -0.5820  0.8044 -0.0153
    3MOL   C173  697   6.008   0.176   7.808  0.1018  0.6021 -0.1095
    3MOL   C174  698   5.877   0.100   7.789 -0.1670 -0.1091 -0.6215
    3MOL   C175  699   6.214   7.799   7.677 -0.8295  0.1010 -0.7565
    3MOL   H176  700   6.038   0.026   7.577  2.2656 -0.0305 -0.2319
    3MOL   H177  701   6.051   7.820   0.035  2.7574  0.9860 -1.4521
    3MOL   H178  702   6.029   0.217   0.067 -0.8678  0.6936  0.0713
    3MOL   H179  703   6.044   0.228   7.719 -0.1709 -1.1072 -1.2549
    3MOL   H180  704   5.826   0.129   7.697  0.5818  1.0139 -0.6866
    3MOL   H181  705   5.819   0.073   0.038 -0.6529  1.1144 -0.5603
    3MOL   H182  706   6.251   7.760   7.772  2.7916  0.9633 -1.7486
    3MOL   H183  707   6.240   0.066   7.687  2.2276 -0.7970  1.4990
    3MOL   C184  708   6.307   7.744   7.573 -0.3017 -0.0565  0.2500
    3MOL   C185  709   6.456   7.746   7.614 -1.0235  0.1132  0.1716
    3MOL   C186  710   6.535   7.615   7.609  0.4897 -0.4272  0.2630
    3MOL   C187  711   6.499   7.679   7.738  0.5257 -0.0237  0.0148
    3MOL   C188  712   6.277   7.813   7.431  0.7032 -0.7290  0.4305
    3MOL   H189  713   6.281   7.639   7.561 -1.3499  0.4312 -2.1304
    3MOL   H190  714   6.506   0.002   7.599 -2.4468  0.8321 -0.0497
    3MOL   H191  715   6.643   7.620   7.593  0.4210  0.9003  0.1417
    3MOL   H192  716   6.484   7.526   7.572  0.5004 -0.2395 -0.2171
    3MOL   H193  717   6.584   7.729   7.786  1.3152 -0.2394 -1.1538
    3MOL   H194  718   6.439   7.619   7.806  0.8877 -1.7717 -1.2001
    3MOL   H195  719   6.286   0.082   7.437 -0.8547 -0.6055  0.8885
    3MOL   H196  720   6.173   7.798   7.403  1.3237  0.4456 -2.6108
    3MOL   C197  721   6.360   7.766   7.309 -0.0905 -0.1879 -0.5840
    3MOL   C198  722   6.345   7.617   7.280  0.5549 -0.9252 -0.7007
    3MOL   C199  723   6.338   7.556   7.141 -0.3126 -0.7118  0.2491
    3MOL   C200  724   6.222   7.551   7.242 -0.2271  0.3392 -0.3814
    3MOL   C201  725   6.514   7.801   7.302  0.4847 -0.3812 -0.1128
    3MOL   H202  726   6.316   7.808   7.218 -0.9901  1.0457  0.4040
    3MOL   H203  727   6.407   7.554   7.343 -0.8285 -2.0066 -0.3862
    3MOL   H204  728   6.333   7.615   7.049  0.6572  1.0369  1.3024
    3MOL   H205  729   6.391   7.462   7.124 -1.3496 -1.4262  0.8529
    3MOL   H206  730   6.133   7.600   7.204 -1.3150 -1.5201 -0.2633
    3MOL   H207  731   6.199   7.452   7.279  2.4473 -0.7818 -1.5148
    3MOL   H208  732   6.571   7.736   7.370 -0.5718 -2.8426 -1.5004
    3MOL   H209  733   6.543   7.768   7.203  2.0658  2.7947 -0.7371
    3MOL   C210  734   6.560   0.108   7.329 -0.5775  0.2494  0.5061
    3MOL   C211  735   6.713   0.116   7.350  0.4499 -0.5233  0.7060
    3MOL   C212  736   6.782   0.218   7.428 -0.7395 -0.1845 -0.4016
    3MOL   C213  737   6.764   0.086   7.488 -0.3698  0.7623 -0.3237
    3MOL   C214  738   6.498   0.213   7.240 -0.2411 -0.3582 -0.0730
    3MOL   H215  739   6.523   0.125   7.430  0.3337 -1.2218  1.1099
    3MOL   H216  740   6.768   0.079   7.264 -1.1483 -2.0810  0.3116
    3MOL   H217  741   6.882   0.247   7.397 -0.9295 -1.6600 -2.4800
    3MOL   H218  742   6.730   0.290   7.491 -0.5696  0.8623 -1.4399
    3MOL   H219  743   6.856   0.032   7.508 -2.0601 -1.4797  1.6150
    3MOL   H220  744   6.693   0.085   7.570 -0.1960 -1.7604 -0.1783
    3MOL   H221  745   6.394   0.182   7.230 -0.6249 -0.7955  4.2093
    3MOL   H222  746   6.486   0.301   7.302 -0.4089 -2.4642  2.9981
    3MOL   C223  747   6.553   0.265   7.107  0.4114  0.3527  0.0978
    3MOL   C224  748   6.461   0.384   7.050  0.6254  0.1108  0.5327
    3MOL   C225  749   6.476   0.520   7.129  0.3974 -0.2310 -0.0700
    3MOL   C226  750   6.514   0.503   6.978 -0.4123 -0.0326  0.3014
    3MOL   C227  751   6.569   0.148   7.011  0.1642 -1.0917 -0.3139
    3MOL   H228  752   6.656   0.296   7.125  0.1405 -0.3021  3.1150
    3MOL   H229  753   6.361   0.349   7.024  0.4038 -0.3011  1.9046
    3MOL   H230  754   6.549   0.517   7.209 -0.9886  0.1962  1.2487
    3MOL   H231  755   6.379   0.556   7.164  0.1869 -2.0353  1.2940
    3MOL   H232  756   6.450   0.560   6.911  0.0215 -0.2475 -0.3035
    3MOL   H233  757   6.618   0.485   6.950 -0.6437 -0.5374 -0.2553
    3MOL   H234  758   6.619   0.060   7.051  1.3380 -0.2678  0.0437
    3MOL   H235  759   6.470   0.109   6.986  0.2631 -1.6648  0.1725
    3MOL   C236  760   6.649   0.178   6.874  0.9711  0.7756 -0.4229
    3MOL   C237  761   6.648   0.057   6.783  0.5816 -0.1953 -0.4340
    3MOL   C238  762   6.533   7.832   6.711 -0.2342 -0.0340  0.9221
    3MOL   C239  763   6.633   0.077   6.639  0.5603  0.2173  0.5221
    3MOL   C240  764   6.793   0.227   6.896  0.4751 -0.1465 -0.3963
    3MOL   H241  765   6.594   0.255   6.820 -1.9443  0.2148  1.6662
    3MOL   H242  766   6.727   7.824   6.805  0.2302 -0.1320  1.0900
    3MOL   H243  767   6.540   7.725   6.692  1.9579  0.2611 -0.0298
    3MOL   H244  768   6.437   0.028   6.749 -1.0024 -1.2376  0.1507
    3MOL   H245  769   6.598   0.176   6.612  0.5382  0.4021  1.2337
    3MOL   H246  770   6.714   0.026   6.588  0.4698  2.2797 -1.7972
    3MOL   H247  771   6.787   0.310   6.967 -1.3885 -1.2858  0.8121
    3MOL   H248  772   6.847   0.142   6.939  0.8623  0.2320 -0.1242
    3MOL   C249  773   6.873   0.283   6.777  0.3619 -0.9143  0.3728
    3MOL   C250  774   7.022   0.302   6.804 -0.2441  0.1240  0.3392
    3MOL   C251  775   7.085   0.347   6.929  0.2674 -0.0745  0.4604
    3MOL   C252  776   7.108   0.202   6.892  0.0671  0.2074  0.1210
    3MOL   C253  777   6.810   0.412   6.721  0.3248 -0.3846 -0.1955
    3MOL   H254  778   6.876   0.206   6.699  1.0909 -0.4250 -0.0853
    3MOL   H255  779   7.080   0.358   6.730 -1.3292  1.5794  0.5720
    3MOL   H256  780   7.168   0.417   6.925 -0.1237  0.3231 -1.1911
    3MOL   H257  781   7.017   0.368   7.012 -0.4539  1.1536 -0.4185
    3MOL   H258  782   7.197   0.165   6.841 -1.1184 -0.8526 -1.2570
    3MOL   H259  783   7.048   0.122   6.935 -1.8601  1.0832 -0.8439
    3MOL   H260  784   6.864   0.468   6.646 -3.8058  1.9594 -1.5998
    3MOL   H261  785   6.793   0.487   6.798  2.6778  1.1960 -1.1744
    3MOL   H262  786   6.715   0.381   6.676 -0.1570  0.9524 -0.1159
    4MOL     C1  787   4.028   5.132   5.166 -0.1368 -0.0359 -0.1056
    4MOL     C2  788   3.905   5.179   5.244 -0.1959 -0.2848 -0.0466
    4MOL     C3  789   3.850   5.096   5.354  0.3598 -0.2580 -0.0974
    4MOL     C4  790   3.765   5.122   5.229 -0.0474  0.0644 -0.4090
    4MOL     C5  791   4.057   5.212   5.045  0.9187 -0.0640 -0.2944
    4MOL     H6  792   4.114   5.121   5.233 -0.1738  0.4050  0.0222
    4MOL     H7  793   3.914   5.284   5.271 -1.2471  0.3371 -2.0956
    4MOL     H8  794   3.878   4.992   5.364  1.1808 -0.0430 -0.1230
    4MOL     H9  795   3.845   5.148   5.450  0.4066 -1.3134  0.4854
    4MOL    H10  796   3.693   5.204   5.224 -1.1851 -0.9594 -1.1405
    4MOL    H11  797   3.753   5.049   5.149  2.0074 -2.3376  1.4097
    4MOL    H12  798   4.077   5.309   5.092 -2.6143  0.6870 -0.2225
    4MOL    H13  799   3.963   5.216   4.991  1.1363 -0.7392 -0.7247
    4MOL    H14  800   4.015   5.029   5.133  0.5370 -0.2988  0.4404
    4MOL    C15  801   4.172   5.178   4.959  0.1075 -0.2068  0.1048
    4MOL    C16  802   4.131   5.064   4.869 -0.7730  0.0332 -0.0591
    4MOL    C17  803   4.133   4.915   4.919  0.2834  0.1353  0.0309
    4MOL    C18  804   4.234   4.964   4.820 -0.3913 -0.3777  1.2306
    4MOL    C19  805   4.219   5.299   4.873  0.7107 -0.4322  0.5383
    4MOL    H20  806   4.264   5.142   5.005  0.9910  0.1495 -1.3798
    4MOL    H21  807   4.062   5.090   4.789 -0.1076  1.4253 -0.1915
    4MOL    H22  808   4.052   4.855   4.878  0.4211  1.5269 -2.3752
    4MOL    H23  809   4.164   4.889   5.020 -0.4856  1.5077  0.6258
    4MOL    H24  810   4.333   4.988   4.857 -0.4779 -1.9952  2.5478
    4MOL    H25  811   4.222   4.923   4.720  0.4597  2.9349 -0.3052
    4MOL    H26  812   4.127   5.329   4.824  0.9212 -1.4721 -0.5039
    4MOL    H27  813   4.282   5.259   4.794 -1.1454  1.4266 -1.9569
    4MOL    C28  814   4.289   5.416   4.946 -0.4163 -0.3633  0.2378
    4MOL    C29  815   4.301   5.543   4.857 -0.3028  0.1823  0.6010
    4MOL    C30  816   4.389   5.538   4.729 -0.0288 -0.0434  0.8987
    4MOL    C31  817   4.238   5.554   4.721  0.1971  0.2972  0.2172
    4MOL    C32  818   4.428   5.373   5.000  0.0227 -0.2088  0.0404
    4MOL    H33  819   4.219   5.452   5.023  0.3469 -0.2453  0.8845
    4MOL    H34  820   4.320   5.629   4.921  3.2919  0.3827 -0.6130
    4MOL    H35  821   4.423   5.436   4.709  0.9550  0.5208 -0.3695
    4MOL    H36  822   4.462   5.618   4.727  1.3925 -1.2946  1.1634
    4MOL    H37  823   4.193   5.465   4.677 -0.2155  0.2012  0.8308
    4MOL    H38  824   4.198   5.651   4.692  0.5421  0.6900  1.0407
    4MOL    H39  825   4.490   5.462   5.000  2.3901 -1.8054  0.1800
    4MOL    H40  826   4.485   5.309   4.932 -1.9276 -1.8192 -0.1080
    4MOL    C41  827   4.435   5.316   5.144  0.7346  0.7062 -0.6556
    4MOL    C42  828   4.406   5.414   5.250  0.1272  0.0981  0.2006
    4MOL    C43  829   4.386   5.393   5.395  0.1975  0.3404 -0.4139
    4MOL    C44  830   4.271   5.433   5.314 -0.1525  0.0958  0.6000
    4MOL    C45  831   4.571   5.257   5.177  0.1696 -0.6449 -0.9126
    4MOL    H46  832   4.359   5.237   5.152 -0.5447  1.8897 -0.8432
    4MOL    H47  833   4.461   5.507   5.232  3.3239 -1.1869  2.8094
    4MOL    H48  834   4.392   5.288   5.423  1.3275  0.7010  0.7555
    4MOL    H49  835   4.450   5.461   5.450  1.2308 -0.6632 -0.3630
    4MOL    H50  836   4.231   5.533   5.322 -1.1105 -0.2082 -0.1694
    4MOL    H51  837   4.193   5.357   5.320  0.3307 -0.4370  0.1902
    4MOL    H52  838   4.583   5.267   5.285 -0.7469  2.0882 -1.0217
    4MOL    H53  839   4.642   5.327   5.133 -0.8210 -0.1088 -1.6672
    4MOL    C54  840   4.602   5.109   5.132  0.8397  0.5044 -0.1415
    4MOL    C55  841   4.746   5.083   5.169 -0.1371 -0.6013  0.3098
    4MOL    C56  842   4.854   5.170   5.106 -0.4107 -0.0805 -0.0815
    4MOL    C57  843   4.839   5.017   5.080 -0.1376 -0.0277  0.0329
    4MOL    C58  844   4.502   5.006   5.203 -0.2651 -0.3146  0.5057
    4MOL    H59  845   4.597   5.115   5.023 -0.8924  0.0538 -0.0899
    4MOL    H60  846   4.755   5.074   5.278  0.2567  2.1307  0.5353
    4MOL    H61  847   4.837   5.221   5.012  1.5594 -1.1559 -1.0478
    4MOL    H62  848   4.947   5.194   5.157  0.4412 -1.0336 -1.1767
    4MOL    H63  849   4.908   4.947   5.125  0.6057  0.5297 -0.2334
    4MOL    H64  850   4.795   4.988   4.984 -2.2503  0.0384  0.9435
    4MOL    H65  851   4.483   5.039   5.305  2.1126  1.1420  0.5189
    4MOL    H66  852   4.405   5.023   5.157  0.3019  1.3734 -0.1129
    4MOL    C67  853   4.526   4.853   5.179  0.3682 -0.4242 -0.2663
    4MOL    C68  854   4.433   4.779   5.275  0.0684 -0.4558  0.1263
    4MOL    C69  855   4.463   4.642   5.323  0.0134  0.5147 -0.9233
    4MOL    C70  856   4.469   4.756   5.419 -0.4535  0.4648  0.0183
    4MOL    C71  857   4.499   4.825   5.029  0.4076  0.3870 -0.6407
    4MOL    H72  858   4.628   4.828   5.208 -0.4363 -1.5780  1.7043
    4MOL    H73  859   4.328   4.803   5.258 -0.4043 -2.4863  0.0493
    4MOL    H74  860   4.379   4.573   5.325  0.5279 -0.0947  0.6694
    4MOL    H75  861   4.555   4.591   5.297  1.3453  2.2085  0.3272
    4MOL    H76  862   4.570   4.764   5.459 -0.8515 -0.7859  1.3473
    4MOL    H77  863   4.396   4.747   5.499  0.4902 -0.9025  0.7438
    4MOL    H78  864   4.519   4.908   4.962  0.5227 -0.5087 -1.7234
    4MOL    H79  865   4.391   4.816   5.028  0.5429 -3.0210  2.8368
    4MOL    C80  866   4.564   4.694   4.968 -0.4816 -0.5093  0.5919
    4MOL    C81  867   4.719   4.691   4.973 -0.4353  0.5825 -0.2487
    4MOL    C82  868   4.789   4.555   4.981 -0.0244  0.7738  0.0397
    4MOL    C83  869   4.805   4.659   5.095  0.3644  0.1542 -0.3732
    4MOL    C84  870   4.504   4.676   4.822 -0.2051 -0.5925 -0.1699
    4MOL    H85  871   4.542   4.608   5.031  0.9673 -2.1339 -1.0801
    4MOL    H86  872   4.775   4.765   4.916  0.0197 -0.4251 -1.1141
    4MOL    H87  873   4.871   4.539   4.911  1.1423  0.9211  1.3475
    4MOL    H88  874   4.725   4.469   5.001  0.5304  0.0943 -1.0986
    4MOL    H89  875   4.753   4.626   5.185  1.5342  1.0886  0.6536
    4MOL    H90  876   4.904   4.698   5.117 -0.7301  3.0612 -0.4644
    4MOL    H91  877   4.449   4.768   4.799 -0.1128 -0.6776 -0.7269
    4MOL    H92  878   4.597   4.677   4.765  1.0710 -3.6232  1.7381
    4MOL    C93  879   4.427   4.551   4.802 -0.5487 -0.1219 -0.2967
    4MOL    C94  880   4.285   4.565   4.863 -0.2795 -0.4347  0.1724
    4MOL    C95  881   4.199   4.448   4.883 -0.8651 -0.2683  0.6426
    4MOL    C96  882   4.249   4.526   5.000 -0.1362  0.3944  0.1129
    4MOL    C97  883   4.419   4.514   4.653 -0.4531  0.2086 -0.1707
    4MOL    H98  884   4.476   4.471   4.856 -1.1824  0.5531  1.3087
    4MOL    H99  885   4.233   4.659   4.847  2.1692  0.7556 -0.9964
    4MOL   H100  886   4.090   4.445   4.883 -0.9397  0.6505 -2.3158
    4MOL   H101  887   4.242   4.349   4.870 -1.6858 -0.5458  0.0158
    4MOL   H102  888   4.173   4.586   5.050 -1.4188 -2.3632  1.5949
    4MOL   H103  889   4.330   4.478   5.055 -0.0875 -1.5056 -1.5845
    4MOL   H104  890   4.414   4.613   4.607  2.3347  0.6127  0.2667
    4MOL   H105  891   4.322   4.468   4.635 -0.0599 -0.0544 -1.6993
    4MOL   C106  892   4.536   4.418   4.597  0.3334  0.0765  0.0461
    4MOL   C107  893   4.532   4.289   4.679  0.4016 -0.3095 -0.3796
    4MOL   C108  894   4.641   4.187   4.669  0.5130 -0.5827 -0.5826
    4MOL   C109  895   4.625   4.267   4.796  0.4447  0.3583 -0.1741
    4MOL   C110  896   4.527   4.383   4.441 -0.2183 -0.0388  0.9729
    4MOL   H111  897   4.627   4.475   4.615 -0.9258  2.5615 -1.3162
    4MOL   H112  898   4.430   4.255   4.699 -0.3198  1.8277 -0.3025
    4MOL   H113  899   4.621   4.082   4.690  0.9079 -1.4773 -4.3643
    4MOL   H114  900   4.730   4.199   4.608  1.5893 -1.1275  0.8462
    4MOL   H115  901   4.688   4.355   4.810 -0.0514  0.6435  0.2994
    4MOL   H116  902   4.576   4.229   4.885  0.2472 -0.0541 -0.4610
    4MOL   H117  903   4.613   4.317   4.431 -1.6531 -1.6268 -1.2954
    4MOL   H118  904   4.441   4.317   4.426  0.4383 -0.7088  0.1161
    4MOL   C119  905   4.534   4.510   4.347 -0.1618  0.0355  0.0195
    4MOL   C120  906   4.670   4.572   4.369 -0.1810  0.4394  0.4673
    4MOL   C121  907   4.684   4.694   4.449 -0.2399  0.0067  0.5686
    4MOL   C122  908   4.718   4.701   4.302 -0.7572  0.3057  0.3924
    4MOL   C123  909   4.509   4.475   4.199  0.6367 -0.5686 -0.3517
    4MOL   H124  910   4.457   4.582   4.374 -0.8548 -1.0449  0.9681
    4MOL   H125  911   4.752   4.501   4.365  0.7015  1.5420 -2.2044
    4MOL   H126  912   4.770   4.696   4.515 -1.1011 -2.4597  1.8419
    4MOL   H127  913   4.593   4.740   4.487  0.9505  1.2971  1.8805
    4MOL   H128  914   4.650   4.757   4.239  0.5835 -0.1116 -1.4713
    4MOL   H129  915   4.823   4.707   4.276 -0.8657 -0.5795 -0.2764
    4MOL   H130  916   4.403   4.450   4.190 -0.2057  1.8608  2.1358
    4MOL   H131  917   4.518   4.557   4.127 -0.6377  1.3083  1.5737
    4MOL   C132  918   4.582   4.356   4.129 -0.9497  0.3883  1.0162
    4MOL   C133  919   4.733   4.381   4.095  0.5345  0.0959 -0.8242
    4MOL   C134  920   4.827   4.278   4.036 -0.0339 -0.5564 -0.3736
    4MOL   C135  921   4.849   4.327   4.176 -0.5367  0.2979  0.5105
    4MOL   C136  922   4.518   4.315   3.993 -0.5138 -0.5920  0.8868
    4MOL   H137  923   4.566   4.266   4.189  1.7859  0.5014  1.9594
    4MOL   H138  924   4.750   4.488   4.081  1.8607 -0.1236 -0.9017
    4MOL   H139  925   4.788   4.178   4.014  2.6642 -1.1909 -2.6156
    4MOL   H140  926   4.902   4.317   3.967  0.6458  0.7645  1.1026
    4MOL   H141  927   4.826   4.270   4.266  1.0870 -2.0807 -0.5450
    4MOL   H142  928   4.942   4.384   4.180  0.1383 -0.4089 -3.6429
    4MOL   H143  929   4.421   4.364   3.994 -0.6309 -0.8246  2.6191
    4MOL   H144  930   4.569   4.363   3.910 -2.2915 -0.8726 -0.4058
    4MOL   C145  931   4.496   4.161   3.967 -0.2097 -0.4180  0.1736
    4MOL   C146  932   4.353   4.127   4.020  0.3161  0.2512 -0.1506
    4MOL   C147  933   4.333   3.986   4.070  0.7743 -0.4267  0.2851
    4MOL   C148  934   4.327   4.103   4.161  0.3723  0.6512 -0.2844
    4MOL   C149  935   4.486   4.127   3.815  0.2528 -0.3326  0.2305
    4MOL   H150  936   4.568   4.097   4.017 -1.4089 -1.6108  0.4177
    4MOL   H151  937   4.280   4.179   3.959 -0.9361 -1.9057 -0.5683
    4MOL   H152  938   4.239   3.940   4.040  0.1426  0.8913  0.2310
    4MOL   H153  939   4.417   3.917   4.074  0.3036 -0.9231  1.5708
    4MOL   H154  940   4.400   4.129   4.237  1.3311  0.3621 -1.0850
    4MOL   H155  941   4.227   4.134   4.189 -0.0712  1.5537 -2.7476
    4MOL   H156  942   4.415   4.048   3.794 -1.6238  0.5659  2.9284
    4MOL   H157  943   4.445   4.214   3.764 -0.5819 -1.7253 -1.5286
    4MOL   C158  944   4.625   4.102   3.753 -1.0447  0.3428 -0.1754
    4MOL   C159  945   4.650   4.172   3.624 -0.3040 -0.7141  0.2851
    4MOL   C160  946   4.710   4.315   3.637  0.2450  0.5941  0.2598
    4MOL   C161  947   4.790   4.205   3.565  0.0549  0.7957 -0.3867
    4MOL   C162  948   4.638   3.951   3.735 -0.3886  0.4779 -0.2854
    4MOL   H163  949   4.707   4.126   3.821 -0.1617 -3.0910  0.0550
    4MOL   H164  950   4.577   4.143   3.548 -0.4091 -1.8814  0.8279
    4MOL   H165  951   4.752   4.346   3.732 -1.3622  1.7096  0.6281
    4MOL   H166  952   4.683   4.396   3.570  0.3480  0.4416  0.0315
    4MOL   H167  953   4.799   4.214   3.457 -0.2770  1.2045 -0.3833
    4MOL   H168  954   4.875   4.156   3.612 -1.0955 -0.1066  0.8222
    4MOL   H169  955   4.582   3.917   3.648  0.9069  0.6963 -1.2311
    4MOL   H170  956   4.592   3.895   3.816  0.0938  1.4242  0.6568
    4MOL   C171  957   4.775   3.891   3.720 -0.8280 -0.2319 -0.7957
    4MOL   C172  958   4.852   3.902   3.852 -0.2695 -0.6580 -0.5159
    4MOL   C173  959   5.000   3.873   3.859 -0.1264  0.0024  0.2644
    4MOL   C174  960   4.953   4.009   3.878  0.2969 -0.3254 -0.3292
    4MOL   C175  961   4.766   3.750   3.654 -0.0090 -0.3640 -0.2496
    4MOL   H176  962   4.834   3.953   3.653 -1.4241  0.7566 -0.4143
    4MOL   H177  963   4.803   3.869   3.943 -0.5805 -0.7707 -0.7257
    4MOL   H178  964   5.051   3.833   3.946 -0.6564 -0.7695  0.2204
    4MOL   H179  965   5.063   3.857   3.771  0.3911  0.7602  0.4923
    4MOL   H180  966   4.976   4.085   3.804  1.8402 -1.0421 -0.5973
    4MOL   H181  967   4.973   4.046   3.978  1.6549 -0.6500 -0.4737
    4MOL   H182  968   4.867   3.736   3.615  0.3178 -1.1090  0.8462
    4MOL   H183  969   4.709   3.760   3.562 -1.0946  0.8254  0.5322
    4MOL   C184  970   4.728   3.623   3.734 -1.2288  0.5840 -0.3667
    4MOL   C185  971   4.815   3.508   3.683 -0.0734 -0.0698 -0.5345
    4MOL   C186  972   4.875   3.396   3.773  0.0819  0.2227  0.8001
    4MOL   C187  973   4.966   3.503   3.716  0.1345 -0.5225 -0.3274
    4MOL   C188  974   4.581   3.588   3.738 -0.3683  0.0334 -0.0172
    4MOL   H189  975   4.754   3.633   3.840  1.3342 -1.0300 -0.8010
    4MOL   H190  976   4.785   3.485   3.581 -1.7191 -1.5878  0.2685
    4MOL   H191  977   4.889   3.293   3.740  0.3942  0.6756 -0.4912
    4MOL   H192  978   4.851   3.409   3.878  0.2043  0.1987  0.8303
    4MOL   H193  979   5.026   3.483   3.627  0.0311  0.4543 -0.6183
    4MOL   H194  980   5.007   3.581   3.779 -3.0684  0.7201  0.2900
    4MOL   H195  981   4.540   3.573   3.637 -0.1896  2.4727 -0.4645
    4MOL   H196  982   4.533   3.681   3.766 -1.1248  0.1186 -1.5305
    4MOL   C197  983   4.539   3.468   3.831 -0.2634 -0.9542 -0.7275
    4MOL   C198  984   4.398   3.411   3.781 -0.1667  0.0974  0.2328
    4MOL   C199  985   4.355   3.273   3.810 -0.6932  0.2181 -0.6259
    4MOL   C200  986   4.403   3.307   3.669  0.1350 -0.2316  0.3128
    4MOL   C201  987   4.532   3.517   3.981 -0.1237  0.1750  0.4471
    4MOL   H202  988   4.601   3.379   3.822  0.6183 -0.1992 -2.1944
    4MOL   H203  989   4.323   3.490   3.778  0.6598  0.8468 -3.4552
    4MOL   H204  990   4.407   3.198   3.869 -0.5875  0.8500  0.0919
    4MOL   H205  991   4.247   3.275   3.819 -0.7717 -1.5679 -1.1010
    4MOL   H206  992   4.498   3.277   3.626  0.2800 -1.3532  1.3772
    4MOL   H207  993   4.318   3.283   3.606  0.5484  1.5657 -0.9448
    4MOL   H208  994   4.565   3.621   3.980  0.3203  0.0371  0.3477
    4MOL   H209  995   4.428   3.538   4.004 -1.0185 -1.4395 -1.9492
    4MOL   C210  996   4.602   3.448   4.099 -1.1548  0.1418 -0.0437
    4MOL   C211  997   4.642   3.560   4.193 -0.7547 -0.0042 -0.0212
    4MOL   C212  998   4.771   3.549   4.260  0.0478  0.4045  0.1455
    4MOL   C213  999   4.747   3.654   4.152 -0.4149 -0.2124 -0.7581
    4MOL   C214 1000   4.512   3.346   4.175 -0.5152 -0.3385  0.6292
    4MOL   H215 1001   4.693   3.406   4.055 -0.6266  0.9644  0.2523
    4MOL   H216 1002   4.565   3.593   4.263 -0.9637 -0.1201 -0.1981
    4MOL   H217 1003   4.777   3.578   4.364 -0.0706  0.1090  0.2354
    4MOL   H218 1004   4.838   3.467   4.232 -0.7044 -0.3070  0.4114
    4MOL   H219 1005   4.742   3.755   4.191 -0.8338  0.0290 -1.4240
    4MOL   H220 1006   4.804   3.645   4.059 -1.9475  1.0620 -1.8639
    4MOL   H221 1007   4.456   3.396   4.253  1.5163  0.4921  1.5984
    4MOL   H222 1008   4.448   3.304   4.097 -0.1352  1.8091 -0.8793
    4MOL   C223 1009   4.600   3.239   4.249  1.2411 -0.2026  0.3535
    4MOL   C224 1010   4.653   3.136   4.153 -0.2917 -0.6918  0.1551
    4MOL   C225 1011   4.785   3.127   4.080  0.4835 -0.2084  0.2291
    4MOL   C226 1012   4.761   3.037   4.185  0.2192  0.7752 -0.4588
    4MOL   C227 1013   4.507   3.176   4.364  1.0994  0.1252 -0.3374
    4MOL   H228 1014   4.681   3.295   4.295 -1.0771  2.8947  0.8152
    4MOL   H229 1015   4.576   3.087   4.093  0.4564  0.1745 -1.5354
    4MOL   H230 1016   4.848   3.213   4.101 -0.1455  0.4426 -0.5568
    4MOL   H231 1017   4.789   3.087   3.979  1.4145 -0.8988  0.5339
    4MOL   H232 1018   4.745   2.933   4.159  1.0358  1.0068 -1.9794
    4MOL   H233 1019   4.794   3.047   4.289  1.0655  1.8623 -0.8161
    4MOL   H234 1020   4.464   3.255   4.425  0.4827 -1.2814  1.0573
    4MOL   H235 1021   4.425   3.121   4.318  0.6793  0.0388  0.5132
    4MOL   C236 1022   4.576   3.076   4.466 -0.6180  0.3053 -0.8345
    4MOL   C237 1023   4.463   3.028   4.564  0.2053 -0.0457  0.6495
    4MOL   C238 1024   4.354   2.923   4.527 -0.1378 -0.5532 -0.7378
    4MOL   C239 1025   4.473   2.879   4.603  0.0064  0.5473  0.1715
    4MOL   C240 1026   4.691   3.142   4.546  0.4468 -1.0330 -0.2041
    4MOL   H241 1027   4.608   2.983   4.418  1.7185  0.2215  0.8255
    4MOL   H242 1028   4.446   3.096   4.648 -1.3341  0.4774 -0.0761
    4MOL   H243 1029   4.257   2.922   4.577  1.0912  0.0684  1.7138
    4MOL   H244 1030   4.343   2.897   4.422 -1.6288 -0.1097 -0.7013
    4MOL   H245 1031   4.536   2.812   4.545  2.8685  1.3936  2.1413
    4MOL   H246 1032   4.455   2.845   4.705  2.1183  0.2197  0.4718
    4MOL   H247 1033   4.770   3.161   4.473  4.3872 -0.5869  3.9916
    4MOL   H248 1034   4.669   3.244   4.580  1.3964 -0.1452 -2.1535
    4MOL   C249 1035   4.759   3.061   4.649 -0.6636 -0.1252 -0.3340
    4MOL   C250 1036   4.841   3.142   4.743  0.7847  0.2646  0.2325
    4MOL   C251 1037   4.769   3.225   4.848 -0.0368 -0.3409 -0.0120
    4MOL   C252 1038   4.853   3.103   4.889  0.3682 -0.1428 -0.3976
    4MOL   C253 1039   4.842   2.951   4.585  0.0131 -0.0707 -0.3246
    4MOL   H254 1040   4.685   3.032   4.724  0.4912 -0.2274  0.7698
    4MOL   H255 1041   4.927   3.188   4.695 -0.0814 -1.5523 -3.1808
    4MOL   H256 1042   4.814   3.323   4.865  1.6885 -0.7525 -1.9738
    4MOL   H257 1043   4.660   3.215   4.844 -0.3193  2.1813  0.5016
    4MOL   H258 1044   4.950   3.109   4.938  0.7411 -0.9953 -1.0161
    4MOL   H259 1045   4.806   3.006   4.902 -3.1371  1.4081 -0.9393
    4MOL   H260 1046   4.891   2.883   4.655 -0.2991 -0.8556 -0.8639
    4MOL   H261 1047   4.936   2.992   4.548  1.2354  0.3775  3.1008
    4MOL   H262 1048   4.794   2.892   4.507 -2.0796  0.7601  0.3178
    5MOL     C1 1049   4.045   6.257   5.256  0.1559  1.0710 -0.2566
    5MOL     C2 1050   4.063   6.376   5.178 -0.4885 -0.4723 -0.1090
    5MOL     C3 1051   4.189   6.456   5.182  0.3341 -0.8423 -0.0037
    5MOL     C4 1052   4.062   6.516   5.243  0.3650  0.3840  0.1055
    5MOL     C5 1053   3.896   6.219   5.283 -0.4574 -0.2497 -0.1027
    5MOL     H6 1054   4.089   6.169   5.207 -0.3529  2.0122 -2.4647
    5MOL     H7 1055   4.021   6.371   5.078  2.4201 -0.8451 -1.3625
    5MOL     H8 1056   4.280   6.439   5.239  0.6782  0.4731 -0.1470
    5MOL     H9 1057   4.210   6.513   5.092 -0.1504  0.1797  0.5194
    5MOL    H10 1058   4.015   6.600   5.192 -1.3720  0.4124  1.7106
    5MOL    H11 1059   4.063   6.528   5.351 -0.1908 -0.8116  0.2543
    5MOL    H12 1060   3.849   6.210   5.185 -2.8844  1.0761  0.8884
    5MOL    H13 1061   3.858   6.306   5.337 -0.8889  0.1199 -0.9938
    5MOL    H14 1062   4.099   6.261   5.350 -2.9142  0.8146  1.5751
    5MOL    C15 1063   3.868   6.092   5.358 -0.2203 -0.1799  0.6724
    5MOL    C16 1064   3.920   6.100   5.501  0.4103 -0.2315 -1.2646
    5MOL    C17 1065   4.066   6.055   5.532  0.4250  0.1519 -0.0167
    5MOL    C18 1066   3.951   5.975   5.583  0.0593  0.2174  0.2184
    5MOL    C19 1067   3.708   6.051   5.351  0.0094  0.0466  0.1293
    5MOL    H20 1068   3.922   6.015   5.303 -1.3940 -1.2182  0.9449
    5MOL    H21 1069   3.875   6.181   5.557 -0.8665  0.6787 -3.5668
    5MOL    H22 1070   4.123   6.114   5.603  0.1091  0.4240  0.0100
    5MOL    H23 1071   4.135   6.008   5.463 -0.6352 -1.2811 -0.1265
    5MOL    H24 1072   3.951   5.877   5.536 -1.7430 -0.1519  0.9310
    5MOL    H25 1073   3.936   5.982   5.690 -1.8884  0.2909 -0.0394
    5MOL    H26 1074   3.665   6.106   5.268  1.0907 -1.9457 -1.7882
    5MOL    H27 1075   3.671   6.089   5.446 -1.3222 -2.8634  0.8233
    5MOL    C28 1076   3.680   5.896   5.330 -0.5867 -0.9141 -0.0782
    5MOL    C29 1077   3.726   5.853   5.193 -0.0705 -0.0515  0.5236
    5MOL    C30 1078   3.852   5.798   5.166  0.3147 -0.2531 -0.5353
    5MOL    C31 1079   3.738   5.700   5.176  0.1058 -0.1927  1.0429
    5MOL    C32 1080   3.528   5.861   5.351 -0.0947 -0.2453 -0.4268
    5MOL    H33 1081   3.742   5.842   5.403  1.8257 -0.5156 -1.7858
    5MOL    H34 1082   3.667   5.887   5.108 -0.8791  1.1749  1.5529
    5MOL    H35 1083   3.919   5.807   5.252  0.8986 -0.5549 -0.9485
    5MOL    H36 1084   3.903   5.819   5.073  0.1472 -0.4742 -0.6789
    5MOL    H37 1085   3.709   5.658   5.272  0.9996 -1.7743  0.6195
    5MOL    H38 1086   3.694   5.652   5.089  1.1520  3.3634 -1.5806
    5MOL    H39 1087   3.499   5.760   5.320 -2.7412  0.1033  0.7868
    5MOL    H40 1088   3.486   5.927   5.275 -1.0949  0.4744  0.7312
    5MOL    C41 1089   3.484   5.885   5.500 -0.1205  0.0142 -0.3902
    5MOL    C42 1090   3.547   5.786   5.608  0.1064 -0.4175  0.1047
    5MOL    C43 1091   3.538   5.816   5.749  0.5699 -0.2791  0.5497
    5MOL    C44 1092   3.668   5.829   5.686 -0.8716 -0.1936 -0.3596
    5MOL    C45 1093   3.331   5.872   5.507 -0.0205 -0.0847 -0.2595
    5MOL    H46 1094   3.506   5.989   5.525  0.9591 -0.8077  2.3272
    5MOL    H47 1095   3.544   5.682   5.577  0.0706  0.1606 -1.9291
    5MOL    H48 1096   3.505   5.914   5.781 -0.7944 -0.8762  1.0239
    5MOL    H49 1097   3.524   5.724   5.805  0.9757  0.1343  1.3270
    5MOL    H50 1098   3.747   5.761   5.715 -0.2912  0.3527 -0.6595
    5MOL    H51 1099   3.700   5.931   5.665 -0.9763  0.3846  2.1657
    5MOL    H52 1100   3.300   5.862   5.611 -1.3694  0.7280 -0.5816
    5MOL    H53 1101   3.298   5.772   5.475 -1.8060  0.8283 -1.3546
    5MOL    C54 1102   3.260   5.985   5.428  0.9808 -0.2542  0.2266
    5MOL    C55 1103   3.114   5.940   5.405 -0.5680  0.1909 -0.2379
    5MOL    C56 1104   3.081   5.824   5.314 -0.8863 -0.4470 -0.4234
    5MOL    C57 1105   3.025   5.962   5.280 -0.1326 -0.2746  0.0849
    5MOL    C58 1106   3.259   6.129   5.488  0.1725  0.1604  0.4199
    5MOL    H59 1107   3.300   5.988   5.327 -0.5489  0.9025 -0.3607
    5MOL    H60 1108   3.069   5.919   5.502 -0.9364  1.3466 -0.1457
    5MOL    H61 1109   3.161   5.787   5.251 -1.0460 -0.3076 -0.7074
    5MOL    H62 1110   3.021   5.750   5.366 -0.4144 -1.2385 -1.0077
    5MOL    H63 1111   2.920   5.989   5.283  0.2621  1.6752 -2.0638
    5MOL    H64 1112   3.074   6.029   5.209  3.6488 -0.3316  2.5109
    5MOL    H65 1113   3.177   6.139   5.558 -1.3349 -1.3082 -1.1029
    5MOL    H66 1114   3.349   6.139   5.549  1.6441  0.5031 -1.7535
    5MOL    C67 1115   3.232   6.233   5.378  0.0883 -0.5112  0.2536
    5MOL    C68 1116   3.161   6.349   5.437 -0.3921 -0.2305  0.6623
    5MOL    C69 1117   3.078   6.452   5.352  0.3362 -0.0540 -0.6123
    5MOL    C70 1118   3.012   6.344   5.440  0.7285  0.1806  0.1531
    5MOL    C71 1119   3.367   6.274   5.313  0.1564 -0.2255  0.4545
    5MOL    H72 1120   3.174   6.196   5.293  0.1329  2.6028 -1.1859
    5MOL    H73 1121   3.211   6.394   5.523 -1.8995 -1.1308  2.0511
    5MOL    H74 1122   3.084   6.557   5.381  1.0800 -0.6947  1.6877
    5MOL    H75 1123   3.068   6.436   5.245 -0.9108 -1.0780 -0.3574
    5MOL    H76 1124   2.961   6.264   5.387 -1.6839  1.6627  0.1794
    5MOL    H77 1125   2.956   6.390   5.522  1.1284  0.1379  0.4520
    5MOL    H78 1126   3.420   6.190   5.269  0.5785  0.3583 -0.1688
    5MOL    H79 1127   3.428   6.305   5.398  0.5200 -1.0483  0.4984
    5MOL    C80 1128   3.366   6.380   5.204  0.0016  0.3238  0.2909
    5MOL    C81 1129   3.320   6.310   5.069  0.3322 -0.7172 -0.2916
    5MOL    C82 1130   3.248   6.387   4.962 -0.0366 -0.5722 -0.1242
    5MOL    C83 1131   3.184   6.270   5.027 -0.1872 -0.5118  0.1684
    5MOL    C84 1132   3.506   6.449   5.197 -0.6437  0.0631  0.0091
    5MOL    H85 1133   3.299   6.462   5.231  0.6487  0.4863  1.4327
    5MOL    H86 1134   3.389   6.243   5.018  0.4060 -0.6341 -0.3000
    5MOL    H87 1135   3.273   6.379   4.857 -0.8395 -0.7243 -0.3054
    5MOL    H88 1136   3.195   6.477   4.994  1.5298  1.6270 -3.5006
    5MOL    H89 1137   3.100   6.290   5.093 -1.2402 -0.8821 -1.0315
    5MOL    H90 1138   3.163   6.192   4.954 -2.9559  0.3395  0.0129
    5MOL    H91 1139   3.531   6.480   5.298 -0.1094 -1.3697  0.3155
    5MOL    H92 1140   3.585   6.375   5.188  0.0197  0.9839 -2.0904
    5MOL    C93 1141   3.517   6.579   5.113  0.7982  0.6319 -0.5331
    5MOL    C94 1142   3.564   6.696   5.195  0.3564  0.6420  0.2671
    5MOL    C95 1143   3.516   6.837   5.199 -0.1387 -0.6349 -0.3387
    5MOL    C96 1144   3.482   6.742   5.313 -0.8130 -0.2869 -0.2942
    5MOL    C97 1145   3.582   6.542   4.986  0.0240  0.3745  0.4876
    5MOL    H98 1146   3.413   6.588   5.080  0.6349  2.3168  0.4114
    5MOL    H99 1147   3.670   6.694   5.215  0.1710 -3.3175  1.2849
    5MOL   H100 1148   3.585   6.913   5.235 -1.7638 -0.6269  2.9293
    5MOL   H101 1149   3.448   6.874   5.122  1.6707  0.1669 -1.6049
    5MOL   H102 1150   3.531   6.759   5.408  0.5522  4.1593 -1.7182
    5MOL   H103 1151   3.390   6.685   5.329  0.1712 -1.6967  0.5416
    5MOL   H104 1152   3.520   6.476   4.925  1.0905  0.1409 -0.3565
    5MOL   H105 1153   3.663   6.470   4.997  0.0194  0.0399 -1.5528
    5MOL   C106 1154   3.650   6.655   4.903 -0.0068  0.3552 -0.2217
    5MOL   C107 1155   3.749   6.597   4.801 -0.5158 -0.0928 -0.4993
    5MOL   C108 1156   3.886   6.662   4.773 -0.6876  0.4540  0.7922
    5MOL   C109 1157   3.875   6.534   4.855  0.4753 -0.4808 -0.3129
    5MOL   C110 1158   3.537   6.732   4.823 -0.0777 -0.0959 -0.2712
    5MOL   H111 1159   3.704   6.733   4.957  0.0305 -0.6434  1.2113
    5MOL   H112 1160   3.707   6.536   4.722  1.5650  0.5610 -2.1476
    5MOL   H113 1161   3.939   6.641   4.680 -1.5104  0.4261  0.3224
    5MOL   H114 1162   3.897   6.758   4.823  0.6930 -0.2077  1.7892
    5MOL   H115 1163   3.902   6.536   4.961  0.4354 -1.6350 -0.2719
    5MOL   H116 1164   3.900   6.440   4.806 -0.3196 -0.0080 -1.6212
    5MOL   H117 1165   3.512   6.664   4.741 -1.4662  1.4266 -1.1424
    5MOL   H118 1166   3.449   6.743   4.887 -1.3397 -1.2264 -1.7601
    5MOL   C119 1167   3.578   6.870   4.758 -0.2518  0.0445  0.3895
    5MOL   C120 1168   3.497   6.895   4.629 -0.3477  0.1388  0.0979
    5MOL   C121 1169   3.536   6.828   4.501 -0.0736  0.0631 -0.6406
    5MOL   C122 1170   3.547   6.980   4.511  0.2961  0.4939  0.0529
    5MOL   C123 1171   3.549   6.983   4.857  0.3648 -0.3686 -0.5888
    5MOL   H124 1172   3.681   6.859   4.724 -0.2480 -1.3200  0.7980
    5MOL   H125 1173   3.389   6.891   4.642 -0.0195 -3.5678  2.3697
    5MOL   H126 1174   3.474   6.795   4.417 -1.8646  2.0816 -0.1651
    5MOL   H127 1175   3.629   6.772   4.502 -0.1433 -0.0472  0.6967
    5MOL   H128 1176   3.649   7.017   4.509  0.6811 -0.5689 -0.2749
    5MOL   H129 1177   3.476   7.043   4.459  1.4985  1.9253  0.1061
    5MOL   H130 1178   3.441   6.992   4.866  0.4074  0.2532 -0.6598
    5MOL   H131 1179   3.577   6.948   4.957 -2.8915 -1.5492 -0.0476
    5MOL   C132 1180   3.615   7.117   4.820  1.0677 -0.3528  1.3092
    5MOL   C133 1181   3.771   7.107   4.833  0.1015 -0.0705 -0.4373
    5MOL   C134 1182   3.873   7.206   4.770  0.4888  0.0580  0.6686
    5MOL   C135 1183   3.872   7.064   4.721 -0.2061 -0.1396 -0.4831
    5MOL   C136 1184   3.554   7.233   4.897  0.1563 -0.2748 -0.4609
    5MOL   H137 1185   3.599   7.134   4.713  2.0261  1.0798  1.3755
    5MOL   H138 1186   3.795   7.076   4.934  1.5122 -3.6777 -1.7945
    5MOL   H139 1187   3.817   7.265   4.698 -2.4426  0.6181  3.2731
    5MOL   H140 1188   3.959   7.258   4.812  0.3257  0.8465  0.0359
    5MOL   H141 1189   3.839   7.054   4.618  0.0807  1.0228 -0.7039
    5MOL   H142 1190   3.947   6.997   4.762  0.8451  1.0731 -0.3725
    5MOL   H143 1191   3.446   7.250   4.898  0.3473  1.0115 -0.9298
    5MOL   H144 1192   3.583   7.226   5.002 -1.7982 -1.2355  0.0427
    5MOL   C145 1193   3.584   7.378   4.840  0.1233 -0.3601  0.4741
    5MOL   C146 1194   3.506   7.394   4.702  0.1552 -0.3502 -0.2940
    5MOL   C147 1195   3.529   7.512   4.609  0.2161  0.5361  0.5167
    5MOL   C148 1196   3.562   7.371   4.562  0.6298  0.4476 -0.5617
    5MOL   C149 1197   3.535   7.492   4.936  0.5424  0.3103 -0.0695
    5MOL   H150 1198   3.687   7.402   4.816  0.5999 -2.7350  0.0006
    5MOL   H151 1199   3.399   7.380   4.717  0.0582  0.1824 -0.4686
    5MOL   H152 1200   3.443   7.568   4.573  0.0064 -1.4944 -2.2704
    5MOL   H153 1201   3.613   7.577   4.631 -0.9663  1.6089  1.9142
    5MOL   H154 1202   3.666   7.340   4.553  0.3265 -2.0216  2.9835
    5MOL   H155 1203   3.504   7.304   4.498 -0.5458  0.6776  0.2495
    5MOL   H156 1204   3.539   7.586   4.880  0.7445 -0.3541 -1.1854
    5MOL   H157 1205   3.431   7.481   4.965  0.9178  0.5918  1.3874
    5MOL   C158 1206   3.605   7.511   5.074 -0.2125 -0.2774  0.1902
    5MOL   C159 1207   3.525   7.591   5.168  0.3956  0.1427 -0.2634
    5MOL   C160 1208   3.425   7.541   5.269  0.4350 -0.2146  0.2135
    5MOL   C161 1209   3.556   7.596   5.321  0.1213 -0.0084 -0.1399
    5MOL   C162 1210   3.750   7.564   5.053 -0.2983 -0.8992  0.8012
    5MOL   H163 1211   3.611   7.415   5.124 -2.4370 -0.9783 -0.8031
    5MOL   H164 1212   3.504   7.689   5.125  0.9596 -0.1500 -1.2179
    5MOL   H165 1213   3.410   7.434   5.273 -0.7496 -0.0631  0.0556
    5MOL   H166 1214   3.333   7.598   5.276  0.7809  0.6202 -1.5971
    5MOL   H167 1215   3.553   7.693   5.371  0.6679 -0.3309  0.5323
    5MOL   H168 1216   3.624   7.524   5.366 -0.1683  0.0591  0.4130
    5MOL   H169 1217   3.729   7.669   5.034  0.3920 -1.1858 -1.6758
    5MOL   H170 1218   3.781   7.529   4.955 -0.4740 -1.0304  0.7923
    5MOL   C171 1219   3.865   7.520   5.154 -0.0750 -0.5709  0.2212
    5MOL   C172 1220   3.901   7.376   5.143  1.0848 -0.4728  0.1846
    5MOL   C173 1221   3.960   7.305   5.260  0.9579  0.0175 -0.5720
    5MOL   C174 1222   3.821   7.271   5.206  1.2696  0.5678 -0.0998
    5MOL   C175 1223   3.996   7.601   5.125 -0.2226 -0.6724  0.4642
    5MOL   H176 1224   3.830   7.536   5.256  2.0964 -1.1587  1.0818
    5MOL   H177 1225   3.934   7.346   5.044 -1.7772 -1.3763 -0.5301
    5MOL   H178 1226   4.046   7.248   5.225  0.0902 -0.5692 -1.7830
    5MOL   H179 1227   3.957   7.353   5.357  1.3055  1.0841 -1.0872
    5MOL   H180 1228   3.737   7.311   5.262  0.3223 -3.0170  1.2117
    5MOL   H181 1229   3.819   7.172   5.161  2.6754  0.6444 -0.3576
    5MOL   H182 1230   4.019   7.599   5.018  2.0313  1.8316  0.8444
    5MOL   H183 1231   4.087   7.554   5.161  0.6298  2.4339  2.5812
    5MOL   C184 1232   3.984   7.749   5.173 -0.4311 -0.3848 -0.8034
    5MOL   C185 1233   4.087   7.833   5.094 -0.7337  0.9263 -0.8441
    5MOL   C186 1234   4.070   0.146   5.085  0.2479  0.3237 -0.3247
    5MOL   C187 1235   4.050   0.056   4.960 -0.8210 -0.0328 -0.0283
    5MOL   C188 1236   4.008   7.759   5.328  0.8544 -0.3531 -0.5432
    5MOL   H189 1237   3.881   7.772   5.145 -0.6330 -0.8797 -0.4943
    5MOL   H190 1238   4.185   7.791   5.116 -0.9181 -0.5170 -2.6027
    5MOL   H191 1239   4.161   0.203   5.100  0.2861  0.1444  0.1409
    5MOL   H192 1240   3.981   0.184   5.136  0.6748  0.5459  0.2652
    5MOL   H193 1241   4.126   0.078   4.885 -0.7638  1.2610  0.3925
    5MOL   H194 1242   3.946   0.065   4.930 -1.1426 -1.0079  0.7654
    5MOL   H195 1243   4.109   7.724   5.353  0.3710 -0.1541  1.7541
    5MOL   H196 1244   3.940   7.683   5.366 -2.2798  2.4696 -0.2663
    5MOL   C197 1245   3.981   0.051   5.399  0.2131 -0.4389 -0.2699
    5MOL   C198 1246   4.051   0.053   5.535 -0.5278 -0.3519 -0.2953
    5MOL   C199 1247   4.110   0.180   5.582  0.2018  0.5834 -0.6250
    5MOL   C200 1248   4.200   0.064   5.553 -0.9886 -0.4928 -0.8512
    5MOL   C201 1249   3.832   0.062   5.422 -0.5733  0.3994 -0.8533
    5MOL   H202 1250   4.023   0.135   5.343  0.7276 -0.3743  0.2062
    5MOL   H203 1251   3.996   0.003   5.614 -0.4393  0.0487  0.0198
    5MOL   H204 1252   4.122   0.251   5.501  1.1806  1.4925  0.2878
    5MOL   H205 1253   4.106   0.217   5.685  0.8647  1.7567 -1.0123
    5MOL   H206 1254   4.265   0.063   5.466  0.9028  2.2628  0.4290
    5MOL   H207 1255   4.244   0.011   5.637 -1.1331 -0.8014 -0.9698
    5MOL   H208 1256   3.789   0.030   5.327 -0.6743 -1.1600 -0.2985
    5MOL   H209 1257   3.793   7.834   5.499  1.8928  0.9107  0.8748
    5MOL   C210 1258   3.774   0.201   5.450 -0.7352 -0.3111  0.6751
    5MOL   C211 1259   3.786   0.283   5.322  0.2402  0.4558  0.1497
    5MOL   C212 1260   3.754   0.427   5.333 -0.5457  0.2245 -0.1116
    5MOL   C213 1261   3.892   0.384   5.292 -0.0499  0.6641 -0.5299
    5MOL   C214 1262   3.631   0.206   5.496  0.4134  0.2334  0.1665
    5MOL   H215 1263   3.838   0.254   5.520 -0.6896  0.6789 -0.0994
    5MOL   H216 1264   3.736   0.233   5.239 -0.1682  1.2384 -0.0748
    5MOL   H217 1265   3.704   0.475   5.249  1.0771 -0.1172 -1.2979
    5MOL   H218 1266   3.757   0.474   5.432  1.2157 -1.5503  0.7112
    5MOL   H219 1267   3.909   0.409   5.187  0.6896  2.7370  0.0692
    5MOL   H220 1268   3.978   0.397   5.357  0.8901  0.0402 -1.6303
    5MOL   H221 1269   3.588   0.303   5.471  1.2755  0.8266  0.9838
    5MOL   H222 1270   3.580   0.128   5.439  0.0406  0.8354 -0.3265
    5MOL   C223 1271   3.613   0.180   5.647  0.1856 -0.0306 -0.8696
    5MOL   C224 1272   3.472   0.148   5.687 -0.5445  0.0098 -0.7047
    5MOL   C225 1273   3.424   7.838   5.666  0.9798  0.9773  0.5081
    5MOL   C226 1274   3.453   0.054   5.806  0.1866  0.3101 -0.9640
    5MOL   C227 1275   3.665   0.304   5.729 -0.5039  0.0076 -0.0740
    5MOL   H228 1276   3.674   0.095   5.676 -0.0617 -0.4777 -1.6533
    5MOL   H229 1277   3.398   0.224   5.665 -1.2222 -0.3591  0.2937
    5MOL   H230 1278   3.502   7.773   5.629  0.4700 -1.5049  3.6383
    5MOL   H231 1279   3.323   7.817   5.632  0.7523 -1.7634  2.7047
    5MOL   H232 1280   3.368   0.080   5.870 -0.5372 -1.9467 -0.9577
    5MOL   H233 1281   3.542   0.013   5.852 -0.7757 -0.8795 -0.1310
    5MOL   H234 1282   3.745   0.356   5.678  0.1055 -0.0831  0.7788
    5MOL   H235 1283   3.583   0.375   5.742  0.9377  2.2174 -2.6543
    5MOL   C236 1284   3.730   0.269   5.867  0.2524  0.2268 -0.2475
    5MOL   C237 1285   3.747   0.394   5.957  0.1141  0.2985  0.9630
    5MOL   C238 1286   3.768   0.527   5.902  0.2286  0.0254 -0.5232
    5MOL   C239 1287   3.640   0.499   5.983 -0.3342 -0.6379 -0.2275
    5MOL   C240 1288   3.863   0.198   5.865 -0.1725  0.3521 -0.7242
    5MOL   H241 1289   3.668   0.198   5.922 -1.7691  1.8032 -0.4295
    5MOL   H242 1290   3.803   0.368   6.046 -1.1416 -2.1675  1.0847
    5MOL   H243 1291   3.856   0.573   5.948  0.7788 -1.4269 -0.1193
    5MOL   H244 1292   3.754   0.557   5.799 -1.1856 -1.7654 -0.8654
    5MOL   H245 1293   3.544   0.490   5.933 -1.7673  0.8599  2.1242
    5MOL   H246 1294   3.636   0.565   6.070  1.5752 -1.5733  0.5903
    5MOL   H247 1295   3.870   0.142   5.772  0.2765  1.3701 -1.3099
    5MOL   H248 1296   3.931   0.281   5.845 -1.6790  1.8742  0.4437
    5MOL   C249 1297   3.916   0.118   5.988  0.4363  0.2102  0.3632
    5MOL   C250 1298   4.067   0.102   5.957 -0.2268 -0.6326 -0.0690
    5MOL   C251 1299   4.167   0.219   5.981 -0.4491 -0.3709 -0.5929
    5MOL   C252 1300   4.167   0.102   6.077  0.0989 -0.6976  0.1616
    5MOL   C253 1301   3.847   7.823   6.004 -0.3337  0.1255 -0.4512
    5MOL   H254 1302   3.905   0.184   6.074  0.3310  0.9368 -0.2051
    5MOL   H255 1303   4.085   0.031   5.876 -1.2615 -1.8831  0.7769
    5MOL   H256 1304   4.254   0.237   5.918 -1.4046 -0.0930 -1.8391
    5MOL   H257 1305   4.117   0.309   6.015  0.6720 -0.9537  2.8071
    5MOL   H258 1306   4.245   0.026   6.071  2.5654  1.6295  1.7535
    5MOL   H259 1307   4.126   0.127   6.174  1.2268  0.7790  0.2677
    5MOL   H260 1308   3.821   7.788   5.904 -1.6936 -3.0875  0.9403
    5MOL   H261 1309   3.757   7.827   6.065  1.0654 -2.5795  1.9835
    5MOL   H262 1310   3.919   7.755   6.050 -0.0012  1.0343  0.3989
    6MOL     C1 1311   7.447   6.653   1.737 -0.1688  0.4177  0.2713
    6MOL     C2 1312   7.497   6.507   1.719 -0.4883  0.6532 -0.4099
    6MOL     C3 1313   7.450   6.396   1.816 -0.0872  0.0865  0.0186
    6MOL     C4 1314   7.591   6.433   1.822  0.2788 -0.5110  0.0519
    6MOL     C5 1315   7.323   6.685   1.645 -0.3415 -0.4007  0.0997
    6MOL     H6 1316   7.441   6.675   1.843 -0.8299  1.8119 -0.0453
    6MOL     H7 1317   7.514   6.480   1.615 -0.2551 -0.5190 -0.0798
    6MOL     H8 1318   7.386   6.421   1.900  0.4062  2.5677 -0.3106
    6MOL     H9 1319   7.428   6.295   1.782  4.1464 -1.6536  1.9767
    6MOL    H10 1320   7.678   6.391   1.772  0.5067  1.7012 -1.5200
    6MOL    H11 1321   7.616   6.511   1.893 -2.4134  1.9448 -1.5487
    6MOL    H12 1322   7.230   6.656   1.694  1.4921 -3.5130  1.8657
    6MOL    H13 1323   7.345   6.629   1.554  1.3779 -0.6721  0.6835
    6MOL    H14 1324   7.530   6.717   1.709  0.4415 -0.5155 -0.0933
    6MOL    C15 1325   7.319   6.830   1.596  0.1565 -0.1585 -0.1587
    6MOL    C16 1326   7.204   6.848   1.491  0.0696  0.5519  0.1187
    6MOL    C17 1327   7.228   6.806   1.344  0.2334  0.4858  0.2104
    6MOL    C18 1328   7.215   6.949   1.371  0.4450 -0.2064  0.3311
    6MOL    C19 1329   7.309   6.924   1.720 -0.1445  0.0787  1.0370
    6MOL    H20 1330   7.416   6.850   1.550  0.2750 -0.0413  0.1436
    6MOL    H21 1331   7.107   6.807   1.519  1.7658 -3.5512  0.3978
    6MOL    H22 1332   7.152   6.761   1.280  0.7920  0.1847 -0.2433
    6MOL    H23 1333   7.329   6.776   1.319  0.1234  0.5082 -0.2650
    6MOL    H24 1334   7.304   7.010   1.359  0.5767 -0.4787 -0.1215
    6MOL    H25 1335   7.125   6.993   1.329  0.7266  2.0790  2.0475
    6MOL    H26 1336   7.368   6.887   1.804  3.2138 -0.7806 -1.6376
    6MOL    H27 1337   7.204   6.919   1.751 -0.5134  1.6211  0.1030
    6MOL    C28 1338   7.347   7.070   1.693  0.0901 -0.3005 -0.6836
    6MOL    C29 1339   7.503   7.096   1.691  0.5271  0.3462 -0.0146
    6MOL    C30 1340   7.581   7.071   1.570 -0.3299 -0.3004  0.5904
    6MOL    C31 1341   7.574   7.215   1.624  0.8877  0.2055  0.0454
    6MOL    C32 1342   7.289   7.160   1.806  0.4698  0.0490 -0.2124
    6MOL    H33 1343   7.304   7.088   1.595 -0.8057  0.7754 -0.0908
    6MOL    H34 1344   7.549   7.059   1.783 -0.2952  1.2563  0.7764
    6MOL    H35 1345   7.533   7.058   1.473  1.9729 -1.1709 -0.4677
    6MOL    H36 1346   7.667   7.004   1.577  0.6296  1.0116  1.6236
    6MOL    H37 1347   7.503   7.287   1.584  1.5312  1.3151  0.8593
    6MOL    H38 1348   7.654   7.267   1.678  0.0629  1.1192  0.4153
    6MOL    H39 1349   7.335   7.137   1.902  0.8180 -0.2894 -0.4610
    6MOL    H40 1350   7.190   7.119   1.823  0.7342 -0.5666 -0.1597
    6MOL    C41 1351   7.288   7.314   1.796  0.5401  0.3271  0.0046
    6MOL    C42 1352   7.226   7.369   1.921  0.1781  0.1058 -0.3025
    6MOL    C43 1353   7.254   7.504   1.985 -0.0028 -0.3406 -0.0881
    6MOL    C44 1354   7.308   7.377   2.047  0.5427 -0.1113  0.0658
    6MOL    C45 1355   7.214   7.343   1.664 -0.4184  0.2354  0.9742
    6MOL    H46 1356   7.391   7.351   1.796  0.8714 -0.5257  1.4052
    6MOL    H47 1357   7.120   7.347   1.930 -0.1075  1.7336  0.6036
    6MOL    H48 1358   7.316   7.563   1.918  0.7247 -0.4763  0.4544
    6MOL    H49 1359   7.169   7.556   2.030 -0.5936 -0.3045 -1.2338
    6MOL    H50 1360   7.262   7.347   2.141 -0.6730  0.7467 -0.2395
    6MOL    H51 1361   7.416   7.370   2.037  0.7274  1.9330  0.3137
    6MOL    H52 1362   7.106   7.328   1.672 -0.4598  0.1738  0.3292
    6MOL    H53 1363   7.254   7.285   1.580 -2.2070  0.2057  0.1221
    6MOL    C54 1364   7.207   7.491   1.610 -0.2293 -0.5195 -0.1578
    6MOL    C55 1365   7.337   7.531   1.552 -0.5105  0.1909 -0.6446
    6MOL    C56 1366   7.463   7.567   1.630 -0.0239  0.7649  0.3163
    6MOL    C57 1367   7.382   7.675   1.551  0.3755  0.1630  0.1086
    6MOL    C58 1368   7.084   7.511   1.509 -0.1719 -0.0355  0.1568
    6MOL    H59 1369   7.193   7.560   1.693 -0.2219  0.6314 -1.1045
    6MOL    H60 1370   7.371   7.471   1.468 -1.3001 -0.2165 -0.6839
    6MOL    H61 1371   7.457   7.569   1.738  0.9102  0.5683  0.3772
    6MOL    H62 1372   7.557   7.533   1.587 -0.4893  0.9964 -0.9278
    6MOL    H63 1373   7.438   7.721   1.470  0.5770 -0.2842 -0.0080
    6MOL    H64 1374   7.308   7.739   1.598 -1.5644 -0.4047 -2.1264
    6MOL    H65 1375   7.106   7.590   1.438 -1.1959  0.9532  0.9263
    6MOL    H66 1376   7.082   7.424   1.443 -1.2713 -1.0999  1.5677
    6MOL    C67 1377   6.941   7.530   1.565 -0.0763  0.8649 -0.4202
    6MOL    C68 1378   6.939   7.648   1.667 -0.3390 -0.6951  0.8449
    6MOL    C69 1379   6.814   7.661   1.750  0.5788 -0.4245  0.1351
    6MOL    C70 1380   6.948   7.623   1.811  0.1018  0.0419 -0.5854
    6MOL    C71 1381   6.840   7.550   1.458  0.2130  0.3211  0.0768
    6MOL    H72 1382   6.908   7.449   1.630 -0.2912  1.6009  0.3990
    6MOL    H73 1383   6.965   7.741   1.617  0.8515 -0.9783  0.9190
    6MOL    H74 1384   6.773   7.754   1.791  0.9224  0.0284 -0.5375
    6MOL    H75 1385   6.736   7.588   1.727  0.4919 -1.1243  2.5252
    6MOL    H76 1386   6.957   7.526   1.859  2.2404  0.9713  0.9470
    6MOL    H77 1387   7.002   7.704   1.859  1.2391 -0.3728 -1.1238
    6MOL    H78 1388   6.861   7.637   1.396 -2.2904 -0.3851 -1.8187
    6MOL    H79 1389   6.747   7.577   1.506  0.0738 -0.7963  0.4537
    6MOL    C80 1390   6.807   7.418   1.371  0.8830  0.0504 -0.4311
    6MOL    C81 1391   6.747   7.452   1.238 -0.8594  0.1901  0.0644
    6MOL    C82 1392   6.774   7.357   1.120  0.2014 -0.4434  0.3292
    6MOL    C83 1393   6.832   7.495   1.125 -0.4975 -0.0870 -0.1886
    6MOL    C84 1394   6.711   7.321   1.447 -0.4668  0.9971  0.3849
    6MOL    H85 1395   6.904   7.372   1.351  1.6633  0.7197  1.6057
    6MOL    H86 1396   6.639   7.465   1.235 -1.1131 -1.9536 -0.6901
    6MOL    H87 1397   6.686   7.350   1.056  0.4802  2.6656 -0.4510
    6MOL    H88 1398   6.835   7.267   1.118 -1.8673 -1.8995  0.0221
    6MOL    H89 1399   6.939   7.505   1.143 -0.6860  0.4081  0.6942
    6MOL    H90 1400   6.801   7.582   1.069 -0.2936  0.3869  0.4354
    6MOL    H91 1401   6.729   7.323   1.554 -0.0352  0.8230  0.3157
    6MOL    H92 1402   6.606   7.348   1.437 -0.9334 -1.1100 -0.7899
    6MOL    C93 1403   6.721   7.172   1.411 -0.3472  0.3289  0.3630
    6MOL    C94 1404   6.788   7.092   1.527  0.7910 -0.4921  0.1296
    6MOL    C95 1405   6.890   6.985   1.507  0.2099  0.2420 -0.6074
    6MOL    C96 1406   6.927   7.119   1.561  0.6353 -0.1954  0.8521
    6MOL    C97 1407   6.581   7.112   1.366  0.4317  0.2786  0.4702
    6MOL    H98 1408   6.788   7.158   1.327 -1.3751  0.0316 -0.4255
    6MOL    H99 1409   6.733   7.079   1.620  0.5420 -3.1113 -0.3460
    6MOL   H100 1410   6.895   6.908   1.585  0.0208  2.3244  1.5308
    6MOL   H101 1411   6.887   6.942   1.408  1.9484 -1.9185  0.2166
    6MOL   H102 1412   6.955   7.130   1.665  0.9894  1.5373  0.5845
    6MOL   H103 1413   6.983   7.187   1.496 -1.8598  0.1883 -0.9775
    6MOL   H104 1414   6.551   7.176   1.283  0.9656 -0.4182 -0.2655
    6MOL   H105 1415   6.512   7.140   1.445 -0.6992  0.3517 -0.5259
    6MOL   C106 1416   6.558   6.966   1.312  0.1421 -0.5713 -0.7112
    6MOL   C107 1417   6.408   6.948   1.275 -0.3095  0.0751 -0.3031
    6MOL   C108 1418   6.344   6.804   1.285  0.0410 -0.1160  0.3484
    6MOL   C109 1419   6.308   6.914   1.379  0.2126  0.4038  0.2262
    6MOL   C110 1420   6.650   6.928   1.193  0.2985  0.5004  0.0004
    6MOL   H111 1421   6.579   6.892   1.390 -0.7582 -0.8565 -0.7343
    6MOL   H112 1422   6.373   7.007   1.191 -1.4062 -1.9319 -1.2835
    6MOL   H113 1423   6.271   6.776   1.210 -0.9595  3.4442 -0.0649
    6MOL   H114 1424   6.410   6.730   1.329  0.4038  0.5049  0.8545
    6MOL   H115 1425   6.351   6.906   1.479  0.3143  1.0416  0.2337
    6MOL   H116 1426   6.208   6.955   1.370 -0.1046  0.0374  1.8581
    6MOL   H117 1427   6.616   6.998   1.117  0.5786 -0.6053 -1.1501
    6MOL   H118 1428   6.753   6.959   1.212  0.3420 -1.0028  2.4137
    6MOL   C119 1429   6.645   6.782   1.133  0.2525 -0.3114 -0.2476
    6MOL   C120 1430   6.704   6.767   0.996 -0.0423  0.6771 -0.1044
    6MOL   C121 1431   6.841   6.823   0.974  0.3900  0.3518 -0.2304
    6MOL   C122 1432   6.720   6.873   0.896  0.9445  0.6195  0.4167
    6MOL   C123 1433   6.708   6.685   1.239 -0.2461 -0.8462  0.4217
    6MOL   H124 1434   6.537   6.769   1.128 -0.1126  2.3307  0.1546
    6MOL   H125 1435   6.692   6.667   0.954 -1.8618  1.7015 -2.1253
    6MOL   H126 1436   6.908   6.754   0.925  0.6534  0.6803 -0.3368
    6MOL   H127 1437   6.888   6.881   1.054  2.0748 -0.7519 -0.3890
    6MOL   H128 1438   6.686   6.973   0.923 -1.1243  0.1960 -0.5346
    6MOL   H129 1439   6.707   6.841   0.793 -1.8392 -0.4741  1.0791
    6MOL   H130 1440   6.810   6.722   1.253 -0.1303 -0.9236 -0.2052
    6MOL   H131 1441   6.651   6.687   1.332  2.3765 -0.4873  2.0878
    6MOL   C132 1442   6.690   6.541   1.206 -0.7267  0.8642 -0.8566
    6MOL   C133 1443   6.543   6.497   1.195  0.3393  0.3937 -1.1851
    6MOL   C134 1444   6.500   6.361   1.136  0.0463 -0.3858 -0.3476
    6MOL   C135 1445   6.473   6.497   1.064 -0.0968  0.2913 -0.2658
    6MOL   C136 1446   6.752   6.458   1.313 -0.5114 -0.2317  0.1267
    6MOL   H137 1447   6.738   6.520   1.111 -0.8653  0.6954 -0.8888
    6MOL   H138 1448   6.479   6.542   1.271  0.9654  1.5724 -1.3372
    6MOL   H139 1449   6.577   6.299   1.092  2.5082  1.1391  1.6550
    6MOL   H140 1450   6.402   6.320   1.159 -0.5984 -0.0104 -2.2965
    6MOL   H141 1451   6.538   6.526   0.981  0.2953  0.4668  0.1038
    6MOL   H142 1452   6.370   6.530   1.052 -0.1587 -0.1628 -1.0784
    6MOL   H143 1453   6.715   6.495   1.409  2.7470  0.8153  1.0628
    6MOL   H144 1454   6.706   6.359   1.307  2.2314 -1.7304  2.4443
    6MOL   C145 1455   6.904   6.437   1.316  0.6169 -0.2510  0.8595
    6MOL   C146 1456   6.947   6.378   1.455  0.4761 -0.3446  0.3439
    6MOL   C147 1457   7.079   6.418   1.514 -0.4880 -0.3716  0.4101
    6MOL   C148 1458   6.952   6.458   1.582 -0.3942  0.1077 -0.1310
    6MOL   C149 1459   6.942   6.346   1.198  0.0910  0.0930  0.2740
    6MOL   H150 1460   6.946   6.537   1.303 -0.7323  0.2983  0.6825
    6MOL   H151 1461   6.919   6.273   1.460 -2.0379  0.1825 -1.5878
    6MOL   H152 1462   7.149   6.339   1.543  2.4082  2.0927  0.3986
    6MOL   H153 1463   7.127   6.504   1.467  2.4418 -2.2747 -0.2339
    6MOL   H154 1464   6.910   6.557   1.563  0.8588  0.2461 -2.3390
    6MOL   H155 1465   6.910   6.403   1.665 -2.5980  0.6224 -0.8888
    6MOL   H156 1466   6.880   6.256   1.203  0.2540 -0.0207  0.2621
    6MOL   H157 1467   6.920   6.389   1.101  1.1485 -1.4033 -0.6579
    6MOL   C158 1468   7.090   6.293   1.175  0.1849 -0.7092 -0.1205
    6MOL   C159 1469   7.177   6.409   1.134  0.3183 -0.1336  0.0719
    6MOL   C160 1470   7.276   6.488   1.210 -1.3150  0.3588 -0.1306
    6MOL   C161 1471   7.330   6.387   1.112  0.1580 -0.4044 -0.8101
    6MOL   C162 1472   7.097   6.174   1.070 -0.2097 -0.4843 -0.2197
    6MOL   H163 1473   7.125   6.252   1.270  1.2618 -1.0261 -0.6445
    6MOL   H164 1474   7.130   6.472   1.059  0.4813 -1.2016 -0.9412
    6MOL   H165 1475   7.286   6.455   1.313 -1.9656  1.1171  0.1736
    6MOL   H166 1476   7.299   6.592   1.190  0.3998  0.0429  0.0501
    6MOL   H167 1477   7.388   6.429   1.030  2.3224 -1.3074  0.2452
    6MOL   H168 1478   7.375   6.298   1.155 -1.9208 -1.3247 -0.4572
    6MOL   H169 1479   7.172   6.191   0.992 -1.0083 -2.7250 -1.5243
    6MOL   H170 1480   7.001   6.182   1.019  0.3031 -0.8071 -1.2568
    6MOL   C171 1481   7.096   6.030   1.118 -0.7137 -0.5166 -0.1634
    6MOL   C172 1482   7.229   6.007   1.194  0.2349 -0.6314 -0.0928
    6MOL   C173 1483   7.289   5.864   1.190  0.0489 -0.4911 -0.0291
    6MOL   C174 1484   7.360   5.978   1.119  0.5105 -0.2197 -0.2555
    6MOL   C175 1485   6.986   6.009   1.216 -0.1817 -0.2206  0.0869
    6MOL   H176 1486   7.093   5.955   1.039  0.7626 -0.8726  0.1149
    6MOL   H177 1487   7.235   6.054   1.292  2.7170 -1.7248  0.3227
    6MOL   H178 1488   7.329   5.834   1.287  0.5687  2.1447  0.6045
    6MOL   H179 1489   7.253   5.786   1.123 -1.3780  0.7127 -0.7125
    6MOL   H180 1490   7.347   5.971   1.011  0.1343  0.6409 -0.2724
    6MOL   H181 1491   7.438   6.039   1.164 -0.9531  0.4971  1.3608
    6MOL   H182 1492   6.892   6.021   1.161  0.2852 -1.1475 -0.9365
    6MOL   H183 1493   6.972   6.087   1.291  1.2898  1.8651 -1.7308
    6MOL   C184 1494   6.969   5.867   1.284 -0.2893  0.1535 -0.2223
    6MOL   C185 1495   6.886   5.777   1.195  0.4281  0.2626  0.4158
    6MOL   C186 1496   6.871   5.635   1.227 -0.8344  0.2387  0.7040
    6MOL   C187 1497   6.951   5.678   1.104 -0.1177 -0.0408  0.3644
    6MOL   C188 1498   6.913   5.866   1.425 -0.5207 -0.4477 -0.0376
    6MOL   H189 1499   7.068   5.823   1.284  0.1572  0.9839  3.4865
    6MOL   H190 1500   6.795   5.820   1.153  0.9634  3.1335  2.0377
    6MOL   H191 1501   6.775   5.592   1.200 -0.3439  0.0250 -0.7793
    6MOL   H192 1502   6.932   5.592   1.306  1.2436  1.9346  0.0652
    6MOL   H193 1503   6.914   5.659   1.003 -1.8548  2.3187  0.5110
    6MOL   H194 1504   7.059   5.688   1.108  0.0559 -1.1675 -1.1081
    6MOL   H195 1505   6.840   5.786   1.435  0.1061 -0.8775  1.3117
    6MOL   H196 1506   6.860   5.959   1.446 -0.7492 -1.0668  2.3525
    6MOL   C197 1507   7.015   5.842   1.538  0.3867 -0.1411  0.0378
    6MOL   C198 1508   6.952   5.791   1.670  0.3642  0.5263  0.2813
    6MOL   C199 1509   7.012   5.688   1.764 -0.3898 -0.2062  1.1622
    6MOL   C200 1510   6.904   5.641   1.670 -0.0154 -0.6155 -0.1530
    6MOL   C201 1511   7.094   5.970   1.581  0.8228  0.4191  0.0874
    6MOL   H202 1512   7.085   5.765   1.506 -0.3127 -0.4604 -0.7648
    6MOL   H203 1513   6.890   5.866   1.718  0.0819  1.6570 -1.7911
    6MOL   H204 1514   7.105   5.648   1.725 -1.1992  1.1681 -2.3529
    6MOL   H205 1515   6.994   5.680   1.871 -0.0191 -2.3383  1.0836
    6MOL   H206 1516   6.941   5.574   1.592  1.3832  1.5686 -1.4209
    6MOL   H207 1517   6.808   5.607   1.709 -0.3010 -0.1920 -0.4764
    6MOL   H208 1518   7.130   6.035   1.501 -1.7940  1.9164  0.0669
    6MOL   H209 1519   7.031   6.037   1.639 -1.8486 -2.7159  0.9382
    6MOL   C210 1520   7.226   5.950   1.664 -0.2193 -0.4405 -0.3117
    6MOL   C211 1521   7.353   5.941   1.577 -0.6521 -0.3185  0.2476
    6MOL   C212 1522   7.483   5.889   1.641  0.0119 -0.3962  0.1712
    6MOL   C213 1523   7.417   5.808   1.530  0.3689 -0.3332 -0.5481
    6MOL   C214 1524   7.240   6.050   1.781 -0.3464  0.2125  0.3166
    6MOL   H215 1525   7.227   5.853   1.714 -0.9466 -0.2008  0.1788
    6MOL   H216 1526   7.368   6.029   1.515  0.3916  0.3172  1.3841
    6MOL   H217 1527   7.572   5.951   1.632  0.0698 -0.4021  0.6910
    6MOL   H218 1528   7.471   5.838   1.737  0.1393 -0.0857  0.3513
    6MOL   H219 1529   7.466   5.802   1.433 -0.7732  2.1418 -1.3199
    6MOL   H220 1530   7.368   5.716   1.563  1.8508 -1.8496 -2.4220
    6MOL   H221 1531   7.343   6.067   1.814 -0.6703  0.8153  1.0239
    6MOL   H222 1532   7.220   6.147   1.736  0.8327 -0.2207 -1.1903
    6MOL   C223 1533   7.152   6.036   1.898  0.4052  0.0666  0.3522
    6MOL   C224 1534   7.167   6.175   1.967 -0.1763  0.5697  0.0674
    6MOL   C225 1535   7.096   6.295   1.919  0.4087 -0.6298  0.0280
    6MOL   C226 1536   7.052   6.235   2.047 -0.4270  0.4014  0.3642
    6MOL   C227 1537   7.203   5.914   1.989  0.4561 -0.3185  0.4803
    6MOL   H228 1538   7.052   6.009   1.865  2.0603 -3.9041 -1.7151
    6MOL   H229 1539   7.266   6.197   2.005  1.0106 -2.5420 -1.0704
    6MOL   H230 1540   7.036   6.272   1.832 -0.5917  0.7533  0.3397
    6MOL   H231 1541   7.146   6.391   1.930 -1.1848  0.1187  0.9126
    6MOL   H232 1542   7.074   6.291   2.138  0.5002  2.5197 -1.1201
    6MOL   H233 1543   6.961   6.178   2.060  1.3453 -2.3243  1.0967
    6MOL   H234 1544   7.168   5.822   1.944 -0.7328  0.2488  0.2241
    6MOL   H235 1545   7.312   5.922   1.992  0.6473 -1.6382 -1.5139
    6MOL   C236 1546   7.147   5.920   2.132 -0.5857 -0.7059  0.2300
    6MOL   C237 1547   7.248   5.836   2.217 -0.1802 -0.3850 -0.7167
    6MOL   C238 1548   7.367   5.903   2.269 -0.9758  0.2787 -0.5245
    6MOL   C239 1549   7.268   5.853   2.370 -0.6120  0.1838  0.2236
    6MOL   C240 1550   7.010   5.851   2.129  0.3132 -0.0546  0.1871
    6MOL   H241 1551   7.134   6.020   2.174  1.1021 -0.9307  1.2829
    6MOL   H242 1552   7.262   5.729   2.198 -1.6808 -0.8432  0.6757
    6MOL   H243 1553   7.455   5.847   2.236 -0.9674  0.1382 -0.2652
    6MOL   H244 1554   7.377   6.011   2.261 -0.7602  0.3022  0.1176
    6MOL   H245 1555   7.205   5.924   2.423 -0.1507 -0.2451  1.3718
    6MOL   H246 1556   7.289   5.763   2.428  0.6253 -0.0976 -0.6581
    6MOL   H247 1557   6.957   5.899   2.047  0.8531  0.5921  0.2150
    6MOL   H248 1558   7.030   5.745   2.109 -0.3332  0.2118 -2.0116
    6MOL   C249 1559   6.923   5.857   2.256  0.3215 -0.4643  0.4980
    6MOL   C250 1560   6.810   5.759   2.232  0.6431 -0.0938  0.5512
    6MOL   C251 1561   6.819   5.613   2.277 -0.0893  1.1130  0.1740
    6MOL   C252 1562   6.724   5.709   2.350  0.2497 -0.9266  0.2832
    6MOL   C253 1563   6.865   6.000   2.273  0.2566  0.5429 -0.1310
    6MOL   H254 1564   6.981   5.827   2.343 -1.0400 -0.4504  1.4153
    6MOL   H255 1565   6.768   5.772   2.132  1.1619  0.4391  0.3987
    6MOL   H256 1566   6.767   5.543   2.212 -1.2860  2.7030 -0.6274
    6MOL   H257 1567   6.899   5.576   2.340  0.3071 -0.4881 -1.2449
    6MOL   H258 1568   6.616   5.708   2.339 -0.0768 -0.6662  3.1150
    6MOL   H259 1569   6.754   5.755   2.443  0.3722  1.6277 -0.9848
    6MOL   H260 1570   6.939   6.071   2.311  0.9756  0.0011 -0.5159
    6MOL   H261 1571   6.796   5.996   2.357  0.6236  1.1491  0.2109
    6MOL   H262 1572   6.820   6.061   2.195  0.4465  0.4984 -0.2794
    7MOL     C1 1573   5.264   2.825   4.739  0.1426 -0.2404 -0.1752
    7MOL     C2 1574   5.140   2.788   4.820  0.4382 -0.7521 -0.0222
    7MOL     C3 1575   5.113   2.857   4.953 -0.3975  0.1716  0.1759
    7MOL     C4 1576   5.154   2.710   4.950 -0.6036  0.7208  0.3492
    7MOL     C5 1577   5.243   2.958   4.656 -0.3176 -0.2925  0.0586
    7MOL     H6 1578   5.347   2.832   4.809  2.1772  2.4226 -2.7133
    7MOL     H7 1579   5.057   2.762   4.756  0.3460  1.2776 -0.7791
    7MOL     H8 1580   5.190   2.930   4.976  0.1655  0.7822 -3.2671
    7MOL     H9 1581   5.013   2.884   4.983 -1.0806 -3.4932  1.4848
    7MOL    H10 1582   5.087   2.630   4.980  1.1224 -1.0287 -0.4287
    7MOL    H11 1583   5.255   2.690   4.984 -0.7040 -1.4663 -0.5753
    7MOL    H12 1584   5.190   3.032   4.716  0.8774  1.9679 -1.5914
    7MOL    H13 1585   5.182   2.936   4.568  1.5225 -1.2360 -1.0054
    7MOL    H14 1586   5.283   2.748   4.665 -0.1198 -1.6450  1.2048
    7MOL    C15 1587   5.369   3.010   4.588 -0.2460  0.3299 -0.2186
    7MOL    C16 1588   5.360   3.013   4.438  0.6072 -0.3548 -0.1393
    7MOL    C17 1589   5.369   2.885   4.370 -0.7009 -0.5176  0.0652
    7MOL    C18 1590   5.471   2.992   4.342 -0.2914 -0.0193 -0.2005
    7MOL    C19 1591   5.409   3.155   4.636  0.2747  0.4695 -0.0821
    7MOL    H20 1592   5.445   2.939   4.618 -1.8147 -1.8235 -1.1852
    7MOL    H21 1593   5.271   3.067   4.407 -0.1311 -1.1619  0.5572
    7MOL    H22 1594   5.300   2.863   4.289  0.9007 -0.6740 -1.2972
    7MOL    H23 1595   5.385   2.792   4.426 -0.0676 -0.9092 -0.7407
    7MOL    H24 1596   5.568   2.997   4.392 -0.9802  2.0020  0.9741
    7MOL    H25 1597   5.470   3.015   4.236 -1.2573 -0.2092 -0.2357
    7MOL    H26 1598   5.330   3.228   4.619 -0.0526 -0.2533 -1.7676
    7MOL    H27 1599   5.488   3.184   4.567  0.6454 -0.4556 -0.0550
    7MOL    C28 1600   5.456   3.150   4.784 -0.1696  0.4625  0.2038
    7MOL    C29 1601   5.422   3.283   4.847  0.3220 -1.0335  0.1490
    7MOL    C30 1602   5.287   3.309   4.916 -0.1498  0.3408 -1.0200
    7MOL    C31 1603   5.420   3.314   4.994  0.3578 -1.2311 -0.6649
    7MOL    C32 1604   5.604   3.110   4.792 -0.2638 -0.4514  0.6486
    7MOL    H33 1605   5.398   3.070   4.830  2.1253 -0.4353  1.6136
    7MOL    H34 1606   5.446   3.363   4.778 -1.1678 -1.1811 -0.5627
    7MOL    H35 1607   5.222   3.224   4.937  2.0965 -1.6893 -1.9684
    7MOL    H36 1608   5.235   3.403   4.902  2.0114  1.3910 -2.2532
    7MOL    H37 1609   5.439   3.236   5.067  1.7692 -0.2649  0.0251
    7MOL    H38 1610   5.434   3.412   5.039 -2.2431  0.2524 -2.8749
    7MOL    H39 1611   5.666   3.185   4.742 -1.2771  0.2881  0.4908
    7MOL    H40 1612   5.621   3.022   4.729 -0.4127 -0.4040  0.5424
    7MOL    C41 1613   5.666   3.071   4.931 -1.3836 -0.4118  0.5739
    7MOL    C42 1614   5.822   3.062   4.929 -0.1835 -0.0084  0.9025
    7MOL    C43 1615   5.909   3.078   5.058 -0.1425  0.3320  0.7289
    7MOL    C44 1616   5.913   3.182   4.945  0.1458  0.3849  0.1606
    7MOL    C45 1617   5.606   2.947   4.987 -0.0848 -0.4004  0.5758
    7MOL    H46 1618   5.646   3.139   5.013 -0.3839  0.2604  0.2675
    7MOL    H47 1619   5.859   2.998   4.849 -2.4149  1.0992 -1.0795
    7MOL    H48 1620   5.857   3.108   5.149 -3.5880 -1.1697 -0.6343
    7MOL    H49 1621   5.989   3.006   5.070 -1.3104 -1.0031  0.7407
    7MOL    H50 1622   5.997   3.175   4.876  0.6939  0.3517  0.8264
    7MOL    H51 1623   5.889   3.279   4.986  0.7740  1.4801 -1.9838
    7MOL    H52 1624   5.630   2.874   4.909 -1.2414 -0.2656  0.0809
    7MOL    H53 1625   5.498   2.959   4.989  0.1433  2.0167 -0.2853
    7MOL    C54 1626   5.647   2.889   5.125 -0.3194  0.0950  0.8549
    7MOL    C55 1627   5.576   2.967   5.230 -0.0805 -0.5671  0.2348
    7MOL    C56 1628   5.584   3.110   5.273 -0.1934  0.7853  0.2066
    7MOL    C57 1629   5.652   3.002   5.356  0.2183 -0.3405 -0.3505
    7MOL    C58 1630   5.628   2.732   5.141  0.1684  0.1053  0.2786
    7MOL    H59 1631   5.755   2.903   5.129 -0.1528 -0.4602 -1.0354
    7MOL    H60 1632   5.474   2.931   5.246 -0.7938  1.0707 -0.4372
    7MOL    H61 1633   5.653   3.191   5.250  0.0665  1.3137  2.6466
    7MOL    H62 1634   5.496   3.150   5.323  0.1985 -0.7564  2.2161
    7MOL    H63 1635   5.601   2.982   5.450 -0.1886  1.3847 -0.1813
    7MOL    H64 1636   5.761   2.998   5.354  0.2188 -1.1525  0.6844
    7MOL    H65 1637   5.522   2.713   5.127 -0.1442  0.6928  1.7550
    7MOL    H66 1638   5.690   2.690   5.062  1.9491  1.2237  1.0506
    7MOL    C67 1639   5.661   2.654   5.278  0.1386 -0.1503 -0.5604
    7MOL    C68 1640   5.614   2.509   5.268 -0.0580 -0.3852 -0.1045
    7MOL    C69 1641   5.511   2.465   5.363 -0.1901  0.3265  0.8169
    7MOL    C70 1642   5.474   2.469   5.217  0.5749 -0.8780 -1.0041
    7MOL    C71 1643   5.817   2.651   5.309  0.0289  0.6239  0.6778
    7MOL    H72 1644   5.611   2.703   5.362 -0.3733 -1.4500 -0.0925
    7MOL    H73 1645   5.684   2.435   5.231  0.6733  0.5180 -0.5424
    7MOL    H74 1646   5.518   2.364   5.403 -0.5014 -0.1940 -0.4257
    7MOL    H75 1647   5.453   2.538   5.419  0.7630  1.7145  0.0157
    7MOL    H76 1648   5.396   2.539   5.189 -0.1287 -0.8333  1.0005
    7MOL    H77 1649   5.458   2.371   5.173 -1.9516 -0.2944 -1.4687
    7MOL    H78 1650   5.866   2.714   5.235  1.9735 -0.0301  1.3799
    7MOL    H79 1651   5.847   2.549   5.285 -1.3893  0.2367  0.5003
    7MOL    C80 1652   5.855   2.684   5.444  0.2728  0.4576 -0.0121
    7MOL    C81 1653   6.003   2.701   5.455 -0.0605  0.1283 -0.2891
    7MOL    C82 1654   6.073   2.771   5.564  0.2023 -0.2015 -0.2954
    7MOL    C83 1655   6.073   2.824   5.419 -0.4009 -0.7728 -0.1674
    7MOL    C84 1656   5.803   2.578   5.547 -0.1348  0.7248  0.6716
    7MOL    H85 1657   5.823   2.782   5.480  3.3156  1.5067 -0.0024
    7MOL    H86 1658   6.049   2.618   5.402 -2.0743 -0.4892 -1.1043
    7MOL    H87 1659   6.163   2.724   5.602  0.1112 -0.0816  0.0636
    7MOL    H88 1660   6.008   2.823   5.634  0.2700 -1.2484  0.5526
    7MOL    H89 1661   6.013   2.912   5.397 -0.0630  0.0965  2.2343
    7MOL    H90 1662   6.159   2.797   5.359  0.7246 -1.7527  1.8618
    7MOL    H91 1663   5.706   2.540   5.514  1.0048 -0.1114 -1.8208
    7MOL    H92 1664   5.878   2.499   5.540 -0.7399  0.3348 -2.0389
    7MOL    C93 1665   5.776   2.626   5.684  0.7002 -0.3047 -0.7180
    7MOL    C94 1666   5.679   2.737   5.695  0.0347  0.3953  0.6133
    7MOL    C95 1667   5.672   2.807   5.827  0.1513  0.1965  0.0833
    7MOL    C96 1668   5.719   2.880   5.701  0.6912  0.6937  0.9316
    7MOL    C97 1669   5.719   2.518   5.783  0.5797 -0.1467 -0.0476
    7MOL    H98 1670   5.872   2.659   5.723  0.4749 -2.4571  1.8872
    7MOL    H99 1671   5.583   2.722   5.644 -0.4001  1.6487  1.0468
    7MOL   H100 1672   5.572   2.821   5.866 -0.5255  0.0489 -1.5883
    7MOL   H101 1673   5.741   2.771   5.904 -0.3293 -0.8539  0.0250
    7MOL   H102 1674   5.651   2.955   5.660  0.7189  1.1786  1.7616
    7MOL   H103 1675   5.824   2.904   5.692  1.0498 -1.2439 -0.4535
    7MOL   H104 1676   5.615   2.503   5.753  1.0325 -1.4285 -0.9974
    7MOL   H105 1677   5.705   2.562   5.882 -0.8780  1.0685 -0.7754
    7MOL   C106 1678   5.798   2.382   5.792  0.1513  0.0178  0.5017
    7MOL   C107 1679   5.890   2.400   5.906  0.1001  0.3474 -0.1194
    7MOL   C108 1680   6.027   2.339   5.923  0.1786 -1.1041 -0.7014
    7MOL   C109 1681   6.010   2.486   5.906 -0.2469 -0.0292  0.2542
    7MOL   C110 1682   5.694   2.265   5.815 -0.1351  0.1754  0.3892
    7MOL   H111 1683   5.851   2.365   5.698 -0.2346  1.5672 -0.0000
    7MOL   H112 1684   5.838   2.405   6.001 -1.8613  0.7483 -1.1981
    7MOL   H113 1685   6.074   2.316   6.018  1.2669 -2.5316 -1.5616
    7MOL   H114 1686   6.068   2.291   5.834 -0.3702 -2.2174 -0.3666
    7MOL   H115 1687   6.035   2.533   5.811  0.4415 -0.0409  0.4297
    7MOL   H116 1688   6.019   2.548   5.995 -0.1805 -1.0043  0.9348
    7MOL   H117 1689   5.744   2.180   5.861  0.2548  1.4533  2.3841
    7MOL   H118 1690   5.624   2.298   5.892 -0.3431 -2.5974  1.4485
    7MOL   C119 1691   5.616   2.219   5.687 -0.1927 -0.0633 -0.3605
    7MOL   C120 1692   5.703   2.127   5.602 -0.8949 -0.0031 -0.0588
    7MOL   C121 1693   5.794   2.164   5.490 -0.3779 -0.7095  0.2498
    7MOL   C122 1694   5.666   2.091   5.456  0.2244  0.4420  0.1149
    7MOL   C123 1695   5.478   2.152   5.728 -0.3558 -0.1005 -0.0873
    7MOL   H124 1696   5.590   2.307   5.628 -0.1188 -0.1758 -0.5587
    7MOL   H125 1697   5.720   2.035   5.657  1.2438  0.3798 -0.0528
    7MOL   H126 1698   5.882   2.101   5.482 -1.7358 -3.1425  3.2953
    7MOL   H127 1699   5.807   2.268   5.464  0.5434 -1.0758 -0.7875
    7MOL   H128 1700   5.596   2.152   5.398 -0.3444 -0.2482  0.0574
    7MOL   H129 1701   5.657   1.984   5.442 -0.5923  0.5994 -0.6650
    7MOL   H130 1702   5.436   2.095   5.645  0.2681 -0.8759  0.1264
    7MOL   H131 1703   5.488   2.080   5.810 -0.6037 -0.8992 -0.7443
    7MOL   C132 1704   5.366   2.248   5.782 -0.3979 -0.2690 -1.2181
    7MOL   C133 1705   5.242   2.163   5.824  0.3644 -0.4514  0.5407
    7MOL   C134 1706   5.146   2.196   5.936  0.6743  0.7636  0.0923
    7MOL   C135 1707   5.251   2.090   5.954  0.3731  0.0094 -0.6093
    7MOL   C136 1708   5.325   2.359   5.682  0.0312  0.6064 -0.7859
    7MOL   H137 1709   5.401   2.300   5.871 -1.9444  2.0211 -1.8993
    7MOL   H138 1710   5.210   2.110   5.734  0.1411 -0.7957  0.8220
    7MOL   H139 1711   5.157   2.287   5.993 -1.5013  0.2102  1.4757
    7MOL   H140 1712   5.045   2.156   5.926  1.4020 -0.8677 -1.1916
    7MOL   H141 1713   5.335   2.116   6.019  0.6951 -2.8603  0.1934
    7MOL   H142 1714   5.207   1.990   5.958  1.7138 -0.8053 -4.6811
    7MOL   H143 1715   5.409   2.391   5.621  1.3954 -0.4557  0.4824
    7MOL   H144 1716   5.251   2.304   5.623 -2.9447  0.2901  2.9788
    7MOL   C145 1717   5.260   2.482   5.752  0.4682 -0.3074 -0.0183
    7MOL   C146 1718   5.360   2.563   5.830  0.2311  0.0913 -0.0044
    7MOL   C147 1719   5.311   2.651   5.941  0.1623  0.2467 -0.1091
    7MOL   C148 1720   5.395   2.531   5.972 -0.0630  0.2906  1.1775
    7MOL   C149 1721   5.198   2.575   5.637 -0.6546 -0.1935  0.4845
    7MOL   H150 1722   5.185   2.451   5.824 -3.3605  1.5201 -2.9994
    7MOL   H151 1723   5.443   2.599   5.770 -0.2332  1.8946  0.3936
    7MOL   H152 1724   5.355   2.750   5.941  1.7082 -0.4307 -0.9090
    7MOL   H153 1725   5.207   2.652   5.973  0.1554  0.2639 -0.1332
    7MOL   H154 1726   5.343   2.443   6.010 -3.9174  1.4455 -1.1883
    7MOL   H155 1727   5.493   2.556   6.012  0.4695  1.7963 -0.9608
    7MOL   H156 1728   5.268   2.652   5.608 -0.1845 -0.1227  1.7809
    7MOL   H157 1729   5.172   2.524   5.544  4.1585  1.2007 -1.7282
    7MOL   C158 1730   5.063   2.646   5.675  0.1296 -0.1962  0.5644
    7MOL   C159 1731   4.961   2.540   5.721  0.2240 -0.8345 -0.5815
    7MOL   C160 1732   4.944   2.489   5.866 -0.0251 -0.1952  0.0126
    7MOL   C161 1733   4.840   2.574   5.808 -0.0819  0.6026  0.1479
    7MOL   C162 1734   5.001   2.739   5.566  0.0737 -0.0046  0.1995
    7MOL   H163 1735   5.092   2.705   5.762 -0.9193  0.8780  0.1987
    7MOL   H164 1736   4.950   2.463   5.645 -0.3260 -1.1369 -0.2033
    7MOL   H165 1737   5.016   2.544   5.927  0.0170  0.8464 -0.9581
    7MOL   H166 1738   4.947   2.381   5.879  1.0245 -0.0875  0.7905
    7MOL   H167 1739   4.747   2.518   5.795  1.2596 -1.3372 -1.4431
    7MOL   H168 1740   4.829   2.681   5.826 -2.4871  0.3133  0.6597
    7MOL   H169 1741   4.898   2.755   5.598  0.7886  2.3356  1.4768
    7MOL   H170 1742   4.995   2.677   5.477  2.1267  0.9659 -0.6639
    7MOL   C171 1743   5.080   2.868   5.535 -0.2938  0.1711 -0.0151
    7MOL   C172 1744   5.077   2.886   5.385  0.8317  0.0105 -0.0777
    7MOL   C173 1745   5.186   2.956   5.305  0.2537  0.6160  0.3518
    7MOL   C174 1746   5.182   2.808   5.294 -0.1238  0.3651  0.0470
    7MOL   C175 1747   5.019   2.993   5.601  0.5908 -0.6024  0.1142
    7MOL   H176 1748   5.182   2.848   5.570 -0.0568  0.1323 -0.7187
    7MOL   H177 1749   4.977   2.910   5.349 -0.2825  0.5836  3.2498
    7MOL   H178 1750   5.158   3.014   5.217 -0.2420  1.9225  1.3503
    7MOL   H179 1751   5.268   2.996   5.365 -0.3456  0.3727  1.3483
    7MOL   H180 1752   5.253   2.746   5.347  0.8589  1.1200 -0.3819
    7MOL   H181 1753   5.138   2.755   5.210 -0.7280 -0.0996  0.6449
    7MOL   H182 1754   4.965   2.953   5.687 -0.9606  0.1503 -0.4733
    7MOL   H183 1755   4.936   3.026   5.537 -0.2523  0.4077  1.6938
    7MOL   C184 1756   5.113   3.110   5.627 -0.6676 -0.2438  0.1087
    7MOL   C185 1757   5.217   3.072   5.727  0.4842  0.1847  0.4744
    7MOL   C186 1758   5.350   3.144   5.737 -0.6740 -0.3304 -0.0558
    7MOL   C187 1759   5.348   3.001   5.680  0.6046 -0.5331 -0.6231
    7MOL   C188 1760   5.035   3.235   5.681  0.3076 -0.0525 -0.0394
    7MOL   H189 1761   5.162   3.133   5.532 -1.9956 -1.6991 -0.9661
    7MOL   H190 1762   5.171   3.029   5.816 -0.4105  0.9840  0.4153
    7MOL   H191 1763   5.396   3.160   5.834  1.8611  0.9186 -1.4232
    7MOL   H192 1764   5.366   3.220   5.661 -0.5259 -1.1713 -0.8696
    7MOL   H193 1765   5.384   2.921   5.745  1.4416 -1.0472 -1.7065
    7MOL   H194 1766   5.373   2.989   5.575  0.3936  1.1169 -0.8732
    7MOL   H195 1767   5.040   3.233   5.790  2.5249  3.6677  0.0177
    7MOL   H196 1768   4.932   3.232   5.646 -0.3763  2.7937  1.5059
    7MOL   C197 1769   5.089   3.373   5.636  0.2050  0.4071 -0.0077
    7MOL   C198 1770   5.043   3.479   5.735  0.0665 -0.1895  0.4827
    7MOL   C199 1771   5.140   3.584   5.780 -0.5848  0.2865 -0.9314
    7MOL   C200 1772   5.092   3.474   5.881  0.1014 -0.3413  0.2835
    7MOL   C201 1773   5.060   3.400   5.487 -0.1137 -0.0174 -0.5919
    7MOL   H202 1774   5.197   3.365   5.645  0.5169  2.9922 -1.0361
    7MOL   H203 1775   4.950   3.524   5.699  0.1189 -1.1853 -0.9401
    7MOL   H204 1776   5.246   3.578   5.758 -0.0312 -0.8497  1.7810
    7MOL   H205 1777   5.108   3.688   5.784  1.0326  0.7761 -0.2870
    7MOL   H206 1778   5.160   3.392   5.901 -0.8238 -1.3437 -0.5980
    7MOL   H207 1779   5.028   3.502   5.964  1.9767  0.4854  1.4807
    7MOL   H208 1780   5.063   3.311   5.423 -2.2546  0.6408 -1.6662
    7MOL   H209 1781   4.953   3.420   5.483  0.0722  0.7819 -1.9576
    7MOL   C210 1782   5.144   3.507   5.409 -0.3034 -0.4688 -0.6920
    7MOL   C211 1783   5.283   3.459   5.362 -0.5227 -0.3738 -0.0722
    7MOL   C212 1784   5.395   3.555   5.374 -0.1144 -0.4312  0.3026
    7MOL   C213 1785   5.389   3.438   5.462 -0.1210  0.2682  0.4630
    7MOL   C214 1786   5.071   3.583   5.304 -0.1926 -1.0681  0.0132
    7MOL   H215 1787   5.162   3.573   5.493  0.1199 -0.1246 -1.0508
    7MOL   H216 1788   5.290   3.395   5.275  0.9460  0.3543 -0.4931
    7MOL   H217 1789   5.467   3.559   5.293  2.4597 -0.1265  2.5036
    7MOL   H218 1790   5.371   3.649   5.424  0.0825 -1.1094  1.7086
    7MOL   H219 1791   5.459   3.356   5.444 -0.4396 -0.4056  2.1837
    7MOL   H220 1792   5.388   3.481   5.562 -1.6341  0.4461  0.3808
    7MOL   H221 1793   5.149   3.650   5.268  0.0150  0.8475  3.8518
    7MOL   H222 1794   5.040   3.502   5.238 -1.0631 -1.1219  0.4836
    7MOL   C223 1795   4.942   3.658   5.349 -0.2081 -0.3102  0.2129
    7MOL   C224 1796   4.868   3.720   5.231  0.1169  0.1359  0.9085
    7MOL   C225 1797   4.782   3.641   5.135  0.0381  0.1708 -0.3992
    7MOL   C226 1798   4.721   3.739   5.240 -0.3116 -0.0602  0.1156
    7MOL   C227 1799   4.994   3.764   5.449 -0.2839  0.0468  0.0723
    7MOL   H228 1800   4.879   3.584   5.399 -1.1096 -0.5121 -1.2220
    7MOL   H229 1801   4.934   3.780   5.168  0.3975 -2.1119 -1.0249
    7MOL   H230 1802   4.769   3.533   5.148  1.9117 -0.4070 -3.0407
    7MOL   H231 1803   4.772   3.675   5.032  0.5448  1.7589  0.0689
    7MOL   H232 1804   4.671   3.819   5.184 -1.4221  0.2293  1.5030
    7MOL   H233 1805   4.669   3.708   5.330  0.3396  0.2048  0.5853
    7MOL   H234 1806   5.047   3.737   5.540  0.2251  1.3429  0.1619
    7MOL   H235 1807   5.068   3.830   5.403  1.0622 -3.3124 -2.8347
    7MOL   C236 1808   4.884   3.852   5.511  0.7977  0.1410 -0.4793
    7MOL   C237 1809   4.948   3.962   5.599  0.2012  0.4154  1.0795
    7MOL   C238 1810   5.042   4.067   5.545  0.3384  0.2148  0.8398
    7MOL   C239 1811   4.907   4.110   5.601 -0.0759  0.4944  0.6141
    7MOL   C240 1812   4.780   3.776   5.599  0.2134 -0.2911  0.1183
    7MOL   H241 1813   4.819   3.897   5.436  0.9003  1.1400  0.0068
    7MOL   H242 1814   4.970   3.920   5.697  0.4773 -2.3201 -0.1011
    7MOL   H243 1815   5.132   4.070   5.607 -0.1123 -2.6182  1.6637
    7MOL   H244 1816   5.055   4.090   5.439 -0.3107 -0.3065  0.6451
    7MOL   H245 1817   4.825   4.130   5.533 -0.1003 -1.9251 -0.1126
    7MOL   H246 1818   4.914   4.161   5.697  1.8680 -1.6988  1.6886
    7MOL   H247 1819   4.736   3.703   5.532 -1.0827  1.1712 -0.6639
    7MOL   H248 1820   4.843   3.726   5.673 -0.4361 -0.5541  0.4913
    7MOL   C249 1821   4.670   3.856   5.671 -0.2290 -0.1023 -0.1885
    7MOL   C250 1822   4.628   3.792   5.803 -0.6689  0.1689 -0.7046
    7MOL   C251 1823   4.716   3.805   5.933  0.2211 -1.0896 -0.9364
    7MOL   C252 1824   4.579   3.872   5.917 -0.8026  0.1620  0.0493
    7MOL   C253 1825   4.550   3.877   5.567  0.0564 -0.6054 -0.0333
    7MOL   H254 1826   4.708   3.956   5.693 -2.7435  0.7348  0.6155
    7MOL   H255 1827   4.590   3.692   5.788 -0.5651 -0.0280  0.3447
    7MOL   H256 1828   4.728   3.721   6.001 -1.3545  0.5846  1.4869
    7MOL   H257 1829   4.807   3.862   5.917 -0.6938  0.6537 -0.0513
    7MOL   H258 1830   4.507   3.819   5.979 -0.5100  1.2736  1.3735
    7MOL   H259 1831   4.575   3.980   5.908 -0.6249  0.2345  0.8170
    7MOL   H260 1832   4.502   3.780   5.550  1.2696 -1.3248  0.6173
    7MOL   H261 1833   4.575   3.922   5.471 -0.1079  1.4094  0.8584
    7MOL   H262 1834   4.472   3.938   5.612 -0.3346 -0.5880 -0.7222
    8MOL     C1 1835   5.168   2.926   3.096 -0.1111 -0.1426 -0.3981
    8MOL     C2 1836   5.147   3.041   2.998  0.7299 -0.5281  0.6407
    8MOL     C3 1837   4.998   3.059   2.947 -0.2687 -0.5815 -0.5056
    8MOL     C4 1838   5.111   3.027   2.850 -0.5402  0.3850 -0.1841
    8MOL     C5 1839   5.087   2.937   3.223  0.3402 -0.2211 -0.0200
    8MOL     H6 1840   5.146   2.831   3.048 -0.1530  0.0410 -0.7459
    8MOL     H7 1841   5.196   3.131   3.034  0.6219 -0.3447  0.3272
    8MOL     H8 1842   4.930   2.977   2.970 -0.9859  0.2905  0.5507
    8MOL     H9 1843   4.962   3.162   2.956 -0.3657 -0.3656 -2.9827
    8MOL    H10 1844   5.136   3.097   2.770 -3.7802 -1.4307 -2.8788
    8MOL    H11 1845   5.110   2.925   2.813 -1.3643 -0.3289  1.7260
    8MOL    H12 1846   4.986   2.959   3.186 -0.0719 -1.1847  0.5028
    8MOL    H13 1847   5.119   3.021   3.284  3.6269 -2.2569  1.1607
    8MOL    H14 1848   5.272   2.929   3.130 -0.3294 -1.5675  0.4517
    8MOL    C15 1849   5.051   2.812   3.312  0.0321  0.3721 -0.3526
    8MOL    C16 1850   5.175   2.735   3.347  0.9386  0.0260 -0.2834
    8MOL    C17 1851   5.208   2.620   3.253 -0.1447  0.4072 -0.2033
    8MOL    C18 1852   5.157   2.589   3.384  0.4013 -0.0139 -0.3564
    8MOL    C19 1853   4.967   2.861   3.432 -0.2575  0.2292  0.2423
    8MOL    H20 1854   4.984   2.755   3.249  1.4329 -2.8002  0.8741
    8MOL    H21 1855   5.255   2.787   3.400 -0.7088  0.6828  1.6301
    8MOL    H22 1856   5.310   2.591   3.228 -0.4783 -0.8830 -0.1379
    8MOL    H23 1857   5.140   2.583   3.176  1.3396  0.4325 -1.5384
    8MOL    H24 1858   5.055   2.551   3.386 -0.7991  3.0982  0.4069
    8MOL    H25 1859   5.225   2.555   3.461 -0.4081 -1.5840 -0.3223
    8MOL    H26 1860   5.036   2.922   3.491 -1.1308  0.2383  1.2627
    8MOL    H27 1861   4.946   2.775   3.496 -1.7355  0.1606 -0.3365
    8MOL    C28 1862   4.835   2.939   3.406 -0.2546 -0.3340 -0.2147
    8MOL    C29 1863   4.774   2.965   3.540  0.2572  0.3574 -0.1741
    8MOL    C30 1864   4.853   3.049   3.641 -0.0193  0.5742  0.0649
    8MOL    C31 1865   4.718   3.098   3.572  0.2567 -0.0749  0.0546
    8MOL    C32 1866   4.730   2.875   3.306  0.0658  0.9404 -0.6956
    8MOL    H33 1867   4.865   3.038   3.372  0.3516 -0.1263  0.8871
    8MOL    H34 1868   4.731   2.874   3.582 -0.1746  1.1300  1.0864
    8MOL    H35 1869   4.949   3.084   3.605  0.4389 -0.6979  0.0425
    8MOL    H36 1870   4.849   3.013   3.744  0.3036 -1.5688 -0.6411
    8MOL    H37 1871   4.727   3.176   3.497 -0.6347  0.4913  0.5250
    8MOL    H38 1872   4.631   3.118   3.634  1.7626  0.3196  2.0920
    8MOL    H39 1873   4.685   2.796   3.366  2.5778  0.2533  0.3474
    8MOL    H40 1874   4.776   2.814   3.228  1.1646 -1.6693  1.9131
    8MOL    C41 1875   4.615   2.971   3.257 -0.3405 -0.4979 -0.6291
    8MOL    C42 1876   4.499   2.897   3.193 -0.3131  0.1042 -0.1883
    8MOL    C43 1877   4.360   2.958   3.201 -0.2477 -0.1629  0.0339
    8MOL    C44 1878   4.391   2.827   3.271  0.0782 -0.8163  0.1361
    8MOL    C45 1879   4.673   3.070   3.154  0.2680  0.0033 -0.4261
    8MOL    H46 1880   4.586   3.021   3.350 -2.5292  0.0795 -1.5904
    8MOL    H47 1881   4.520   2.836   3.106  0.0883  2.2658 -1.6252
    8MOL    H48 1882   4.337   3.045   3.262 -0.2037 -0.2994  0.2450
    8MOL    H49 1883   4.307   2.961   3.106 -0.3111 -2.6632 -0.0396
    8MOL    H50 1884   4.338   2.739   3.236 -0.6604  0.1973 -1.3464
    8MOL    H51 1885   4.419   2.842   3.375 -0.7387 -1.6903  0.4915
    8MOL    H52 1886   4.724   3.019   3.072  0.6009 -1.7730  0.8567
    8MOL    H53 1887   4.758   3.117   3.202  1.3486 -2.1849 -0.1182
    8MOL    C54 1888   4.578   3.176   3.094  0.2773  0.9586  0.0649
    8MOL    C55 1889   4.542   3.277   3.199  0.2229  0.7050 -0.2650
    8MOL    C56 1890   4.473   3.408   3.184  0.1955 -0.0418  0.4312
    8MOL    C57 1891   4.613   3.406   3.223  0.1145 -0.5187  0.0307
    8MOL    C58 1892   4.634   3.239   2.966 -0.0710 -0.2843  0.2467
    8MOL    H59 1893   4.487   3.121   3.066  0.9299 -0.3882  0.5499
    8MOL    H60 1894   4.506   3.232   3.292  0.8407 -0.4825 -0.5944
    8MOL    H61 1895   4.444   3.441   3.085 -1.6269  1.1274  1.3105
    8MOL    H62 1896   4.408   3.444   3.264  0.6567  0.4547  0.5829
    8MOL    H63 1897   4.635   3.433   3.326  0.3346 -3.0648  0.7008
    8MOL    H64 1898   4.695   3.427   3.154 -1.0713 -0.9248 -1.5332
    8MOL    H65 1899   4.593   3.338   2.946  2.3807  1.2904  2.5602
    8MOL    H66 1900   4.737   3.270   2.988  0.3092 -0.4189 -1.2983
    8MOL    C67 1901   4.621   3.153   2.832 -0.9570  0.2290 -0.7050
    8MOL    C68 1902   4.470   3.141   2.786 -0.3254 -0.1493  0.1320
    8MOL    C69 1903   4.429   3.043   2.678 -0.1390  0.4003 -0.1029
    8MOL    C70 1904   4.406   3.008   2.819 -0.0668  0.5119  0.2266
    8MOL    C71 1905   4.712   3.204   2.719 -0.4794  0.2062 -0.4556
    8MOL    H72 1906   4.659   3.053   2.851  1.6503  1.2402 -0.3379
    8MOL    H73 1907   4.413   3.233   2.791  1.2453  0.7962  1.0116
    8MOL    H74 1908   4.347   3.067   2.610 -0.3741  0.4718  0.2083
    8MOL    H75 1909   4.509   2.996   2.620 -1.7838  0.1124 -2.1962
    8MOL    H76 1910   4.465   2.936   2.874 -0.9123  0.6737  1.3726
    8MOL    H77 1911   4.297   3.007   2.824 -0.2893  1.7654 -2.9156
    8MOL    H78 1912   4.705   3.129   2.640 -1.5321  0.9918 -1.1139
    8MOL    H79 1913   4.814   3.219   2.754 -0.9247  4.2145 -0.6989
    8MOL    C80 1914   4.685   3.339   2.658  0.4842  0.8644 -0.0583
    8MOL    C81 1915   4.703   3.338   2.503  0.1385  0.6089  0.3311
    8MOL    C82 1916   4.610   3.409   2.416  0.3556  0.3490 -0.2726
    8MOL    C83 1917   4.610   3.254   2.409  0.5862  0.2304  0.3875
    8MOL    C84 1918   4.745   3.462   2.722  0.7020 -0.1565 -0.0916
    8MOL    H85 1919   4.583   3.359   2.692  0.6971  1.8867 -0.0100
    8MOL    H86 1920   4.806   3.340   2.467  0.4694  2.5093  1.3470
    8MOL    H87 1921   4.668   3.466   2.344  1.1415 -0.0076  0.0762
    8MOL    H88 1922   4.536   3.460   2.478  0.0741 -0.4013  0.0187
    8MOL    H89 1923   4.538   3.202   2.472  3.4140 -1.3291  2.4492
    8MOL    H90 1924   4.639   3.217   2.311  1.2605 -1.0818  1.0635
    8MOL    H91 1925   4.773   3.446   2.826 -1.1182  0.7120  0.5660
    8MOL    H92 1926   4.840   3.486   2.674  0.5239  1.3728  0.2824
    8MOL    C93 1927   4.663   3.597   2.705 -0.4976 -0.5714 -0.6443
    8MOL    C94 1928   4.555   3.600   2.811 -0.0325  0.6389  0.4125
    8MOL    C95 1929   4.432   3.687   2.781  0.2332 -0.4891  0.1657
    8MOL    C96 1930   4.416   3.536   2.783 -0.0431 -0.2270 -0.1532
    8MOL    C97 1931   4.758   3.720   2.708  0.2915 -0.2676  0.2490
    8MOL    H98 1932   4.615   3.602   2.607  1.3156 -1.0219 -1.5784
    8MOL    H99 1933   4.592   3.583   2.912  1.4438  0.3859 -0.1536
    8MOL   H100 1934   4.421   3.741   2.875  3.0769  1.8787 -0.7690
    8MOL   H101 1935   4.418   3.738   2.686 -0.1081 -1.3641 -0.2547
    8MOL   H102 1936   4.377   3.483   2.870  1.9449 -1.5829 -0.0485
    8MOL   H103 1937   4.405   3.477   2.693 -1.1727 -2.3871  1.3606
    8MOL   H104 1938   4.838   3.705   2.636  0.2551 -0.7162  0.2973
    8MOL   H105 1939   4.804   3.709   2.807  1.8153  1.3008 -0.2680
    8MOL   C106 1940   4.697   3.859   2.672  0.1326 -0.3025 -0.1019
    8MOL   C107 1941   4.778   3.968   2.743  0.2910  0.4266  0.1470
    8MOL   C108 1942   4.859   3.969   2.867  0.6696  0.1975 -0.2398
    8MOL   C109 1943   4.928   3.993   2.738  0.1573  0.1433 -0.0682
    8MOL   C110 1944   4.690   3.884   2.523  0.0516  0.0735 -0.6725
    8MOL   H111 1945   4.601   3.845   2.722 -0.5424  3.9650 -0.0321
    8MOL   H112 1946   4.722   4.060   2.727 -1.1131 -0.6206 -1.1447
    8MOL   H113 1947   4.861   4.055   2.934 -0.1567  0.1061 -0.0881
    8MOL   H114 1948   4.878   3.872   2.912 -1.3642  0.7717  1.9807
    8MOL   H115 1949   4.992   3.915   2.699 -2.1223 -0.3203 -3.0019
    8MOL   H116 1950   4.952   4.088   2.689  0.7517 -0.2954 -0.6337
    8MOL   H117 1951   4.787   3.925   2.494 -0.1912  1.8589  0.9023
    8MOL   H118 1952   4.676   3.789   2.473 -2.6213 -0.0786  0.3122
    8MOL   C119 1953   4.583   3.983   2.474  0.3084 -0.7065 -0.7682
    8MOL   C120 1954   4.629   4.084   2.363 -0.1696 -0.3663  0.0796
    8MOL   C121 1955   4.729   4.196   2.399  0.3656 -0.5790  0.1464
    8MOL   C122 1956   4.581   4.226   2.374  0.1633  0.4317  0.4456
    8MOL   C123 1957   4.458   3.909   2.422 -0.0577 -1.1273  0.4792
    8MOL   H124 1958   4.557   4.048   2.558  3.9490  0.6862 -0.6390
    8MOL   H125 1959   4.641   4.040   2.264  0.0196  0.1516 -0.1272
    8MOL   H126 1960   4.797   4.219   2.317  0.3447  0.8895  0.5228
    8MOL   H127 1961   4.774   4.200   2.498  1.9055  0.8965 -0.5844
    8MOL   H128 1962   4.536   4.256   2.468  0.2709  1.1963  0.2577
    8MOL   H129 1963   4.576   4.284   2.282 -1.0014 -0.8583 -0.3087
    8MOL   H130 1964   4.479   3.872   2.321  0.5998 -0.8227  0.5002
    8MOL   H131 1965   4.437   3.816   2.473 -3.3659 -1.4119 -1.2796
    8MOL   C132 1966   4.331   3.982   2.434  0.2849  0.4856 -0.1602
    8MOL   C133 1967   4.267   3.952   2.568  0.4334 -0.5068 -0.1926
    8MOL   C134 1968   4.154   4.045   2.629 -0.6573  0.3772 -0.1712
    8MOL   C135 1969   4.285   4.030   2.693  0.1817 -0.4254  0.2298
    8MOL   C136 1970   4.225   3.938   2.330  0.5041  0.5755  0.6106
    8MOL   H137 1971   4.338   4.089   2.415 -0.2815  1.0103  2.3549
    8MOL   H138 1972   4.231   3.850   2.580 -0.7371 -0.1188 -0.3496
    8MOL   H139 1973   4.135   4.141   2.582  0.1507  0.5012 -0.2493
    8MOL   H140 1974   4.080   4.018   2.705 -1.0666  3.2553  0.5114
    8MOL   H141 1975   4.330   4.128   2.687 -0.0315 -0.4267 -1.6461
    8MOL   H142 1976   4.294   3.979   2.789  3.0992  0.3391  0.4003
    8MOL   H143 1977   4.200   3.833   2.343 -1.9729  0.8758 -1.2517
    8MOL   H144 1978   4.130   3.988   2.352  0.4833  1.9477 -2.3329
    8MOL   C145 1979   4.254   3.970   2.182  1.0839  0.3331 -0.4708
    8MOL   C146 1980   4.137   3.908   2.098  0.4777 -0.1326 -0.7799
    8MOL   C147 1981   4.163   3.807   1.987 -0.2078  1.0695 -0.0121
    8MOL   C148 1982   4.100   3.760   2.117  0.2998  0.5807 -0.1185
    8MOL   C149 1983   4.256   4.126   2.155  0.7212  0.2217 -0.6779
    8MOL   H150 1984   4.345   3.924   2.145 -0.0813  0.6468 -3.9483
    8MOL   H151 1985   4.052   3.974   2.083 -0.2302 -0.7171  0.5624
    8MOL   H152 1986   4.094   3.799   1.903  0.6469  1.0171 -0.7224
    8MOL   H153 1987   4.265   3.771   1.972 -0.0502  1.7206 -0.5486
    8MOL   H154 1988   4.163   3.690   2.170 -3.7014 -2.2564  1.1540
    8MOL   H155 1989   3.993   3.736   2.118  0.4874 -0.3128 -0.9939
    8MOL   H156 1990   4.170   4.173   2.204  2.1011  3.3446 -1.1681
    8MOL   H157 1991   4.337   4.167   2.215 -1.2142 -1.2408  3.1245
    8MOL   C158 1992   4.278   4.178   2.013 -0.2803 -0.2700  0.5881
    8MOL   C159 1993   4.431   4.162   1.986 -0.3202  0.0478  0.3355
    8MOL   C160 1994   4.492   4.033   1.940  0.6208  0.5095 -0.0748
    8MOL   C161 1995   4.503   4.155   1.853 -0.6343  0.6555 -0.1784
    8MOL   C162 1996   4.248   4.330   2.003 -0.1948  0.3872 -0.0439
    8MOL   H163 1997   4.219   4.129   1.935  1.2883 -3.4208  1.3225
    8MOL   H164 1998   4.495   4.223   2.050  0.9142 -0.8253 -0.0394
    8MOL   H165 1999   4.426   3.957   1.899 -0.3726  0.9004  0.7540
    8MOL   H166 2000   4.583   4.009   1.994 -0.4400  1.7539  2.3966
    8MOL   H167 2001   4.595   4.212   1.848 -0.0122 -0.3297 -0.0332
    8MOL   H168 2002   4.450   4.142   1.759 -2.1773  2.7205  0.3599
    8MOL   H169 2003   4.319   4.370   1.931  1.7257 -1.9383  0.5008
    8MOL   H170 2004   4.262   4.379   2.099 -0.5622 -1.0318  0.7348
    8MOL   C171 2005   4.106   4.366   1.947  0.8607  0.5794  0.1530
    8MOL   C172 2006   3.996   4.340   2.037  0.6562 -0.0211 -0.1172
    8MOL   C173 2007   3.849   4.346   1.987 -0.7973  1.4771  0.1034
    8MOL   C174 2008   3.915   4.216   2.022 -0.6295  0.0349 -0.3961
    8MOL   C175 2009   4.104   4.518   1.900 -0.1973 -0.2014  0.2756
    8MOL   H176 2010   4.099   4.303   1.858  2.1620 -1.0028  1.1494
    8MOL   H177 2011   4.016   4.355   2.143  0.4796 -1.7620  0.1712
    8MOL   H178 2012   3.771   4.388   2.050 -2.0592 -0.5341 -0.0687
    8MOL   H179 2013   3.837   4.365   1.880 -1.7183  3.3255  0.5161
    8MOL   H180 2014   3.956   4.153   1.945 -1.0506  0.1455 -0.7120
    8MOL   H181 2015   3.907   4.159   2.114  2.4667 -2.0788 -1.3548
    8MOL   H182 2016   4.159   4.579   1.972 -0.4414  0.8345 -0.4100
    8MOL   H183 2017   4.003   4.555   1.911  0.8245  3.1331 -1.0670
    8MOL   C184 2018   4.154   4.540   1.751  0.4035  0.0151 -0.6124
    8MOL   C185 2019   4.215   4.684   1.755  0.3503 -0.3687 -0.5125
    8MOL   C186 2020   4.341   4.720   1.669 -0.4356  0.4781  0.3895
    8MOL   C187 2021   4.353   4.698   1.819  0.4283 -0.1368 -0.2168
    8MOL   C188 2022   4.064   4.536   1.631 -0.2990  0.6848 -0.1548
    8MOL   H189 2023   4.243   4.482   1.726  1.4435  1.3091  0.0193
    8MOL   H190 2024   4.145   4.767   1.765  0.3141 -0.5355  0.7632
    8MOL   H191 2025   4.334   4.823   1.636 -1.0619  1.2350  2.7257
    8MOL   H192 2026   4.361   4.650   1.589  1.1267  1.2571  0.0947
    8MOL   H193 2027   4.381   4.789   1.872  1.1753 -0.3857 -0.1784
    8MOL   H194 2028   4.406   4.610   1.857  0.7568 -0.3725 -1.2064
    8MOL   H195 2029   4.118   4.599   1.560 -2.0777  0.2176 -1.9544
    8MOL   H196 2030   3.968   4.583   1.652 -0.1914 -0.0403  2.1673
    8MOL   C197 2031   4.048   4.404   1.555 -0.1907 -1.5348 -0.3915
    8MOL   C198 2032   4.190   4.347   1.521 -0.5678  0.1560  0.3963
    8MOL   C199 2033   4.199   4.202   1.487 -0.3466 -0.9824  0.3373
    8MOL   C200 2034   4.272   4.252   1.607  0.6462  1.3280 -0.1071
    8MOL   C201 2035   3.963   4.422   1.431 -0.1120  0.1185 -0.0836
    8MOL   H202 2036   3.988   4.340   1.619 -2.0461 -1.3382 -1.8999
    8MOL   H203 2037   4.252   4.423   1.474 -1.6505 -0.9475 -2.9310
    8MOL   H204 2038   4.112   4.137   1.490  0.8988 -2.6389  2.6017
    8MOL   H205 2039   4.267   4.187   1.403  0.3663 -0.0266  0.7296
    8MOL   H206 2040   4.233   4.213   1.701 -3.2743  3.2175 -0.8362
    8MOL   H207 2041   4.380   4.260   1.599  0.9821 -2.0290  0.5823
    8MOL   H208 2042   3.926   4.524   1.422 -2.8191 -0.8669 -0.7064
    8MOL   H209 2043   4.033   4.399   1.350 -0.6172 -1.7662  0.0066
    8MOL   C210 2044   3.843   4.335   1.407  0.2786 -0.2597  0.5612
    8MOL   C211 2045   3.728   4.382   1.499  0.8949 -0.3395 -0.0514
    8MOL   C212 2046   3.593   4.309   1.518 -0.5627 -0.8007  0.2445
    8MOL   C213 2047   3.692   4.329   1.631 -0.1830  0.3012 -0.4698
    8MOL   C214 2048   3.803   4.330   1.254  0.4590  0.0848 -0.0980
    8MOL   H215 2049   3.874   4.236   1.440  1.0992  0.0316  0.6901
    8MOL   H216 2050   3.714   4.486   1.471 -0.7506 -0.9680 -1.6951
    8MOL   H217 2051   3.501   4.365   1.535 -0.9664 -0.9152 -1.3975
    8MOL   H218 2052   3.577   4.202   1.503  1.5528 -1.1739  0.5351
    8MOL   H219 2053   3.644   4.386   1.711  1.4550 -0.0321  0.7763
    8MOL   H220 2054   3.746   4.239   1.658  1.6799  0.2205 -4.2146
    8MOL   H221 2055   3.746   4.420   1.235 -2.1870 -1.1032  1.8847
    8MOL   H222 2056   3.892   4.330   1.190  1.2471 -2.7694  0.8926
    8MOL   C223 2057   3.717   4.209   1.208 -0.4699 -0.0022 -0.2649
    8MOL   C224 2058   3.799   4.078   1.211 -0.0766 -0.7378 -0.2847
    8MOL   C225 2059   3.780   3.979   1.324  0.3185  0.3877  0.3579
    8MOL   C226 2060   3.733   3.949   1.182 -0.1205  0.0130 -0.5631
    8MOL   C227 2061   3.680   4.229   1.061  0.0973  0.1953 -0.5316
    8MOL   H228 2062   3.629   4.190   1.270  0.3397 -0.1717  0.8470
    8MOL   H229 2063   3.903   4.089   1.181 -0.0520  0.3846  0.2049
    8MOL   H230 2064   3.720   4.027   1.401  0.6089  1.6011 -0.1418
    8MOL   H231 2065   3.874   3.941   1.364  1.8500  2.3959 -1.1886
    8MOL   H232 2066   3.798   3.906   1.107 -1.7904 -3.0429 -0.3370
    8MOL   H233 2067   3.630   3.958   1.148  0.0482  3.0321 -0.3972
    8MOL   H234 2068   3.779   4.257   1.025  0.8886  0.1587  1.5220
    8MOL   H235 2069   3.652   4.135   1.013 -0.7389  0.7780 -1.1893
    8MOL   C236 2070   3.570   4.328   1.025  0.4017  0.4857  0.4100
    8MOL   C237 2071   3.437   4.297   1.081  0.1031 -0.3982 -0.2497
    8MOL   C238 2072   3.393   4.344   1.220 -0.7044  0.4538  0.1345
    8MOL   C239 2073   3.336   4.418   1.099  0.1247  0.0777 -0.3068
    8MOL   C240 2074   3.551   4.354   0.874  0.6474 -0.7775  0.5150
    8MOL   H241 2075   3.601   4.424   1.068 -1.2981  0.5251  1.6294
    8MOL   H242 2076   3.391   4.204   1.047  1.3433 -0.9184 -0.5210
    8MOL   H243 2077   3.320   4.281   1.271 -0.0358  1.5482  2.5211
    8MOL   H244 2078   3.463   4.399   1.283 -1.0401  0.4439  0.5161
    8MOL   H245 2079   3.375   4.518   1.083  2.4585 -0.8770 -0.8449
    8MOL   H246 2080   3.237   4.393   1.061  0.7241 -0.4464 -1.5802
    8MOL   H247 2081   3.558   4.264   0.814 -0.2517 -1.4823  1.4452
    8MOL   H248 2082   3.455   4.400   0.850  1.2933 -0.0234 -0.6772
    8MOL   C249 2083   3.637   4.459   0.803  0.0742 -0.2700  0.2182
    8MOL   C250 2084   3.776   4.412   0.764  0.2862 -0.7124  0.0757
    8MOL   C251 2085   3.806   4.292   0.685 -0.3919  0.2314 -0.4739
    8MOL   C252 2086   3.835   4.436   0.624 -0.2577  0.8655 -0.4769
    8MOL   C253 2087   3.650   4.596   0.879  0.1292  0.2247  0.6097
    8MOL   H254 2088   3.590   4.479   0.706  0.5736  2.2196  0.4595
    8MOL   H255 2089   3.849   4.425   0.843 -1.1000  0.0278  1.2663
    8MOL   H256 2090   3.883   4.234   0.736  0.0517  0.2136 -1.1581
    8MOL   H257 2091   3.733   4.227   0.638 -0.9241  0.3257  0.2121
    8MOL   H258 2092   3.937   4.473   0.630  0.1773  0.1075 -2.9002
    8MOL   H259 2093   3.769   4.471   0.545 -1.7210  1.3177  0.9171
    8MOL   H260 2094   3.719   4.594   0.963  0.4850 -0.0523  0.3082
    8MOL   H261 2095   3.556   4.605   0.933 -0.7645  0.1747 -0.8921
    8MOL   H262 2096   3.661   4.675   0.804 -1.3480  0.4710  0.6259
    9MOL     C1 2097   5.630   5.758   1.093  0.1643 -0.2909  0.1514
    9MOL     C2 2098   5.739   5.760   0.989  0.3589 -0.7955 -0.1014
    9MOL     C3 2099   5.727   5.846   0.865  0.2222  0.0948 -0.2961
    9MOL     C4 2100   5.735   5.691   0.858  0.6321  0.0767 -0.0602
    9MOL     C5 2101   5.571   5.621   1.129  0.1439 -0.1034 -0.2426
    9MOL     H6 2102   5.675   5.810   1.178 -0.4415 -0.0547  0.3296
    9MOL     H7 2103   5.840   5.756   1.031  1.4509  2.3193 -2.2585
    9MOL     H8 2104   5.812   5.908   0.838 -0.0697  0.9001  0.5840
    9MOL     H9 2105   5.627   5.884   0.851 -0.5676 -2.7328 -2.8600
    9MOL    H10 2106   5.826   5.655   0.809  0.4165  0.0717 -0.4606
    9MOL    H11 2107   5.641   5.642   0.836  1.0589  0.4563 -3.0003
    9MOL    H12 2108   5.530   5.565   1.046  0.9759 -2.2408  0.7585
    9MOL    H13 2109   5.480   5.639   1.185 -0.0307 -1.1236 -0.1908
    9MOL    H14 2110   5.542   5.820   1.075 -0.2955 -1.3207 -1.1869
    9MOL    C15 2111   5.674   5.525   1.209 -0.5344 -0.2657  0.2041
    9MOL    C16 2112   5.628   5.484   1.356  0.2132  0.4242 -0.4620
    9MOL    C17 2113   5.578   5.590   1.456  0.1978 -0.5234  0.0692
    9MOL    C18 2114   5.712   5.542   1.470 -0.2720 -0.3590 -0.4389
    9MOL    C19 2115   5.722   5.402   1.131  0.3308 -0.8029  0.0494
    9MOL    H20 2116   5.767   5.582   1.217 -0.5917 -0.1281 -0.1192
    9MOL    H21 2117   5.591   5.383   1.369  0.9462 -0.2435 -3.2133
    9MOL    H22 2118   5.495   5.566   1.521 -1.3779  2.4434 -0.7353
    9MOL    H23 2119   5.573   5.692   1.417  0.4777  0.5294  2.6401
    9MOL    H24 2120   5.790   5.617   1.457  0.4714 -0.7772  1.4618
    9MOL    H25 2121   5.728   5.480   1.558  0.9085 -2.6427 -2.2435
    9MOL    H26 2122   5.728   5.422   1.024 -1.3456 -1.8417 -0.2434
    9MOL    H27 2123   5.639   5.332   1.134 -0.3982 -0.0669 -2.1878
    9MOL    C28 2124   5.859   5.347   1.183  0.4353 -0.3264 -0.3459
    9MOL    C29 2125   5.967   5.434   1.122  0.3767 -1.2503 -0.2817
    9MOL    C30 2126   6.025   5.545   1.215  0.8015  0.8606  0.1320
    9MOL    C31 2127   6.111   5.435   1.166  0.3406 -0.7237  0.3635
    9MOL    C32 2128   5.878   5.199   1.158  0.1030  0.8128 -0.1715
    9MOL    H33 2129   5.868   5.369   1.290 -1.2965  0.1397 -0.2775
    9MOL    H34 2130   5.945   5.465   1.020 -1.3205 -0.0868  0.3943
    9MOL    H35 2131   6.008   5.542   1.322 -0.0890  0.7761 -0.0090
    9MOL    H36 2132   6.031   5.647   1.177 -1.1253  1.5748  1.6757
    9MOL    H37 2133   6.127   5.361   1.243  2.3180 -1.8846 -1.1142
    9MOL    H38 2134   6.192   5.454   1.095 -0.4672 -0.7350 -0.5641
    9MOL    H39 2135   5.987   5.186   1.155 -0.1287 -1.2867 -0.0194
    9MOL    H40 2136   5.841   5.163   1.061 -1.5184  0.4922  0.5560
    9MOL    C41 2137   5.832   5.110   1.276 -0.5843 -0.1462  0.3684
    9MOL    C42 2138   5.910   5.144   1.406 -0.4286 -0.5696  0.1372
    9MOL    C43 2139   5.884   5.073   1.538  0.4516  0.1181  0.2664
    9MOL    C44 2140   5.861   5.217   1.528  0.2310 -0.6372  0.1120
    9MOL    C45 2141   5.827   4.964   1.246 -0.0228 -0.8266 -0.0872
    9MOL    H46 2142   5.729   5.145   1.279 -0.3190  0.6764  0.1168
    9MOL    H47 2143   6.014   5.167   1.388 -0.8532  1.8874  0.6541
    9MOL    H48 2144   5.800   5.005   1.548  0.6685  0.0448  1.6043
    9MOL    H49 2145   5.960   5.049   1.613  0.5521  0.6513  0.3343
    9MOL    H50 2146   5.938   5.283   1.566 -0.2941  0.1982 -0.2674
    9MOL    H51 2147   5.758   5.252   1.529 -0.1627 -1.7867  0.4164
    9MOL    H52 2148   5.748   4.953   1.172 -0.0097 -0.7929 -0.1055
    9MOL    H53 2149   5.802   4.911   1.338  1.9418 -2.0887 -0.2333
    9MOL    C54 2150   5.955   4.896   1.188 -0.6767  0.5302 -0.2538
    9MOL    C55 2151   6.072   4.906   1.281 -0.6205 -0.7903 -0.0225
    9MOL    C56 2152   6.188   4.992   1.235  0.0633  0.6808 -0.1895
    9MOL    C57 2153   6.215   4.846   1.255  0.0601 -0.6782 -0.3731
    9MOL    C58 2154   5.915   4.754   1.146 -0.3459  0.0472 -0.4278
    9MOL    H59 2155   5.994   4.948   1.100 -0.0255  0.8243  0.2026
    9MOL    H60 2156   6.054   4.901   1.388  1.7446  1.4922  0.5224
    9MOL    H61 2157   6.197   5.033   1.135 -0.3282  0.4298 -0.3267
    9MOL    H62 2158   6.227   5.060   1.310  1.4647 -0.2037 -0.1046
    9MOL    H63 2159   6.268   4.820   1.346  0.7484  1.1778 -0.2389
    9MOL    H64 2160   6.236   4.784   1.168 -1.1866  1.8774 -2.5826
    9MOL    H65 2161   5.999   4.686   1.156  0.0240  0.5548 -0.0523
    9MOL    H66 2162   5.851   4.720   1.228  1.5858 -1.8706  0.3376
    9MOL    C67 2163   5.857   4.740   1.007  0.0012  0.4515 -0.3439
    9MOL    C68 2164   5.960   4.731   0.895  0.1269 -0.3161 -0.3695
    9MOL    C69 2165   5.934   4.781   0.758  0.1188  0.0911 -0.3759
    9MOL    C70 2166   6.032   4.851   0.853 -0.4087 -0.7450 -1.0609
    9MOL    C71 2167   5.759   4.613   1.004  0.2003  0.0417  0.2486
    9MOL    H72 2168   5.794   4.827   0.988  0.5358  0.5562 -1.6525
    9MOL    H73 2169   6.014   4.637   0.883 -0.5056 -0.3836 -3.0194
    9MOL    H74 2170   5.975   4.712   0.685  0.4271 -1.1166  0.9161
    9MOL    H75 2171   5.837   4.827   0.738  0.7707  1.0177 -1.4241
    9MOL    H76 2172   6.004   4.946   0.898  0.4685 -0.9601 -0.0189
    9MOL    H77 2173   6.139   4.833   0.847  0.5222  3.7675  0.0421
    9MOL    H78 2174   5.696   4.613   1.092 -1.8161  0.4755 -1.1652
    9MOL    H79 2175   5.824   4.526   1.002 -1.8246 -1.4669 -0.4831
    9MOL    C80 2176   5.662   4.607   0.880 -0.2041 -0.7490  0.7902
    9MOL    C81 2177   5.537   4.692   0.912  0.3328 -0.3832 -0.2128
    9MOL    C82 2178   5.457   4.744   0.799  0.5230 -0.1203 -0.0740
    9MOL    C83 2179   5.525   4.844   0.895 -0.0446  0.7790  0.4437
    9MOL    C84 2180   5.612   4.462   0.862  0.4245  0.2528 -0.5505
    9MOL    H85 2181   5.708   4.635   0.785  1.5887 -0.2844  1.7656
    9MOL    H86 2182   5.483   4.649   0.996 -0.7084 -1.0605 -1.2132
    9MOL    H87 2183   5.349   4.733   0.798  0.5873 -0.7246 -0.9974
    9MOL    H88 2184   5.503   4.711   0.706  0.0346  1.6482 -0.9525
    9MOL    H89 2185   5.622   4.886   0.869 -0.4183  1.8286  0.7353
    9MOL    H90 2186   5.461   4.904   0.959 -0.7860 -0.0762  0.5153
    9MOL    H91 2187   5.578   4.428   0.960 -1.3709  2.5754 -0.3163
    9MOL    H92 2188   5.520   4.462   0.803  0.5461  0.8974 -0.7486
    9MOL    C93 2189   5.711   4.368   0.802  0.4513 -0.1807 -0.2617
    9MOL    C94 2190   5.671   4.231   0.831 -0.5080  0.4837  0.6264
    9MOL    C95 2191   5.771   4.117   0.836 -0.0227  0.4654 -0.0054
    9MOL    C96 2192   5.688   4.156   0.961 -0.0405  0.3824  0.0847
    9MOL    C97 2193   5.731   4.375   0.648  0.1370 -0.5034  0.0068
    9MOL    H98 2194   5.807   4.378   0.851 -0.1414 -0.0551  0.8932
    9MOL    H99 2195   5.574   4.204   0.789 -0.9772  0.8728  1.4399
    9MOL   H100 2196   5.739   4.026   0.785 -0.3581  0.1964  0.6732
    9MOL   H101 2197   5.878   4.135   0.842  0.3099 -1.3470 -0.0564
    9MOL   H102 2198   5.600   4.095   0.975 -0.2787  1.0506  1.5912
    9MOL   H103 2199   5.742   4.194   1.048 -0.1997 -2.3696  1.4351
    9MOL   H104 2200   5.699   4.475   0.618 -0.0026  0.2325  2.5252
    9MOL   H105 2201   5.653   4.313   0.603  0.7677 -0.8185 -0.6704
    9MOL   C106 2202   5.873   4.326   0.589  0.0699 -0.6726 -0.1592
    9MOL   C107 2203   5.879   4.345   0.435 -0.3912  0.1075 -0.6359
    9MOL   C108 2204   5.755   4.378   0.344  0.7098 -0.5465 -0.4103
    9MOL   C109 2205   5.859   4.480   0.384 -0.1349 -0.0738 -0.8059
    9MOL   C110 2206   5.997   4.374   0.669 -0.3646 -0.0420 -0.0842
    9MOL   H111 2207   5.882   4.218   0.604  1.1752 -0.5015  0.4960
    9MOL   H112 2208   5.940   4.272   0.382 -0.3618  1.9170 -3.1719
    9MOL   H113 2209   5.755   4.338   0.243 -0.5838  0.2368 -0.7318
    9MOL   H114 2210   5.663   4.364   0.401  1.6093  1.3834  1.5794
    9MOL   H115 2211   5.829   4.555   0.458 -1.3966 -2.5158  1.2290
    9MOL   H116 2212   5.945   4.510   0.325  0.9230 -2.4576 -0.5284
    9MOL   H117 2213   5.985   4.482   0.672 -0.6285  0.0708 -3.4015
    9MOL   H118 2214   5.998   4.335   0.771  2.1209 -1.7848 -0.7438
    9MOL   C119 2215   6.136   4.352   0.608 -0.0833 -0.0728 -0.2614
    9MOL   C120 2216   6.239   4.435   0.680  0.4198 -0.3698  0.3363
    9MOL   C121 2217   6.232   4.586   0.665 -0.2315  0.5681  0.3804
    9MOL   C122 2218   6.344   4.511   0.602 -0.7872  0.4052  0.4686
    9MOL   C123 2219   6.176   4.202   0.619  0.8604  0.0917  0.3632
    9MOL   H124 2220   6.121   4.378   0.503 -2.5738  0.2946  0.1339
    9MOL   H125 2221   6.270   4.405   0.780  0.1700 -0.1600  0.4770
    9MOL   H126 2222   6.250   4.646   0.754  1.5728  0.5548  0.0515
    9MOL   H127 2223   6.159   4.626   0.595 -1.0410  1.3965  1.6891
    9MOL   H128 2224   6.316   4.500   0.498  0.3673 -0.9193  0.2776
    9MOL   H129 2225   6.447   4.535   0.626 -0.7263 -1.2398  1.9818
    9MOL   H130 2226   6.174   4.169   0.723 -3.1284  0.5516  0.4857
    9MOL   H131 2227   6.100   4.145   0.566  0.4300  1.2557 -0.2869
    9MOL   C132 2228   6.307   4.142   0.551 -0.0319 -0.7799 -0.6677
    9MOL   C133 2229   6.427   4.180   0.633 -0.8268  0.4826 -0.3511
    9MOL   C134 2230   6.529   4.077   0.659  0.0688 -0.6826 -0.2314
    9MOL   C135 2231   6.443   4.126   0.778 -0.4158  0.3894 -0.0506
    9MOL   C136 2232   6.329   4.167   0.401 -0.2961  0.4907 -0.2400
    9MOL   H137 2233   6.289   4.036   0.566  0.6512 -0.5330  2.2477
    9MOL   H138 2234   6.471   4.279   0.624  0.5018  0.1702  2.2013
    9MOL   H139 2235   6.502   3.980   0.618 -1.9389 -0.2215 -0.0533
    9MOL   H140 2236   6.624   4.114   0.622 -0.6706  0.1905 -1.2931
    9MOL   H141 2237   6.373   4.056   0.822  0.3792 -1.1266 -1.1446
    9MOL   H142 2238   6.506   4.180   0.848 -1.5215  2.1691 -0.3908
    9MOL   H143 2239   6.343   4.275   0.388  3.1646  0.0486 -0.8334
    9MOL   H144 2240   6.424   4.122   0.371 -0.1448  1.0372 -0.6028
    9MOL   C145 2241   6.214   4.099   0.324  0.0953  0.0924  0.0364
    9MOL   C146 2242   6.203   4.165   0.183  0.0695 -0.0516  0.0298
    9MOL   C147 2243   6.065   4.178   0.123 -0.1043  0.3650 -0.7283
    9MOL   C148 2244   6.142   4.304   0.159  0.4160 -0.4796 -0.5401
    9MOL   C149 2245   6.233   3.949   0.312 -0.2915  0.2974 -0.1892
    9MOL   H150 2246   6.121   4.132   0.372  0.0104 -0.2405  0.0992
    9MOL   H151 2247   6.281   4.145   0.110 -0.5054  0.2687 -0.6817
    9MOL   H152 2248   6.060   4.137   0.023 -1.0851  0.2720 -0.6476
    9MOL   H153 2249   5.982   4.158   0.190 -0.2273  0.0659 -0.9704
    9MOL   H154 2250   6.124   4.361   0.250 -1.7313  2.6818 -2.8094
    9MOL   H155 2251   6.172   4.373   0.080  0.8311 -0.6853 -0.5645
    9MOL   H156 2252   6.322   3.936   0.249 -1.9621 -1.7067 -2.1898
    9MOL   H157 2253   6.276   3.904   0.402 -0.6848  0.8943  0.2996
    9MOL   C158 2254   6.110   3.863   0.262 -0.2371  0.1514 -0.7369
    9MOL   C159 2255   5.993   3.870   0.350 -0.0542  0.0152 -0.3298
    9MOL   C160 2256   5.876   3.953   0.307  0.1036 -0.7370  0.1643
    9MOL   C161 2257   5.860   3.807   0.307  1.0856 -0.8673  0.5294
    9MOL   C162 2258   6.146   3.714   0.246  0.3766  0.3525 -0.0073
    9MOL   H163 2259   6.087   3.911   0.167  1.7199 -2.4852 -2.6095
    9MOL   H164 2260   6.005   3.881   0.458 -0.7754  2.4263 -0.4613
    9MOL   H165 2261   5.868   3.983   0.202  0.0074 -1.0062  0.0944
    9MOL   H166 2262   5.816   4.015   0.374  0.1992  1.4094 -1.6540
    9MOL   H167 2263   5.813   3.754   0.390  0.8757  0.4759  1.2811
    9MOL   H168 2264   5.865   3.754   0.212  0.0530  0.0724 -0.0598
    9MOL   H169 2265   6.062   3.648   0.266  1.0136 -0.1106  1.1964
    9MOL   H170 2266   6.206   3.691   0.334  0.5751  1.4630  0.1492
    9MOL   C171 2267   6.214   3.685   0.105 -0.2464 -0.0535  0.2586
    9MOL   C172 2268   6.315   3.573   0.123  0.4991  0.9670  0.1527
    9MOL   C173 2269   6.439   3.558   0.031  0.6075  0.5873 -0.2208
    9MOL   C174 2270   6.461   3.604   0.171  0.0935 -0.2108 -0.7051
    9MOL   C175 2271   6.105   3.645   0.001  0.2218 -0.0432 -0.2892
    9MOL   H176 2272   6.263   3.774   0.066 -2.1200  1.0230  0.3018
    9MOL   H177 2273   6.278   3.473   0.145  2.0926  0.2916 -0.1623
    9MOL   H178 2274   6.486   3.462   0.011  1.8726  1.3578 -1.0333
    9MOL   H179 2275   6.449   3.634   7.793 -1.3095  1.1402  0.0378
    9MOL   H180 2276   6.487   3.710   0.181 -1.9327  0.2873 -0.5688
    9MOL   H181 2277   6.484   3.532   0.250  2.2589  0.1498 -0.9558
    9MOL   H182 2278   6.014   3.705   0.012  0.3115  0.0991 -0.3217
    9MOL   H183 2279   6.071   3.543   0.016  1.9251 -0.5047  0.4898
    9MOL   C184 2280   6.146   3.668   7.697  0.8063 -0.3809  0.2441
    9MOL   C185 2281   6.132   3.812   7.656  0.1612  0.1766  0.3694
    9MOL   C186 2282   6.215   3.877   7.537  0.0664 -0.0001 -0.5615
    9MOL   C187 2283   6.237   3.920   7.679  1.2540  0.3551  0.3742
    9MOL   C188 2284   6.079   3.569   7.593 -0.2688  0.2019  0.7881
    9MOL   H189 2285   6.254   3.654   7.697  0.8597 -0.2097 -2.2366
    9MOL   H190 2286   6.029   3.846   7.661 -0.1183 -0.0414 -2.7320
    9MOL   H191 2287   6.180   3.955   7.469  2.8881  1.1633 -0.7415
    9MOL   H192 2288   6.294   3.820   7.490 -0.6013 -1.8290  0.5030
    9MOL   H193 2289   6.205   4.016   7.718  1.1651 -0.1373  1.5209
    9MOL   H194 2290   6.337   3.889   7.710  1.6101  1.5525  0.4441
    9MOL   H195 2291   6.087   3.606   7.491  0.2580 -2.4014 -0.1337
    9MOL   H196 2292   5.975   3.566   7.625 -0.5614 -1.0460 -0.2702
    9MOL   C197 2293   6.131   3.427   7.602 -0.1085  0.5142  0.1857
    9MOL   C198 2294   6.211   3.376   7.479 -0.8567  0.2848  0.1915
    9MOL   C199 2295   6.352   3.328   7.497  0.5836  0.4815 -0.0521
    9MOL   C200 2296   6.322   3.457   7.417 -0.2774  0.1527  0.3420
    9MOL   C201 2297   6.017   3.325   7.631  0.2762  0.0726 -0.1770
    9MOL   H202 2298   6.199   3.424   7.688  0.9652  1.5657 -0.6044
    9MOL   H203 2299   6.148   3.314   7.415 -1.4205  0.0949  0.9297
    9MOL   H204 2300   6.399   3.325   7.595 -1.3607 -0.7611  0.8712
    9MOL   H205 2301   6.374   3.236   7.442  0.0790 -0.5307  1.4034
    9MOL   H206 2302   6.360   3.550   7.458 -1.7275  1.5881 -1.4833
    9MOL   H207 2303   6.348   3.449   7.311 -0.9519  3.1232 -0.0802
    9MOL   H208 2304   5.970   3.362   7.722 -1.1439 -1.3255 -0.3293
    9MOL   H209 2305   5.949   3.341   7.547 -0.1166 -0.7961 -0.0300
    9MOL   C210 2306   6.056   3.178   7.664 -0.3966  0.2536  0.4750
    9MOL   C211 2307   6.153   3.176   7.784 -0.1698  0.3662 -0.0879
    9MOL   C212 2308   6.227   3.046   7.830 -0.2861  0.6343 -0.3647
    9MOL   C213 2309   6.305   3.155   7.762  0.1178  0.3420 -0.2139
    9MOL   C214 2310   5.933   3.082   7.694  0.2552  0.3794  0.1283
    9MOL   H215 2311   6.108   3.137   7.577  2.1983  0.2920  1.9564
    9MOL   H216 2312   6.121   3.237   0.029 -1.0217 -3.0059  2.1457
    9MOL   H217 2313   6.250   3.033   0.096 -1.0078  0.9696 -0.1553
    9MOL   H218 2314   6.220   2.955   7.771  0.8166 -1.0804  2.0819
    9MOL   H219 2315   6.362   3.227   7.821  0.9714 -0.0635 -0.5323
    9MOL   H220 2316   6.353   3.119   7.671 -0.6120  0.0644 -0.4862
    9MOL   H221 2317   5.976   2.987   7.726 -0.0194  0.5153  0.9112
    9MOL   H222 2318   5.874   3.119   7.778  0.0566  1.0340 -0.2958
    9MOL   C223 2319   5.823   3.049   7.585 -0.0104 -0.3662  0.5295
    9MOL   C224 2320   5.704   2.997   7.646  0.3766  0.3262  0.1629
    9MOL   C225 2321   5.593   3.075   7.711  0.7262 -0.4648  0.1220
    9MOL   C226 2322   5.571   2.999   7.577 -0.3946 -0.2269 -0.0360
    9MOL   C227 2323   5.866   2.960   7.468 -0.2075  0.3502  0.4467
    9MOL   H228 2324   5.800   3.144   7.537  0.3431 -1.0763 -1.0857
    9MOL   H229 2325   5.726   2.905   7.701 -1.0510  0.3923  0.8703
    9MOL   H230 2326   5.594   3.184   7.707 -0.5564 -0.4972 -1.7604
    9MOL   H231 2327   5.542   3.033   7.798  3.3553 -2.0206  0.9692
    9MOL   H232 2328   5.504   2.913   7.582 -1.5203  0.5321 -1.5214
    9MOL   H233 2329   5.556   3.065   7.492 -0.8796  1.0055  1.0025
    9MOL   H234 2330   5.942   2.893   7.509 -0.2021  0.8365  1.2578
    9MOL   H235 2331   5.782   2.894   7.443 -0.3782 -0.0735  2.0385
    9MOL   C236 2332   5.912   3.028   7.334  0.1435  0.6170  0.2872
    9MOL   C237 2333   5.797   3.073   7.260 -0.6698 -0.5105  0.4328
    9MOL   C238 2334   5.761   3.220   7.275 -0.4549 -0.1020  0.2290
    9MOL   C239 2335   5.819   3.171   7.145 -0.0963 -0.0129  0.2151
    9MOL   C240 2336   5.988   2.927   7.247 -0.5556 -0.3977 -0.2560
    9MOL   H241 2337   5.972   3.114   7.363 -0.5927  1.1150  0.3163
    9MOL   H242 2338   5.712   3.009   7.237  0.8667 -2.1493 -0.7004
    9MOL   H243 2339   5.653   3.231   7.269 -0.3015  0.9522 -0.5962
    9MOL   H244 2340   5.820   3.300   7.321  0.8223 -0.8742 -0.0313
    9MOL   H245 2341   5.918   3.205   7.115 -0.2060  0.7227  0.6933
    9MOL   H246 2342   5.751   3.183   7.061 -0.3360  0.5449  0.4887
    9MOL   H247 2343   5.921   2.842   7.253 -0.9571 -0.0658  0.0124
    9MOL   H248 2344   5.994   2.959   7.143 -1.7346 -1.0368 -0.5346
    9MOL   C249 2345   6.125   2.883   7.297 -0.1587 -0.2867  0.6461
    9MOL   C250 2346   6.239   2.976   7.254  0.5101  0.3294 -0.3034
    9MOL   C251 2347   6.264   3.008   7.112  0.3641 -0.2222  0.9348
    9MOL   C252 2348   6.229   3.120   7.208  0.8559 -0.1714  0.0705
    9MOL   C253 2349   6.168   2.741   7.256 -0.5514  0.3770  0.2442
    9MOL   H254 2350   6.127   2.889   7.406 -0.7052 -1.4649  0.7243
    9MOL   H255 2351   6.332   2.949   7.304 -0.3668 -0.4678  0.9089
    9MOL   H256 2352   6.368   3.002   7.080 -0.4039  0.9971 -2.0425
    9MOL   H257 2353   6.192   2.971   7.040 -0.0451  1.3256  0.5346
    9MOL   H258 2354   6.306   3.191   7.238 -0.1348  1.8847 -2.1598
    9MOL   H259 2355   6.130   3.165   7.202  1.8806  1.7663 -3.1075
    9MOL   H260 2356   6.120   2.667   7.320  2.6838 -1.6885  0.3856
    9MOL   H261 2357   6.273   2.720   7.276 -0.7369 -0.2620  0.5765
    9MOL   H262 2358   6.156   2.732   7.148 -2.0381  0.4979  0.3883
   10MOL     C1 2359   3.992   0.986   2.824 -0.4965  0.3295  0.0851
   10MOL     C2 2360   4.091   1.058   2.738 -0.5242 -0.3545  0.0333
   10MOL     C3 2361   4.160   0.979   2.625 -0.1592  0.9152  0.7120
   10MOL     C4 2362   4.243   1.020   2.741  0.4541  0.0212 -0.2852
   10MOL     C5 2363   3.849   1.025   2.786  0.6798  0.0622  0.3796
   10MOL     H6 2364   4.003   0.878   2.816  0.8546  0.2321  2.8853
   10MOL     H7 2365   4.066   1.163   2.727  3.2197  0.6139  0.2519
   10MOL     H8 2366   4.130   0.875   2.620  2.3541  0.2197 -1.3147
   10MOL     H9 2367   4.159   1.034   2.530 -0.2144 -0.6292 -0.1996
   10MOL    H10 2368   4.315   1.095   2.712  0.5917 -0.0144 -0.0391
   10MOL    H11 2369   4.269   0.953   2.823 -3.7536 -3.1347 -1.3754
   10MOL    H12 2370   3.835   1.022   2.677  0.9019 -0.6861  0.3659
   10MOL    H13 2371   3.817   1.124   2.819 -1.8960 -0.5872 -0.0282
   10MOL    H14 2372   3.997   1.015   2.929  1.6603  0.0971  0.0628
   10MOL    C15 2373   3.739   0.937   2.850  0.7441  0.1853  0.0089
   10MOL    C16 2374   3.726   0.961   3.001 -0.0603 -0.3543 -0.2096
   10MOL    C17 2375   3.833   0.901   3.091  0.0930 -0.3599  0.2700
   10MOL    C18 2376   3.686   0.855   3.092  0.7308  0.3544 -0.8668
   10MOL    C19 2377   3.595   0.945   2.787 -0.1076 -0.2319 -0.1274
   10MOL    H20 2378   3.774   0.834   2.843  0.0835 -0.0570  0.2598
   10MOL    H21 2379   3.716   1.065   3.030  1.0871 -0.4397  0.5099
   10MOL    H22 2380   3.878   0.958   3.172  0.7235  0.3553 -0.5834
   10MOL    H23 2381   3.884   0.810   3.061 -0.1573  0.0754 -1.5061
   10MOL    H24 2382   3.658   0.761   3.045 -0.0041  0.2991 -0.3066
   10MOL    H25 2383   3.613   0.893   3.163  2.2895 -0.7930  1.4262
   10MOL    H26 2384   3.582   1.053   2.789 -2.2332 -0.4653  0.3178
   10MOL    H27 2385   3.517   0.899   2.848 -0.8095 -1.1667 -1.7024
   10MOL    C28 2386   3.582   0.886   2.648  0.9351  0.1982 -0.4361
   10MOL    C29 2387   3.453   0.943   2.583  0.2399  0.4675 -0.1334
   10MOL    C30 2388   3.321   0.906   2.643 -0.3069  1.0739 -0.1182
   10MOL    C31 2389   3.365   1.052   2.636  0.0738  0.7315  0.6588
   10MOL    C32 2390   3.603   0.726   2.645 -0.3700 -0.1018 -0.2019
   10MOL    H33 2391   3.667   0.923   2.591  1.3703 -1.0107 -0.5962
   10MOL    H34 2392   3.447   0.936   2.475 -2.1378  1.5387 -0.1083
   10MOL    H35 2393   3.316   0.868   2.745 -1.7551  0.7842 -0.2854
   10MOL    H36 2394   3.245   0.862   2.579 -0.8118 -0.7742  1.6997
   10MOL    H37 2395   3.357   1.087   2.739 -3.2875 -1.4320  1.2215
   10MOL    H38 2396   3.321   1.114   2.559 -0.4392  0.1579  0.4868
   10MOL    H39 2397   3.517   0.683   2.696  0.3115  1.2165  2.1141
   10MOL    H40 2398   3.683   0.695   2.713  0.5570  0.9764 -0.7970
   10MOL    C41 2399   3.604   0.652   2.510  0.2200 -0.3046 -0.0541
   10MOL    C42 2400   3.578   0.504   2.526 -0.2530  0.0177  0.0659
   10MOL    C43 2401   3.506   0.424   2.417  0.1586  0.3676 -0.1023
   10MOL    C44 2402   3.433   0.464   2.548 -0.1821 -0.2850  0.2197
   10MOL    C45 2403   3.732   0.680   2.427  0.0126 -0.0198  0.1974
   10MOL    H46 2404   3.522   0.688   2.448  0.6205 -2.2988 -1.7716
   10MOL    H47 2405   3.655   0.452   2.584  0.8201 -1.0423 -2.2430
   10MOL    H48 2406   3.469   0.478   2.330  1.7990 -1.1846 -1.7880
   10MOL    H49 2407   3.539   0.320   2.412 -2.3624 -0.6598  2.7642
   10MOL    H50 2408   3.406   0.373   2.601 -0.5981  0.8563  1.9925
   10MOL    H51 2409   3.361   0.545   2.550  2.1547  2.0672 -3.5727
   10MOL    H52 2410   3.766   0.586   2.383  1.9460  1.3977 -1.4035
   10MOL    H53 2411   3.814   0.700   2.495  0.2788 -0.2436 -0.0537
   10MOL    C54 2412   3.740   0.786   2.307  0.3126  0.0985  0.0954
   10MOL    C55 2413   3.881   0.812   2.254 -0.2382 -0.2178 -0.6376
   10MOL    C56 2414   3.974   0.895   2.341  0.1460  0.2232  0.3054
   10MOL    C57 2415   3.926   0.956   2.211  0.5025 -0.1938  0.1389
   10MOL    C58 2416   3.656   0.744   2.186 -0.1321 -0.8719  0.0758
   10MOL    H59 2417   3.709   0.881   2.350 -1.7511  0.2483 -1.6581
   10MOL    H60 2418   3.936   0.726   2.216 -1.6318 -1.3800 -0.0765
   10MOL    H61 2419   3.933   0.929   2.436  0.6719  2.2543 -0.1688
   10MOL    H62 2420   4.078   0.862   2.342  0.0874  0.0330  0.1343
   10MOL    H63 2421   4.005   0.962   2.136  1.2962  1.7171  1.0874
   10MOL    H64 2422   3.857   1.041   2.208  0.3227 -0.2824  1.8098
   10MOL    H65 2423   3.727   0.690   2.122 -1.2061  0.2041 -2.1037
   10MOL    H66 2424   3.582   0.670   2.215  1.3026 -1.8839  1.2476
   10MOL    C67 2425   3.599   0.868   2.112  0.1561  0.1415 -0.0724
   10MOL    C68 2426   3.581   0.825   1.966  0.3425 -0.0551 -0.0151
   10MOL    C69 2427   3.517   0.691   1.924  0.4101  0.6334  0.5688
   10MOL    C70 2428   3.443   0.816   1.898  0.2656  0.5292 -0.1083
   10MOL    C71 2429   3.474   0.930   2.174  0.1753  0.1677 -0.4005
   10MOL    H72 2430   3.682   0.938   2.111  2.4951 -2.5554 -0.4551
   10MOL    H73 2431   3.670   0.849   1.909  0.5643 -1.9414 -0.4833
   10MOL    H74 2432   3.562   0.644   1.837  1.6065 -0.5754  1.8034
   10MOL    H75 2433   3.452   0.633   1.989 -1.5662 -0.5783 -2.4209
   10MOL    H76 2434   3.354   0.829   1.959  1.8682  0.6013  2.2746
   10MOL    H77 2435   3.435   0.840   1.792  0.9511 -0.8335 -0.4778
   10MOL    H78 2436   3.482   0.945   2.282 -0.3543  1.3025 -0.5117
   10MOL    H79 2437   3.381   0.876   2.157 -0.6594  1.7542 -1.0238
   10MOL    C80 2438   3.439   1.067   2.120  0.1682 -0.1831  0.4526
   10MOL    C81 2439   3.550   1.169   2.156  0.1247  0.2324 -0.8300
   10MOL    C82 2440   3.556   1.298   2.077  0.0011  0.5730  0.2073
   10MOL    C83 2441   3.664   1.192   2.061 -0.2787 -0.5466  0.2375
   10MOL    C84 2442   3.308   1.118   2.187  0.3085 -0.4563 -0.7472
   10MOL    H85 2443   3.434   1.059   2.012 -1.4412 -1.1650  0.5791
   10MOL    H86 2444   3.551   1.182   2.264 -1.2165 -2.0882 -0.5021
   10MOL    H87 2445   3.583   1.389   2.130 -2.0127  1.0178  0.5013
   10MOL    H88 2446   3.501   1.305   1.983  0.7533  3.6372 -0.0437
   10MOL    H89 2447   3.675   1.141   1.965  0.7205  0.4703 -0.1960
   10MOL    H90 2448   3.758   1.211   2.111  0.5269  0.7062 -1.7170
   10MOL    H91 2449   3.248   1.028   2.199  0.3369 -0.2470  0.9767
   10MOL    H92 2450   3.334   1.148   2.288 -0.7122  0.9806 -0.8853
   10MOL    C93 2451   3.217   1.227   2.125 -0.1648  0.0190 -0.1204
   10MOL    C94 2452   3.144   1.171   2.000 -0.4456  1.3996  0.6637
   10MOL    C95 2453   3.107   1.274   1.892 -0.0020  0.1559  0.0859
   10MOL    C96 2454   3.212   1.172   1.869 -0.4915  0.0823 -0.0407
   10MOL    C97 2455   3.120   1.271   2.238 -0.2479 -0.2629 -0.1032
   10MOL    H98 2456   3.288   1.304   2.094  0.1510  0.9328  2.7387
   10MOL    H99 2457   3.079   1.089   2.029  0.1623  1.2478  1.6310
   10MOL   H100 2458   3.019   1.264   1.829  1.0130  2.4156 -1.7308
   10MOL   H101 2459   3.133   1.377   1.912 -0.9269  0.3297  0.4014
   10MOL   H102 2460   3.199   1.086   1.803  1.2307  0.3821 -0.8029
   10MOL   H103 2461   3.312   1.214   1.869 -0.5651  0.2742 -0.7632
   10MOL   H104 2462   3.170   1.272   2.335  1.1602  0.1322 -0.8264
   10MOL   H105 2463   3.044   1.196   2.262 -1.0934  0.9301  1.0218
   10MOL   C106 2464   3.046   1.407   2.208 -0.3500 -0.2314 -0.1511
   10MOL   C107 2465   2.896   1.393   2.239 -0.4747  0.3696 -0.4834
   10MOL   C108 2466   2.783   1.462   2.163 -0.6103 -0.2625  0.0360
   10MOL   C109 2467   2.799   1.313   2.152  0.5022 -0.3781  0.3954
   10MOL   C110 2468   3.100   1.538   2.283 -0.0695  1.3285  0.2809
   10MOL   H111 2469   3.059   1.426   2.101  0.1918 -0.0359 -0.0495
   10MOL   H112 2470   2.878   1.382   2.345  0.9511 -2.9435 -0.5258
   10MOL   H113 2471   2.707   1.503   2.228 -1.0421  0.4603 -0.9090
   10MOL   H114 2472   2.798   1.510   2.066  0.2147 -0.5464  0.0211
   10MOL   H115 2473   2.845   1.276   2.061 -1.9796 -2.1865 -0.1887
   10MOL   H116 2474   2.724   1.251   2.201  0.9729 -1.1822  0.1121
   10MOL   H117 2475   3.026   1.618   2.272 -1.2717  0.3331  1.0257
   10MOL   H118 2476   3.105   1.511   2.389 -1.7652  0.8072  0.2341
   10MOL   C119 2477   3.235   1.586   2.255 -0.6778 -0.1652  0.6337
   10MOL   C120 2478   3.340   1.497   2.316 -0.1200  0.1757 -0.3575
   10MOL   C121 2479   3.354   1.493   2.465  0.3998 -0.7366  0.6013
   10MOL   C122 2480   3.457   1.565   2.382  0.0022  0.0855 -0.6009
   10MOL   C123 2481   3.265   1.628   2.108 -0.8664  0.1008 -0.5040
   10MOL   H124 2482   3.241   1.676   2.317 -1.8649  1.5373 -1.6263
   10MOL   H125 2483   3.362   1.409   2.256  1.1980 -0.6847  1.3483
   10MOL   H126 2484   3.370   1.395   2.510  1.4531 -0.5428  0.6524
   10MOL   H127 2485   3.299   1.568   2.522  0.6001  1.5711 -2.1397
   10MOL   H128 2486   3.451   1.674   2.379  0.4204  0.1747  1.1219
   10MOL   H129 2487   3.552   1.518   2.356  0.5302  0.2633  0.9354
   10MOL   H130 2488   3.372   1.647   2.098 -1.2916  2.9311 -0.0002
   10MOL   H131 2489   3.235   1.541   2.049 -2.0133 -0.6502  1.1401
   10MOL   C132 2490   3.197   1.755   2.053  0.5470  0.1500  0.0697
   10MOL   C133 2491   3.110   1.723   1.931  0.6634  0.0023  0.4849
   10MOL   C134 2492   3.007   1.827   1.901 -0.0697 -0.0678  0.5557
   10MOL   C135 2493   2.956   1.690   1.936 -0.5094 -0.5505 -0.1816
   10MOL   C136 2494   3.304   1.865   2.031 -0.0116 -0.3016 -1.0854
   10MOL   H137 2495   3.134   1.789   2.136 -0.5950 -2.0893  0.1485
   10MOL   H138 2496   3.167   1.672   1.854  0.3961  0.3987  0.0243
   10MOL   H139 2497   3.012   1.899   1.982 -0.2974  0.8180 -0.1987
   10MOL   H140 2498   3.038   1.864   1.803  0.1573 -0.9231  0.2996
   10MOL   H141 2499   2.917   1.688   2.038  2.3338  0.6994  1.0006
   10MOL   H142 2500   2.933   1.617   1.859  0.2605 -0.8608 -0.1236
   10MOL   H143 2501   3.380   1.838   1.958  0.3835  0.6947 -1.0488
   10MOL   H144 2502   3.248   1.942   1.978 -0.3754 -0.1864 -0.5446
   10MOL   C145 2503   3.367   1.924   2.161  0.3079  0.2893 -0.4679
   10MOL   C146 2504   3.511   1.975   2.124 -0.6055  0.1226  0.3498
   10MOL   C147 2505   3.619   1.979   2.237 -0.3330  0.3718  0.4435
   10MOL   C148 2506   3.627   1.879   2.124  0.4762  0.2582  0.2606
   10MOL   C149 2507   3.276   2.032   2.226  0.0610 -0.3392  0.5422
   10MOL   H150 2508   3.371   1.849   2.241 -0.9891  1.3447  0.5994
   10MOL   H151 2509   3.511   2.049   2.045 -0.4098 -0.8096 -0.5340
   10MOL   H152 2510   3.688   2.064   2.241  0.9631 -0.5794 -1.1843
   10MOL   H153 2511   3.593   1.935   2.333 -0.7503 -0.4819 -0.0557
   10MOL   H154 2512   3.604   1.778   2.156  1.2363  0.0046  0.0052
   10MOL   H155 2513   3.692   1.888   2.038  0.0163 -0.7588 -0.1945
   10MOL   H156 2514   3.268   2.112   2.152 -1.0779 -1.3248 -0.4239
   10MOL   H157 2515   3.172   1.999   2.225 -0.6001  1.6649  0.6994
   10MOL   C158 2516   3.305   2.093   2.364  0.2620  1.0263  0.1805
   10MOL   C159 2517   3.177   2.088   2.453  0.1560  0.0956 -0.5225
   10MOL   C160 2518   3.114   1.961   2.481  0.2042  0.2782 -0.0100
   10MOL   C161 2519   3.178   2.034   2.595  0.1905 -0.0594  0.3005
   10MOL   C162 2520   3.373   2.236   2.354 -0.2461 -0.4919 -0.2127
   10MOL   H163 2521   3.376   2.029   2.417  0.0463  0.9092  0.3287
   10MOL   H164 2522   3.102   2.162   2.426 -0.6662 -1.0377 -1.4146
   10MOL   H165 2523   3.160   1.866   2.457 -0.1765  0.1201 -0.1237
   10MOL   H166 2524   3.006   1.964   2.466  0.2692  1.1553 -0.2939
   10MOL   H167 2525   3.136   2.099   2.672  1.1760  1.4026 -0.3763
   10MOL   H168 2526   3.264   1.990   2.644  1.0154 -0.5596 -1.5603
   10MOL   H169 2527   3.309   2.301   2.294  0.1774 -0.7561 -0.9668
   10MOL   H170 2528   3.450   2.240   2.277 -1.0210  0.6571 -0.9511
   10MOL   C171 2529   3.421   2.310   2.476  0.1203  0.0831 -1.0747
   10MOL   C172 2530   3.558   2.260   2.516  0.1733  0.2357  1.2008
   10MOL   C173 2531   3.604   2.267   2.655  0.3657 -0.4834 -0.2565
   10MOL   C174 2532   3.591   2.130   2.589 -0.8590 -0.2162  0.0263
   10MOL   C175 2533   3.438   2.461   2.457  0.7306  0.0355 -0.0171
   10MOL   H176 2534   3.365   2.299   2.569 -0.0071  2.3346 -0.8464
   10MOL   H177 2535   3.634   2.299   2.449  0.3994  1.7694  2.3375
   10MOL   H178 2536   3.701   2.304   2.688 -0.0458 -0.4102  0.8934
   10MOL   H179 2537   3.525   2.280   2.729  1.1299  2.5271  0.1216
   10MOL   H180 2538   3.522   2.055   2.627  0.2739 -1.4047 -0.2352
   10MOL   H181 2539   3.685   2.089   2.551 -0.7190  0.3883 -0.2892
   10MOL   H182 2540   3.508   2.474   2.375  1.5378  1.3306  0.8603
   10MOL   H183 2541   3.502   2.496   2.538  2.2359 -1.4822 -0.5173
   10MOL   C184 2542   3.305   2.546   2.449  0.4625  0.1171 -0.1206
   10MOL   C185 2543   3.352   2.688   2.403 -0.2377 -0.3579  0.6797
   10MOL   C186 2544   3.276   2.782   2.315  0.0918 -0.4851  0.5837
   10MOL   C187 2545   3.396   2.708   2.262  0.8415 -0.2125 -0.1030
   10MOL   C188 2546   3.217   2.556   2.583 -0.3865  0.5474 -0.2416
   10MOL   H189 2547   3.244   2.502   2.370  2.6699 -0.6008 -1.4927
   10MOL   H190 2548   3.419   2.737   2.473  0.3028 -1.0752  0.6782
   10MOL   H191 2549   3.288   2.890   2.321 -0.0910 -0.3284 -1.6596
   10MOL   H192 2550   3.175   2.752   2.285  0.7211 -2.9043  0.7496
   10MOL   H193 2551   3.477   2.778   2.242  0.0813  0.7250  0.0889
   10MOL   H194 2552   3.388   2.614   2.208 -1.4175 -1.0854  1.6689
   10MOL   H195 2553   3.166   2.462   2.602 -0.8210  0.5932 -1.1879
   10MOL   H196 2554   3.136   2.624   2.558  0.8087  2.2562  0.3858
   10MOL   C197 2555   3.283   2.582   2.714 -0.5396  0.2204  0.5494
   10MOL   C198 2556   3.197   2.520   2.823  0.6275 -0.4786 -0.3701
   10MOL   C199 2557   3.273   2.440   2.921 -0.0950  0.2515 -0.1158
   10MOL   C200 2558   3.175   2.370   2.836 -0.0135 -0.5645  0.0931
   10MOL   C201 2559   3.301   2.733   2.742 -0.6180  0.1854 -0.1353
   10MOL   H202 2560   3.384   2.543   2.723  0.4632  2.2481 -1.4400
   10MOL   H203 2561   3.124   2.585   2.872  1.5451  0.0783  0.2672
   10MOL   H204 2562   3.373   2.415   2.888 -0.1939 -0.8292  0.3518
   10MOL   H205 2563   3.257   2.435   3.029  4.3011 -0.2877  0.5827
   10MOL   H206 2564   3.201   2.307   2.752 -1.5843 -1.4596  0.2687
   10MOL   H207 2565   3.079   2.340   2.879 -0.4718  0.2375 -0.3447
   10MOL   H208 2566   3.333   2.782   2.650  1.1439  0.7250  0.7349
   10MOL   H209 2567   3.203   2.771   2.768 -0.3298  0.2426  0.8953
   10MOL   C210 2568   3.393   2.779   2.857  0.1369  0.6201  0.6519
   10MOL   C211 2569   3.535   2.739   2.834  0.3844 -0.2187  0.3162
   10MOL   C212 2570   3.644   2.781   2.927  0.2827  0.4785 -0.4725
   10MOL   C213 2571   3.609   2.638   2.924 -0.2302 -0.4583 -0.1684
   10MOL   C214 2572   3.381   2.931   2.883  0.1868  0.6286 -0.6822
   10MOL   H215 2573   3.372   2.713   2.941  1.0142  0.8377  1.0561
   10MOL   H216 2574   3.577   2.762   2.736  2.2188 -1.5576  0.7453
   10MOL   H217 2575   3.739   2.818   2.890 -0.0750  2.0931  0.1894
   10MOL   H218 2576   3.607   2.830   3.017 -1.0060  0.0143 -0.7326
   10MOL   H219 2577   3.678   2.566   2.881  1.3905  1.3020 -0.6021
   10MOL   H220 2578   3.557   2.597   3.010 -1.9911 -0.1697 -1.0662
   10MOL   H221 2579   3.458   2.980   2.942  2.3149 -2.3100 -0.8702
   10MOL   H222 2580   3.392   2.964   2.780 -1.5841  0.7177 -0.8536
   10MOL   C223 2581   3.249   2.980   2.943 -0.7088  0.0763  0.0063
   10MOL   C224 2582   3.247   3.134   2.954 -0.4094 -0.2211  0.2035
   10MOL   C225 2583   3.217   3.229   2.838 -0.3964 -0.4285  0.3816
   10MOL   C226 2584   3.116   3.208   2.952  0.1668  0.3787  0.4671
   10MOL   C227 2585   3.214   2.903   3.077  0.0937  0.2474  0.5165
   10MOL   H228 2586   3.163   2.959   2.881 -1.3956  3.3901 -0.2568
   10MOL   H229 2587   3.318   3.175   3.026 -1.0024 -0.2151  0.7862
   10MOL   H230 2588   3.209   3.159   2.754 -0.2639  0.1817 -0.1411
   10MOL   H231 2589   3.287   3.311   2.827  1.6284 -2.0574  0.7689
   10MOL   H232 2590   3.094   3.293   3.017 -1.4391 -0.7755  1.4642
   10MOL   H233 2591   3.030   3.150   2.919  0.6433  0.5156 -1.0550
   10MOL   H234 2592   3.115   2.934   3.111 -0.0341  1.4891 -0.9353
   10MOL   H235 2593   3.201   2.797   3.052  2.4290 -0.2141  1.2090
   10MOL   C236 2594   3.311   2.911   3.195 -0.2550 -0.2238 -0.4940
   10MOL   C237 2595   3.283   2.788   3.290 -0.7622 -0.2729  1.3337
   10MOL   C238 2596   3.315   2.651   3.241  0.3825  1.1577  0.5946
   10MOL   C239 2597   3.380   2.708   3.364  0.1027 -0.0837 -0.0927
   10MOL   C240 2598   3.293   3.041   3.284 -1.0326 -0.1688  0.4124
   10MOL   H241 2599   3.412   2.894   3.156 -1.5751 -1.0527 -3.7361
   10MOL   H242 2600   3.190   2.809   3.342 -0.6594 -1.8607  2.1921
   10MOL   H243 2601   3.234   2.581   3.260 -0.5262  1.8386 -0.6965
   10MOL   H244 2602   3.387   2.629   3.162  0.8903 -3.5408  2.1914
   10MOL   H245 2603   3.480   2.748   3.348 -0.3764  0.6090 -1.4379
   10MOL   H246 2604   3.351   2.654   3.454  2.7393  1.9752  2.0944
   10MOL   H247 2605   3.333   3.124   3.225  0.1505 -0.6290  0.5365
   10MOL   H248 2606   3.188   3.063   3.298 -0.6876  2.7614 -1.0129
   10MOL   C249 2607   3.376   3.051   3.416  0.9326  0.1990  0.6589
   10MOL   C250 2608   3.338   3.174   3.487  0.1575  0.8416  0.0464
   10MOL   C251 2609   3.222   3.177   3.589  0.5685  0.7005 -0.4962
   10MOL   C252 2610   3.371   3.178   3.636  0.4113 -0.2005  0.1534
   10MOL   C253 2611   3.530   3.043   3.396  0.7369 -0.5289 -0.3483
   10MOL   H254 2612   3.349   2.969   3.482  0.1224 -0.7167 -0.7748
   10MOL   H255 2613   3.336   3.266   3.430 -0.8712  1.1722  0.6006
   10MOL   H256 2614   3.168   3.271   3.601 -0.0021  0.4123 -0.7927
   10MOL   H257 2615   3.172   3.082   3.608  1.3348  0.2886 -0.5291
   10MOL   H258 2616   3.415   3.272   3.669  0.6358  0.4625 -1.9143
   10MOL   H259 2617   3.410   3.083   3.671  1.2173  0.2089  0.3671
   10MOL   H260 2618   3.582   3.059   3.490  0.4650  1.7973 -0.5642
   10MOL   H261 2619   3.554   3.122   3.324  0.8147 -0.1479  0.0981
   10MOL   H262 2620   3.568   2.949   3.356  1.6130 -1.4192  2.4889
   11MOL     C1 2621   1.321   6.991   1.577  0.4428 -0.5629 -0.3597
   11MOL     C2 2622   1.341   6.888   1.692 -0.0083  0.1284 -0.2251
   11MOL     C3 2623   1.484   6.863   1.755  0.0285  0.9839 -0.0108
   11MOL     C4 2624   1.417   6.762   1.668  0.4439  0.1972 -0.2802
   11MOL     C5 2625   1.217   6.959   1.472 -0.7846 -0.0995 -0.4140
   11MOL     H6 2626   1.285   7.082   1.625 -0.7618 -0.3231 -1.6782
   11MOL     H7 2627   1.250   6.874   1.750  1.3265 -0.9276  1.6748
   11MOL     H8 2628   1.569   6.918   1.714  0.3715 -0.3159 -1.0757
   11MOL     H9 2629   1.473   6.864   1.863 -1.4503  1.3234 -0.1526
   11MOL    H10 2630   1.390   6.670   1.720  2.0560  0.1595  0.4952
   11MOL    H11 2631   1.467   6.752   1.572 -1.0227 -2.8135 -0.8027
   11MOL    H12 2632   1.117   6.937   1.509  0.2719 -1.4955  1.6828
   11MOL    H13 2633   1.248   6.866   1.425 -0.7751 -0.9863  1.2967
   11MOL    H14 2634   1.414   7.013   1.525  1.3490  0.2217  1.5232
   11MOL    C15 2635   1.201   7.058   1.356  0.1235 -0.3213  0.6528
   11MOL    C16 2636   1.131   7.004   1.238 -0.0962 -0.3245 -0.2252
   11MOL    C17 2637   1.198   6.895   1.156  0.3785 -0.2095 -0.8109
   11MOL    C18 2638   1.183   7.033   1.101 -0.0865 -0.1417  0.2859
   11MOL    C19 2639   1.128   7.186   1.407  0.2401 -0.7724 -0.3873
   11MOL    H20 2640   1.300   7.091   1.325 -0.3487  1.2249  0.7411
   11MOL    H21 2641   1.028   6.979   1.259  0.0699 -0.1054  0.8678
   11MOL    H22 2642   1.131   6.824   1.107 -1.2201  1.2354 -0.7753
   11MOL    H23 2643   1.301   6.861   1.166  0.7124  0.7672 -0.8753
   11MOL    H24 2644   1.276   7.087   1.089 -1.0793  1.2495 -1.2913
   11MOL    H25 2645   1.112   7.046   1.020 -2.2462  0.1357  2.1535
   11MOL    H26 2646   1.148   7.202   1.513  0.1392  1.5672 -0.7021
   11MOL    H27 2647   1.024   7.154   1.418 -0.0680  1.3351  3.8951
   11MOL    C28 2648   1.145   7.316   1.323  0.1902  0.4097 -0.0722
   11MOL    C29 2649   1.270   7.386   1.352 -0.0834 -1.1353  0.0971
   11MOL    C30 2650   1.386   7.377   1.255  0.4453 -0.0892 -0.0461
   11MOL    C31 2651   1.311   7.506   1.270 -0.1467  0.7186 -0.2085
   11MOL    C32 2652   1.022   7.408   1.328 -0.5579  0.1658  0.0734
   11MOL    H33 2653   1.161   7.283   1.220  2.0475  0.6116  0.1221
   11MOL    H34 2654   1.298   7.390   1.457  1.4810 -0.5472 -0.3299
   11MOL    H35 2655   1.365   7.308   1.174 -0.9837 -1.6840  1.6554
   11MOL    H36 2656   1.486   7.383   1.300  1.3628  1.6330 -2.2125
   11MOL    H37 2657   1.246   7.539   1.189  0.7437 -2.1037 -2.1833
   11MOL    H38 2658   1.342   7.583   1.340 -1.4401  0.2021  0.9593
   11MOL    H39 2659   1.046   7.509   1.296  0.3612  0.3686  1.3402
   11MOL    H40 2660   1.005   7.431   1.433  2.4873  0.2950  0.5900
   11MOL    C41 2661   0.887   7.355   1.264 -0.4084  0.3417  0.3206
   11MOL    C42 2662   0.859   7.422   1.135 -0.6442 -0.5580  0.6526
   11MOL    C43 2663   0.833   7.352   1.009  0.4648 -0.2942  0.3080
   11MOL    C44 2664   0.964   7.427   1.018  0.3804  0.0526 -1.4132
   11MOL    C45 2665   0.768   7.377   1.370  0.3579  0.1645 -0.2433
   11MOL    H46 2666   0.896   7.250   1.237 -0.4419  0.4092  0.0492
   11MOL    H47 2667   0.808   7.518   1.143 -1.4551 -0.5946 -3.1876
   11MOL    H48 2668   0.843   7.244   1.020  1.9800 -0.3337 -1.3549
   11MOL    H49 2669   0.764   7.391   0.935  0.3057  1.3431  1.2822
   11MOL    H50 2670   0.986   7.517   0.961  3.5442 -0.1757 -0.6783
   11MOL    H51 2671   1.046   7.355   1.025  0.4616  0.3130  0.6148
   11MOL    H52 2672   0.741   7.483   1.373  3.0761  0.8776  0.4371
   11MOL    H53 2673   0.810   7.355   1.468 -1.5957  2.5366  1.1855
   11MOL    C54 2674   0.653   7.280   1.340 -0.0737 -0.0613 -0.2832
   11MOL    C55 2675   0.682   7.135   1.369  0.5022 -0.1159 -0.3273
   11MOL    C56 2676   0.728   7.047   1.249 -0.2469  0.1195 -0.7122
   11MOL    C57 2677   0.594   7.029   1.319  0.7081 -0.1704 -0.5381
   11MOL    C58 2678   0.523   7.325   1.416 -0.3209  0.1785  0.3658
   11MOL    H59 2679   0.627   7.285   1.234 -1.6754 -2.3336 -0.0546
   11MOL    H60 2680   0.728   7.119   1.467 -0.6829  1.1107  0.4457
   11MOL    H61 2681   0.732   7.096   1.151  1.0488 -0.6178 -1.0443
   11MOL    H62 2682   0.807   6.975   1.268 -0.5606  0.6714  2.9320
   11MOL    H63 2683   0.590   6.940   1.382 -1.5558 -0.3457 -0.8920
   11MOL    H64 2684   0.504   7.060   1.266  1.2555 -0.4655 -1.6514
   11MOL    H65 2685   0.439   7.257   1.426 -0.2440 -0.1270 -1.0160
   11MOL    H66 2686   0.555   7.334   1.520 -1.0092 -1.7884  0.7561
   11MOL    C67 2687   0.456   7.457   1.370 -0.4006  0.2044  0.6357
   11MOL    C68 2688   0.400   7.434   1.228  0.1412  0.0917 -0.0104
   11MOL    C69 2689   0.328   7.550   1.159  0.2095  0.5747 -0.0387
   11MOL    C70 2690   0.459   7.497   1.104  0.4916 -0.9286 -1.1043
   11MOL    C71 2691   0.341   7.502   1.461 -0.2872 -0.4924  0.4894
   11MOL    H72 2692   0.530   7.537   1.363 -0.4707  0.2912  0.8860
   11MOL    H73 2693   0.349   7.340   1.210 -2.1566  1.0929  1.0146
   11MOL    H74 2694   0.249   7.524   1.090 -1.1247  2.8590  0.5518
   11MOL    H75 2695   0.319   7.643   1.215  1.7341  0.0674  1.0758
   11MOL    H76 2696   0.542   7.567   1.102 -1.1973  1.1739  0.0149
   11MOL    H77 2697   0.442   7.450   1.008 -2.3326 -1.3367 -0.4617
   11MOL    H78 2698   0.256   7.434   1.458 -1.1733  0.5847  0.9251
   11MOL    H79 2699   0.302   7.595   1.420 -0.7588 -0.1739  1.6173
   11MOL    C80 2700   0.383   7.542   1.601 -0.0384  0.6312 -0.4369
   11MOL    C81 2701   0.251   7.555   1.683  0.1875 -0.7572  0.3676
   11MOL    C82 2702   0.255   7.509   1.829  0.2794 -0.7071  0.3035
   11MOL    C83 2703   0.184   7.424   1.723  0.5172 -0.1727  0.0607
   11MOL    C84 2704   0.471   7.677   1.606 -0.3889 -0.4029  0.3351
   11MOL    H85 2705   0.445   7.461   1.639 -2.9751 -0.6290  1.8904
   11MOL    H86 2706   0.188   7.638   1.651 -0.1090 -0.9194  0.5267
   11MOL    H87 2707   0.196   7.571   1.896 -0.1757 -0.9378  0.1179
   11MOL    H88 2708   0.355   7.483   1.864  0.9717  0.3423 -0.8641
   11MOL    H89 2709   0.222   7.323   1.708 -0.2459 -0.0900 -2.5775
   11MOL    H90 2710   0.077   7.442   1.714  0.7470 -0.5558 -3.9392
   11MOL    H91 2711   0.507   7.687   1.504  3.5575 -1.1308  1.5766
   11MOL    H92 2712   0.400   7.758   1.622  0.2369  0.1732  0.1905
   11MOL    C93 2713   0.582   7.692   1.716 -0.2895 -0.2190 -0.5851
   11MOL    C94 2714   0.697   7.600   1.680 -0.2182 -0.7845 -0.0352
   11MOL    C95 2715   0.800   7.566   1.777 -0.1086  0.3841  0.2700
   11MOL    C96 2716   0.690   7.465   1.740 -0.0292 -0.7967  0.7878
   11MOL    C97 2717   0.633   7.836   1.720 -0.4529 -0.3364 -0.1285
   11MOL    H98 2718   0.544   7.677   1.817  0.4505  0.1638 -0.2441
   11MOL    H99 2719   0.730   7.597   1.576  2.0405 -1.7334  0.6660
   11MOL   H100 2720   0.897   7.545   1.732 -0.9472  0.3121 -1.5568
   11MOL   H101 2721   0.801   7.630   1.865  1.0606  0.2010  0.3945
   11MOL   H102 2722   0.685   7.396   1.655 -2.1592 -1.1002  1.1149
   11MOL   H103 2723   0.615   7.450   1.818  1.6518  0.0146  2.5891
   11MOL   H104 2724   0.636   0.036   1.618 -1.5104 -0.3900 -0.1852
   11MOL   H105 2725   0.736   7.834   1.754 -0.1726  2.2129 -0.7530
   11MOL   C106 2726   0.547   0.097   1.809 -0.2918  0.6972  0.4244
   11MOL   C107 2727   0.540   0.058   1.953 -0.1211  0.0907  0.4538
   11MOL   C108 2728   0.435   0.116   2.048  0.2879  0.3451  0.2910
   11MOL   C109 2729   0.426   7.811   1.992  0.5388  0.1983 -0.4723
   11MOL   C110 2730   0.628   0.238   1.794  0.5414  0.1137  0.6369
   11MOL   H111 2731   0.443   0.102   1.778 -0.4945 -0.7336  0.8343
   11MOL   H112 2732   0.627   0.011   1.997 -0.4234 -0.5980  0.3201
   11MOL   H113 2733   0.477   0.137   2.146 -1.1497  0.2050  0.9470
   11MOL   H114 2734   0.360   0.184   2.008  0.6917  0.3903 -0.3927
   11MOL   H115 2735   0.352   7.785   1.917 -1.1967  2.9343  0.2203
   11MOL   H116 2736   0.439   7.746   2.079 -0.9299  0.5401  0.0231
   11MOL   H117 2737   0.658   0.257   1.897 -1.2570  1.7698  0.8918
   11MOL   H118 2738   0.724   0.227   1.745  0.4634  1.9789  0.0501
   11MOL   C119 2739   0.539   0.353   1.733 -0.1545 -0.0908 -0.0308
   11MOL   C120 2740   0.619   0.488   1.755  0.1549 -0.1375  0.1930
   11MOL   C121 2741   0.684   0.536   1.891  0.5820 -0.0136  0.0380
   11MOL   C122 2742   0.556   0.602   1.831 -0.2624 -0.0435 -0.2013
   11MOL   C123 2743   0.485   0.320   1.584 -0.2700  0.1449 -0.1406
   11MOL   H124 2744   0.449   0.364   1.794 -0.4405 -3.2354  0.2350
   11MOL   H125 2745   0.692   0.504   1.676 -0.6620 -1.1169 -0.7801
   11MOL   H126 2746   0.772   0.601   1.891 -0.3124  1.2162 -1.5016
   11MOL   H127 2747   0.677   0.473   1.980 -0.6242  1.2945  0.8871
   11MOL   H128 2748   0.471   0.584   1.897  0.7096 -0.7672  0.8807
   11MOL   H129 2749   0.543   0.694   1.775  0.6672  0.0749 -0.2307
   11MOL   H130 2750   0.547   0.379   1.518  1.1713 -0.8807  0.2703
   11MOL   H131 2751   0.522   0.220   1.563 -0.3729  0.5249 -2.2065
   11MOL   C132 2752   0.336   0.331   1.569  0.2676  0.4973  0.2721
   11MOL   C133 2753   0.300   0.260   1.437  0.2261 -1.0304  0.3728
   11MOL   C134 2754   0.153   0.229   1.414  0.2522  0.9983 -0.2330
   11MOL   C135 2755   0.258   0.119   1.430  0.0106 -0.1702 -0.1383
   11MOL   C136 2756   0.290   0.480   1.559 -0.2552  0.1291  0.1460
   11MOL   H137 2757   0.287   0.281   1.652  0.8948  2.0076  1.5835
   11MOL   H138 2758   0.365   0.294   1.356 -2.3120 -0.9551 -1.7119
   11MOL   H139 2759   0.087   0.258   1.495  1.2237  1.8656  0.2485
   11MOL   H140 2760   0.115   0.253   1.315 -0.5255  1.3477  0.1437
   11MOL   H141 2761   0.259   0.069   1.527  1.9917 -1.1607 -0.6388
   11MOL   H142 2762   0.276   0.049   1.349  2.3519  0.2795 -0.0599
   11MOL   H143 2763   0.369   0.546   1.593  0.0159 -0.8526  1.4755
   11MOL   H144 2764   0.291   0.484   1.450 -0.0142 -0.4697  0.1241
   11MOL   C145 2765   0.154   0.519   1.621  0.7564  0.0392 -0.1168
   11MOL   C146 2766   0.165   0.552   1.773  0.5962 -0.5934 -0.1450
   11MOL   C147 2767   0.041   0.562   1.863  0.0509 -0.4567 -0.2121
   11MOL   C148 2768   0.141   0.448   1.881  0.0153  0.0670  0.2797
   11MOL   C149 2769   0.075   0.632   1.544  0.5904 -0.6949 -0.2390
   11MOL   H150 2770   0.079   0.439   1.615  1.3874 -0.7024  1.6005
   11MOL   H151 2771   0.243   0.620   1.806  1.1651 -1.2972 -0.0378
   11MOL   H152 2772   0.033   0.618   1.956 -0.2632 -0.2764 -0.3481
   11MOL   H153 2773   7.785   0.531   1.823 -0.9597  1.3506  0.7387
   11MOL   H154 2774   0.113   0.349   1.846 -0.0020 -0.0356  0.5847
   11MOL   H155 2775   0.203   0.446   1.970  1.4376 -2.0759 -0.7080
   11MOL   H156 2776   0.045   0.593   1.446 -1.2892 -1.3629  0.5755
   11MOL   H157 2777   7.820   0.652   1.595 -0.9543 -1.7876 -2.5546
   11MOL   C158 2778   0.157   0.767   1.520 -0.5455  0.0232 -0.8777
   11MOL   C159 2779   0.186   0.840   1.648 -0.5362 -0.1326  0.7189
   11MOL   C160 2780   0.322   0.846   1.705  0.5606 -0.0075  0.2092
   11MOL   C161 2781   0.265   0.970   1.643 -0.3523 -0.0456 -0.0946
   11MOL   C162 2782   0.076   0.861   1.434  0.3046 -0.6473  0.1640
   11MOL   H163 2783   0.249   0.759   1.462  0.5699  1.4669  0.6512
   11MOL   H164 2784   0.098   0.847   1.710 -0.6728  0.0269  0.5078
   11MOL   H165 2785   0.392   0.790   1.643  0.2016 -0.7032  0.4230
   11MOL   H166 2786   0.330   0.825   1.812 -0.4328  2.6297  0.8431
   11MOL   H167 2787   0.238   1.049   1.714  0.7233  0.4328 -0.2049
   11MOL   H168 2788   0.284   1.016   1.546  1.1548 -0.5908 -0.0562
   11MOL   H169 2789   0.102   0.966   1.435 -2.7015  0.1454  2.0573
   11MOL   H170 2790   7.824   0.867   1.493  0.5063 -0.3157  0.4409
   11MOL   C171 2791   0.043   0.818   1.289 -0.3431  0.7741 -0.0521
   11MOL   C172 2792   7.759   0.884   1.236 -0.8011  0.0136 -0.6984
   11MOL   C173 2793   7.656   0.788   1.171 -0.3080  0.1472 -0.1013
   11MOL   C174 2794   7.628   0.869   1.297 -0.5098 -0.3423  0.4891
   11MOL   C175 2795   0.160   0.847   1.191  0.3655  0.2708  0.3389
   11MOL   H176 2796   0.017   0.712   1.287  1.3404  0.3680 -1.3115
   11MOL   H177 2797   7.780   0.976   1.181  1.6936 -1.6614 -2.6463
   11MOL   H178 2798   7.601   0.817   1.082  0.0900 -1.3109 -0.8223
   11MOL   H179 2799   7.660   0.681   1.187 -1.3567  0.1529  0.2926
   11MOL   H180 2800   7.622   0.814   1.391 -1.7082  2.4000  2.0816
   11MOL   H181 2801   7.562   0.955   1.284 -0.9568 -0.5586  1.3135
   11MOL   H182 2802   0.249   0.821   1.249 -0.4871  0.1686  1.6053
   11MOL   H183 2803   0.149   0.954   1.174 -0.4990 -0.0118 -0.9317
   11MOL   C184 2804   0.154   0.764   1.061  0.1918 -1.1351 -0.4901
   11MOL   C185 2805   0.196   0.622   1.094  0.2071  0.1858 -0.0096
   11MOL   C186 2806   0.168   0.503   1.003 -0.1106 -0.2371  0.5570
   11MOL   C187 2807   0.095   0.513   1.134  0.2796 -0.2240 -0.5920
   11MOL   C188 2808   0.241   0.830   0.960 -0.6631 -0.4754  0.4186
   11MOL   H189 2809   0.057   0.770   1.010 -0.8998  1.8089  1.8133
   11MOL   H190 2810   0.293   0.621   1.142  0.2124  0.2417 -0.0193
   11MOL   H191 2811   0.244   0.425   0.993 -1.3739 -1.1868 -1.9815
   11MOL   H192 2812   0.103   0.526   0.919  0.7487  0.1969  0.0053
   11MOL   H193 2813   0.128   0.446   1.213 -0.1474  0.0163 -0.2055
   11MOL   H194 2814   7.831   0.540   1.115  0.4554  0.7615 -0.2122
   11MOL   H195 2815   0.267   0.761   0.880 -0.4710  1.1686 -0.9640
   11MOL   H196 2816   0.339   0.862   0.994 -1.0632  2.3878 -0.9746
   11MOL   C197 2817   0.184   0.959   0.896  0.4520  0.3366  0.0789
   11MOL   C198 2818   0.059   0.916   0.815 -0.0548 -0.1262  0.7460
   11MOL   C199 2819   7.806   1.020   0.739  0.0479 -0.1605 -0.7089
   11MOL   C200 2820   7.756   0.936   0.857 -0.8347  0.6065  0.0473
   11MOL   C201 2821   0.287   1.032   0.805 -0.1023  0.3251  0.2053
   11MOL   H202 2822   0.146   1.025   0.973  2.0224  2.9959 -1.3571
   11MOL   H203 2823   0.078   0.836   0.744 -0.3780  1.8829 -1.6843
   11MOL   H204 2824   7.829   1.125   0.757 -2.2640  0.0068  1.5820
   11MOL   H205 2825   7.765   0.990   0.643  0.5187  1.5048 -1.4462
   11MOL   H206 2826   7.749   0.985   0.953  0.5150 -0.4918  0.7198
   11MOL   H207 2827   7.687   0.853   0.846  1.5731 -1.3326 -0.9515
   11MOL   H208 2828   0.355   0.959   0.762  0.1163  0.2364  0.6980
   11MOL   H209 2829   0.234   1.087   0.727 -3.5068 -0.1502  2.0420
   11MOL   C210 2830   0.376   1.119   0.886 -0.5279  0.0892 -0.2691
   11MOL   C211 2831   0.505   1.145   0.806  0.5295 -0.4339  0.1821
   11MOL   C212 2832   0.637   1.184   0.859 -0.0367  0.3763 -0.4361
   11MOL   C213 2833   0.622   1.048   0.806  0.6639 -0.3454 -0.2989
   11MOL   C214 2834   0.305   1.251   0.919  0.0301  0.3249  0.1605
   11MOL   H215 2835   0.403   1.070   0.979 -0.6929 -0.5699 -0.5620
   11MOL   H216 2836   0.483   1.193   0.711 -1.5835 -0.8865  0.4334
   11MOL   H217 2837   0.695   1.258   0.804  0.6397 -1.1235 -1.7810
   11MOL   H218 2838   0.641   1.198   0.967 -1.6024 -0.0758 -0.3060
   11MOL   H219 2839   0.664   1.025   0.708 -1.3620  0.6712 -1.4505
   11MOL   H220 2840   0.621   0.964   0.875  1.1085 -0.6652 -0.6744
   11MOL   H221 2841   0.294   1.313   0.830  0.7274 -4.1370 -3.2195
   11MOL   H222 2842   0.197   1.247   0.935  0.1029  0.9418  0.8546
   11MOL   C223 2843   0.350   1.327   1.038  0.3256 -0.6947  0.2175
   11MOL   C224 2844   0.361   1.245   1.166  0.0769 -0.4374 -0.0027
   11MOL   C225 2845   0.496   1.189   1.208  0.8183  0.0099 -0.2342
   11MOL   C226 2846   0.429   1.298   1.289 -0.0434  0.2248  0.6771
   11MOL   C227 2847   0.290   1.468   1.056  0.7745  0.2549  0.1017
   11MOL   H228 2848   0.452   1.355   1.016 -0.8428  3.3264 -0.4646
   11MOL   H229 2849   0.266   1.194   1.183 -0.7272  1.1353  0.3060
   11MOL   H230 2850   0.584   1.227   1.157  1.3877 -0.5156  0.3631
   11MOL   H231 2851   0.499   1.096   1.264  0.7035  0.8153  1.1280
   11MOL   H232 2852   0.410   1.264   1.390  1.1189  0.4110  0.9631
   11MOL   H233 2853   0.475   1.396   1.279 -0.1535  0.0908 -1.2734
   11MOL   H234 2854   0.352   1.524   1.125  3.1239 -2.5035  0.3157
   11MOL   H235 2855   0.303   1.506   0.955 -2.5881 -1.3497 -1.0140
   11MOL   C236 2856   0.143   1.493   1.083  0.8302 -0.0757 -0.2410
   11MOL   C237 2857   0.102   1.639   1.085 -0.0046 -0.0096 -0.5483
   11MOL   C238 2858   0.169   1.742   1.182  0.1543 -0.2432  0.6183
   11MOL   C239 2859   0.184   1.751   1.029 -0.3017 -0.0753  0.1398
   11MOL   C240 2860   0.085   1.421   1.214 -0.4707 -0.4391  0.1156
   11MOL   H241 2861   0.102   1.448   0.993  1.0378  0.9937 -0.8736
   11MOL   H242 2862   7.836   1.647   1.059 -0.4487 -0.9798  0.8905
   11MOL   H243 2863   0.100   1.816   1.223  1.0481  1.5301 -0.9981
   11MOL   H244 2864   0.252   1.720   1.248 -1.3573  0.5986  2.8408
   11MOL   H245 2865   0.282   1.732   0.986  1.2286  4.1847  1.4035
   11MOL   H246 2866   0.127   1.827   0.975 -0.6614  0.2425  0.9557
   11MOL   H247 2867   0.165   1.398   1.285 -0.5596 -0.8886  0.0706
   11MOL   H248 2868   0.026   1.497   1.265  0.0024  0.6235 -0.9050
   11MOL   C249 2869   7.832   1.299   1.204 -0.2867  0.0533  0.1940
   11MOL   C250 2870   7.703   1.337   1.143 -0.1951 -0.1195  0.7431
   11MOL   C251 2871   7.686   1.341   0.996 -0.0143  0.0599  0.3996
   11MOL   C252 2872   7.616   1.237   1.083  0.8100  0.2995  0.8359
   11MOL   C253 2873   7.807   1.249   1.348 -0.0889  0.3516 -0.5087
   11MOL   H254 2874   0.044   1.221   1.146  1.6685  2.3256 -1.2265
   11MOL   H255 2875   7.647   1.409   1.202  0.0498  1.1889 -0.5937
   11MOL   H256 2876   7.626   1.426   0.965  0.2103 -0.5580 -1.7754
   11MOL   H257 2877   7.765   1.303   0.932 -2.3989 -0.7593 -2.1696
   11MOL   H258 2878   7.513   1.241   1.116  1.1544  1.8352  1.8040
   11MOL   H259 2879   7.663   1.139   1.087 -0.5509 -0.3427  1.1431
   11MOL   H260 2880   7.759   1.326   1.408  0.5896  2.0350 -2.0750
   11MOL   H261 2881   0.059   1.224   1.402 -0.3507 -0.5210 -0.4634
   11MOL   H262 2882   7.751   1.156   1.351  0.1841  0.1846 -0.5752
   12MOL     C1 2883   5.448   6.015   2.758 -0.4412  0.1199 -0.0173
   12MOL     C2 2884   5.373   5.888   2.747  0.1137  0.6486 -0.2779
   12MOL     C3 2885   5.444   5.762   2.756  0.3391  0.4182 -0.6891
   12MOL     C4 2886   5.386   5.797   2.625 -0.3054 -0.1662  0.4679
   12MOL     C5 2887   5.380   6.140   2.705 -0.3162  0.3727 -0.6743
   12MOL     H6 2888   5.486   6.023   2.860  0.6795 -0.7245 -0.3653
   12MOL     H7 2889   5.269   5.890   2.780  0.8439  1.5280  2.0518
   12MOL     H8 2890   5.552   5.766   2.770 -0.1269 -0.1085  3.8059
   12MOL     H9 2891   5.395   5.681   2.811 -0.5789  0.9031 -0.7775
   12MOL    H10 2892   5.296   5.749   2.588 -0.4799 -0.3778  1.1602
   12MOL    H11 2893   5.467   5.813   2.554  1.7271 -2.2879  2.2327
   12MOL    H12 2894   5.288   6.147   2.762 -1.1228 -2.6669 -1.4650
   12MOL    H13 2895   5.343   6.123   2.604 -2.6927 -0.0494  0.2462
   12MOL    H14 2896   5.534   5.997   2.694 -1.3963 -1.2711 -0.9540
   12MOL    C15 2897   5.471   6.264   2.691  0.0832 -0.2854  0.0539
   12MOL    C16 2898   5.462   6.327   2.551 -0.5402  0.0675 -0.4735
   12MOL    C17 2899   5.445   6.469   2.522 -1.0103  0.0267 -0.1313
   12MOL    C18 2900   5.333   6.373   2.484  0.1490  0.1927  0.7940
   12MOL    C19 2901   5.433   6.365   2.810  0.4596  0.4395  0.0979
   12MOL    H20 2902   5.574   6.229   2.699 -0.8136 -3.5975 -1.7458
   12MOL    H21 2903   5.536   6.273   2.491 -0.2305  0.7972 -0.7499
   12MOL    H22 2904   5.501   6.519   2.442 -0.8294 -1.0589 -0.6879
   12MOL    H23 2905   5.408   6.539   2.596 -1.5200 -0.3345 -0.0441
   12MOL    H24 2906   5.239   6.375   2.539 -1.7659  0.5875 -2.3743
   12MOL    H25 2907   5.320   6.346   2.379 -0.0077  1.2425  0.5455
   12MOL    H26 2908   5.327   6.380   2.789  0.5851  0.2987 -0.6534
   12MOL    H27 2909   5.482   6.460   2.789 -0.8632  0.5463 -2.7363
   12MOL    C28 2910   5.455   6.310   2.956 -0.4027 -0.7697 -0.0484
   12MOL    C29 2911   5.419   6.417   3.051 -0.1408  0.2205  0.6860
   12MOL    C30 2912   5.273   6.446   3.067 -0.2872  0.0667  0.0574
   12MOL    C31 2913   5.343   6.387   3.185  0.1295 -0.0173 -0.5235
   12MOL    C32 2914   5.607   6.281   2.992 -0.4131 -0.3917 -0.5971
   12MOL    H33 2915   5.389   6.224   2.971  0.5813 -1.7827 -1.3764
   12MOL    H34 2916   5.473   6.511   3.040 -0.8471  0.4939 -0.4834
   12MOL    H35 2917   5.197   6.383   3.022  1.6998 -0.3916 -2.8206
   12MOL    H36 2918   5.240   6.549   3.077 -2.4726 -0.5325 -0.8467
   12MOL    H37 2919   5.342   6.281   3.210 -1.8418  0.3937  1.4304
   12MOL    H38 2920   5.339   6.450   3.274 -1.2925  0.4499 -0.9038
   12MOL    H39 2921   5.660   6.376   2.992 -0.1377 -0.5276 -2.6729
   12MOL    H40 2922   5.649   6.220   2.912 -1.3402 -0.6862 -0.8608
   12MOL    C41 2923   5.627   6.208   3.137 -0.1019 -0.1304 -1.1369
   12MOL    C42 2924   5.772   6.233   3.174  0.5902  0.3714 -0.3322
   12MOL    C43 2925   5.819   6.252   3.313 -0.3037 -0.2302 -0.2190
   12MOL    C44 2926   5.826   6.370   3.224  0.0192 -0.3036  0.1268
   12MOL    C45 2927   5.586   6.061   3.141 -0.4895 -0.1204 -0.5093
   12MOL    H46 2928   5.568   6.262   3.211  0.1847  1.4065 -2.0055
   12MOL    H47 2929   5.840   6.167   3.119  1.1382  0.9245 -0.3263
   12MOL    H48 2930   5.745   6.260   3.393  0.2579  1.7780  0.1144
   12MOL    H49 2931   5.912   6.201   3.338  0.5893  1.2837 -0.3728
   12MOL    H50 2932   5.921   6.397   3.179  1.4484 -1.9965  2.0912
   12MOL    H51 2933   5.751   6.442   3.255  0.1365 -0.3861  0.5960
   12MOL    H52 2934   5.642   5.999   3.071  0.9511 -1.0200  1.3946
   12MOL    H53 2935   5.485   6.055   3.102 -1.1156 -0.4279  1.1224
   12MOL    C54 2936   5.596   6.006   3.286  0.5602 -0.5849  1.0016
   12MOL    C55 2937   5.474   6.039   3.375  0.0051 -0.3866 -0.0007
   12MOL    C56 2938   5.457   6.169   3.450 -0.0342  0.5731  0.3185
   12MOL    C57 2939   5.473   6.040   3.525  0.0803 -0.1993 -0.5985
   12MOL    C58 2940   5.611   5.852   3.276  0.3588  0.7883 -0.8977
   12MOL    H59 2941   5.680   6.042   3.346  0.2480  1.1416  0.4135
   12MOL    H60 2942   5.378   6.001   3.341 -0.4560 -0.0624  0.9347
   12MOL    H61 2943   5.540   6.239   3.456 -0.1033  0.8378 -1.4501
   12MOL    H62 2944   5.359   6.217   3.458 -0.2392 -0.0999  2.0188
   12MOL    H63 2945   5.383   6.002   3.572  0.5468 -0.5031  0.0647
   12MOL    H64 2946   5.568   6.017   3.574  0.1468  1.1706 -0.0634
   12MOL    H65 2947   5.570   5.803   3.364  0.9777  0.0618 -1.0075
   12MOL    H66 2948   5.550   5.812   3.195 -1.4415  0.3386  0.6530
   12MOL    C67 2949   5.753   5.785   3.255  0.4286 -0.4924 -0.5694
   12MOL    C68 2950   5.818   5.816   3.126 -0.0125  0.2790  0.6716
   12MOL    C69 2951   5.897   5.712   3.046  0.3523 -0.0079  0.8748
   12MOL    C70 2952   5.769   5.768   2.988  0.0798  0.4070  0.5393
   12MOL    C71 2953   5.855   5.804   3.372 -0.1177 -0.5250  0.1124
   12MOL    H72 2954   5.732   5.679   3.250 -0.7513 -0.2284 -1.3252
   12MOL    H73 2955   5.873   5.910   3.123 -0.2494  0.4018 -3.2170
   12MOL    H74 2956   5.990   5.737   2.995  0.7466  1.8249  2.4302
   12MOL    H75 2957   5.898   5.608   3.077 -0.3014 -0.1693  0.3618
   12MOL    H76 2958   5.682   5.702   2.986  0.0140  0.4157  2.2280
   12MOL    H77 2959   5.773   5.844   2.911 -0.4536 -0.5334 -0.4316
   12MOL    H78 2960   5.864   5.911   3.387 -1.6369 -0.4762  0.7771
   12MOL    H79 2961   5.953   5.775   3.335 -0.6090  1.3963 -2.8828
   12MOL    C80 2962   5.830   5.717   3.510 -0.1137  0.1445  0.6721
   12MOL    C81 2963   5.935   5.773   3.616 -0.0156 -0.3960 -0.2517
   12MOL    C82 2964   5.888   5.799   3.760 -0.0005  0.4683 -0.3842
   12MOL    C83 2965   5.937   5.914   3.671 -0.4376  0.4933 -0.4456
   12MOL    C84 2966   5.853   5.562   3.481  0.1719  0.0731  0.2243
   12MOL    H85 2967   5.730   5.737   3.548  0.7694  2.3325  1.9450
   12MOL    H86 2968   6.036   5.732   3.604  0.7025  1.5085 -0.8523
   12MOL    H87 2969   5.957   5.788   3.843  0.1723 -1.6572 -0.7934
   12MOL    H88 2970   5.784   5.790   3.790  0.4603 -0.4197  1.0062
   12MOL    H89 2971   5.853   5.983   3.655 -0.5355  0.9390  1.7942
   12MOL    H90 2972   6.027   5.964   3.706 -0.3448  0.1521 -0.2013
   12MOL    H91 2973   5.786   5.531   3.400  0.9042  0.6369 -0.6080
   12MOL    H92 2974   5.950   5.534   3.440  0.4069 -0.2410  0.9882
   12MOL    C93 2975   5.835   5.457   3.595  0.3090 -0.4259 -0.4851
   12MOL    C94 2976   5.710   5.368   3.569  0.6033 -0.6968  0.7802
   12MOL    C95 2977   5.599   5.350   3.670  0.0687 -0.1071 -0.4398
   12MOL    C96 2978   5.567   5.422   3.550 -0.1703 -0.9852 -0.2017
   12MOL    C97 2979   5.963   5.362   3.609  0.3129 -0.3075  0.2097
   12MOL    H98 2980   5.820   5.516   3.685 -0.4227 -0.0132 -0.8756
   12MOL    H99 2981   5.728   5.281   3.505  0.7030  1.0649 -1.6403
   12MOL   H100 2982   5.555   5.251   3.671 -2.2048  0.7849 -3.8706
   12MOL   H101 2983   5.616   5.405   3.762 -0.7366 -2.0772  0.9072
   12MOL   H102 2984   5.513   5.376   3.467  0.5964 -0.2722 -1.1021
   12MOL   H103 2985   5.555   5.529   3.567  0.6635 -0.6960 -1.4169
   12MOL   H104 2986   6.061   5.410   3.612  0.1134  0.0474  1.2807
   12MOL   H105 2987   5.962   5.300   3.519  1.3100 -0.6184  0.4096
   12MOL   C106 2988   5.959   5.269   3.728 -0.0525 -0.6027 -0.1941
   12MOL   C107 2989   6.060   5.151   3.708 -1.0236  0.3799 -0.0109
   12MOL   C108 2990   6.021   5.013   3.746  0.1873  0.1375 -0.1159
   12MOL   C109 2991   6.060   5.045   3.605 -0.1186 -0.2133  0.6333
   12MOL   C110 2992   5.985   5.347   3.857  0.2927  0.3047  0.4499
   12MOL   H111 2993   5.864   5.216   3.730 -1.0483  1.1799  2.0574
   12MOL   H112 2994   6.163   5.185   3.714 -0.4434 -1.4208  0.5336
   12MOL   H113 2995   6.090   4.958   3.809  1.1007  0.1638 -1.0854
   12MOL   H114 2996   5.916   4.986   3.759  0.3561 -0.7179 -0.4890
   12MOL   H115 2997   5.985   5.074   3.531 -0.0282  1.5344  1.1940
   12MOL   H116 2998   6.160   5.021   3.571 -1.0064 -3.5323  0.2238
   12MOL   H117 2999   6.093   5.361   3.864 -0.0980  4.2974 -0.5967
   12MOL   H118 3000   5.937   5.444   3.851  0.2091  0.2212 -0.4033
   12MOL   C119 3001   5.934   5.264   3.980 -0.1676 -0.0299 -0.0584
   12MOL   C120 3002   6.008   5.293   4.110 -0.3631 -0.7723  0.4952
   12MOL   C121 3003   6.147   5.252   4.145  0.2550 -0.0416 -0.5613
   12MOL   C122 3004   6.040   5.180   4.209  0.2987 -0.2481  0.5657
   12MOL   C123 3005   5.784   5.286   4.006 -0.4249 -0.5333 -0.6453
   12MOL   H124 3006   5.958   5.160   3.956 -1.0776 -0.2693  0.0508
   12MOL   H125 3007   5.988   5.390   4.153 -1.7612 -0.7060 -0.2890
   12MOL   H126 3008   6.202   5.325   4.204  1.8393 -0.4554 -1.4755
   12MOL   H127 3009   6.202   5.210   4.061  0.5930 -0.2318 -0.2441
   12MOL   H128 3010   6.031   5.077   4.174 -1.7131  0.1779 -0.2899
   12MOL   H129 3011   6.033   5.200   4.316 -1.3175  0.6461  0.3149
   12MOL   H130 3012   5.777   5.388   4.044  0.0736 -1.1497  1.1574
   12MOL   H131 3013   5.733   5.288   3.909  0.4819 -0.4470 -1.1189
   12MOL   C132 3014   5.706   5.187   4.095  0.1778  0.4904  0.7856
   12MOL   C133 3015   5.695   5.050   4.024 -0.0783  0.0405 -0.6644
   12MOL   C134 3016   5.658   4.923   4.104  0.1909 -0.4078  0.4008
   12MOL   C135 3017   5.799   4.944   4.040  0.9029  0.7230 -0.2909
   12MOL   C136 3018   5.560   5.242   4.133 -0.1251 -0.7554 -0.7740
   12MOL   H137 3019   5.765   5.165   4.184  0.1131 -1.3157  0.4075
   12MOL   H138 3020   5.649   5.060   3.926 -1.1239 -0.4136 -0.2186
   12MOL   H139 3021   5.653   4.939   4.211 -0.9421  0.6930  0.1976
   12MOL   H140 3022   5.582   4.858   4.061  0.8189 -1.8166  1.3793
   12MOL   H141 3023   5.880   4.958   4.111  0.6210 -1.8680  0.6174
   12MOL   H142 3024   5.813   4.882   3.951 -1.0169 -0.4030  0.1471
   12MOL   H143 3025   5.557   5.346   4.099 -0.8598 -0.1040  1.1891
   12MOL   H144 3026   5.485   5.187   4.076 -2.2377  0.0218  1.1428
   12MOL   C145 3027   5.524   5.263   4.280  0.0624  0.1663  0.3666
   12MOL   C146 3028   5.618   5.373   4.342 -0.8153  0.6706  0.7178
   12MOL   C147 3029   5.648   5.382   4.488  0.0173  0.6855  0.3786
   12MOL   C148 3030   5.748   5.331   4.392 -0.3680  0.3070 -0.4887
   12MOL   C149 3031   5.375   5.306   4.299 -0.5645 -0.7459  0.0328
   12MOL   H150 3032   5.544   5.166   4.324 -0.3618  0.2978  0.8485
   12MOL   H151 3033   5.603   5.472   4.301 -1.0315  0.3139 -0.0718
   12MOL   H152 3034   5.661   5.485   4.520  2.1238  0.3558  0.7133
   12MOL   H153 3035   5.595   5.311   4.551  0.9874 -0.2798  0.1371
   12MOL   H154 3036   5.762   5.223   4.401 -1.6594  0.1502 -0.3465
   12MOL   H155 3037   5.828   5.403   4.375  0.0252  0.3074  1.2132
   12MOL   H156 3038   5.357   5.311   4.406  1.3381 -2.3100  0.4691
   12MOL   H157 3039   5.368   5.403   4.250 -0.9667  0.3975  2.3097
   12MOL   C158 3040   5.255   5.207   4.252 -0.1501 -0.5292 -0.7417
   12MOL   C159 3041   5.128   5.296   4.243 -0.7718  0.6073 -0.0072
   12MOL   C160 3042   5.092   5.372   4.114  0.0234 -0.5350  1.3043
   12MOL   C161 3043   5.007   5.259   4.157  0.1836 -0.6266 -0.1740
   12MOL   C162 3044   5.251   5.082   4.343 -0.0054  0.0037 -0.4981
   12MOL   H163 3045   5.267   5.170   4.150  0.4376  1.3254 -1.3869
   12MOL   H164 3046   5.127   5.365   4.327 -1.4945  0.8229 -0.1973
   12MOL   H165 3047   5.135   5.362   4.015  0.0191 -1.1631  1.3615
   12MOL   H166 3048   5.049   5.471   4.125  0.4330  0.4507 -4.4806
   12MOL   H167 3049   4.906   5.299   4.171  0.2033 -0.4142 -0.6445
   12MOL   H168 3050   5.011   5.167   4.100 -0.1770 -0.8571  0.1619
   12MOL   H169 3051   5.247   5.118   4.446 -3.9669 -0.4523 -0.3963
   12MOL   H170 3052   5.347   5.032   4.344 -0.1782 -0.3251 -0.1365
   12MOL   C171 3053   5.135   4.973   4.332  0.3368 -0.5640 -0.0121
   12MOL   C172 3054   5.172   4.852   4.245 -0.1248  0.6915  0.4535
   12MOL   C173 3055   5.062   4.787   4.171  0.6672 -0.5145 -0.0573
   12MOL   C174 3056   5.176   4.850   4.095 -0.0063 -0.5128  0.4759
   12MOL   C175 3057   5.095   4.915   4.468  0.0586  0.1128 -1.0312
   12MOL   H176 3058   5.044   5.006   4.282  0.3516  0.1829  0.4439
   12MOL   H177 3059   5.240   4.783   4.295 -0.8708  0.9284  1.8150
   12MOL   H178 3060   5.050   4.679   4.172  0.8772 -0.6215 -3.1087
   12MOL   H179 3061   4.968   4.840   4.165  1.6388  1.3034  0.5698
   12MOL   H180 3062   5.142   4.933   4.033  0.0696 -0.7710  0.0908
   12MOL   H181 3063   5.262   4.794   4.060 -0.8248 -0.6488 -1.3382
   12MOL   H182 3064   5.184   4.896   4.527 -1.0526 -1.4466  0.2264
   12MOL   H183 3065   5.038   4.822   4.462  3.7740 -2.3564  0.1920
   12MOL   C184 3066   5.016   5.025   4.548  0.4381 -0.1902  0.5483
   12MOL   C185 3067   5.029   5.015   4.704 -0.8333  0.4367  0.4005
   12MOL   C186 3068   5.029   5.127   4.797 -0.2998  0.1787 -0.3487
   12MOL   C187 3069   5.160   5.057   4.761 -0.0833  0.8176  0.9989
   12MOL   C188 3070   4.866   5.012   4.512  0.1722  0.8181 -0.5622
   12MOL   H189 3071   5.044   5.128   4.524  0.9747  0.0679  2.1945
   12MOL   H190 3072   4.989   4.919   4.737  0.3994 -0.5781 -0.9564
   12MOL   H191 3073   4.999   5.124   4.901  0.5612 -1.2612 -0.1288
   12MOL   H192 3074   5.026   5.234   4.773 -2.2669  0.9161  2.7815
   12MOL   H193 3075   5.203   4.984   4.829  0.1919 -0.3961 -0.4350
   12MOL   H194 3076   5.229   5.108   4.694 -0.8288  0.7020  0.1382
   12MOL   H195 3077   4.838   4.918   4.559 -0.4048  0.8227 -0.8885
   12MOL   H196 3078   4.850   4.980   4.409  1.4447  1.3749 -0.9457
   12MOL   C197 3079   4.769   5.126   4.543  0.1291  0.0738  0.0682
   12MOL   C198 3080   4.624   5.077   4.551  0.3822  0.0379  0.3138
   12MOL   C199 3081   4.542   5.127   4.668  0.7949  0.4677 -0.0343
   12MOL   C200 3082   4.578   4.978   4.654  0.3127 -0.4058 -0.5172
   12MOL   C201 3083   4.786   5.245   4.448 -0.6633  0.8623 -0.1782
   12MOL   H202 3084   4.783   5.154   4.648  1.4828 -2.7745  0.6994
   12MOL   H203 3085   4.582   5.078   4.450  1.7884  0.4228 -0.2827
   12MOL   H204 3086   4.599   5.192   4.734 -0.1710  0.6851  0.6017
   12MOL   H205 3087   4.450   5.169   4.630  1.3158  0.5537 -1.2190
   12MOL   H206 3088   4.653   4.928   4.715 -0.8209 -4.1698 -2.0402
   12MOL   H207 3089   4.493   4.919   4.622 -0.1796 -0.5913  1.1462
   12MOL   H208 3090   4.893   5.260   4.436 -0.5120  1.8791  2.2917
   12MOL   H209 3091   4.747   5.223   4.349 -4.0881 -3.2053  1.8963
   12MOL   C210 3092   4.733   5.386   4.503  0.5356  0.7110 -0.5625
   12MOL   C211 3093   4.845   5.449   4.581 -0.7381  0.4705 -0.5352
   12MOL   C212 3094   4.812   5.573   4.667 -0.0805  0.2376  0.0626
   12MOL   C213 3095   4.847   5.442   4.734  0.1169  0.0925 -0.6778
   12MOL   C214 3096   4.685   5.479   4.395  0.7573  0.8017 -0.8379
   12MOL   H215 3097   4.651   5.366   4.572 -0.8793  0.6257 -2.2294
   12MOL   H216 3098   4.942   5.438   4.532 -0.9486 -3.0910 -0.2405
   12MOL   H217 3099   4.892   5.646   4.676 -1.1369  1.2201  1.8137
   12MOL   H218 3100   4.706   5.597   4.681  0.0630  0.5400  0.6645
   12MOL   H219 3101   4.944   5.453   4.783 -0.0432 -0.7005 -0.1767
   12MOL   H220 3102   4.772   5.379   4.781  0.1135 -1.7593 -3.0491
   12MOL   H221 3103   4.661   5.577   4.436  2.4801 -0.2317  2.7820
   12MOL   H222 3104   4.775   5.486   4.334  2.1123 -2.7487  0.6717
   12MOL   C223 3105   4.570   5.433   4.301  0.4921  0.4191  0.0843
   12MOL   C224 3106   4.547   5.533   4.194 -0.5145  0.4768  0.2243
   12MOL   C225 3107   4.654   5.564   4.094 -0.2778  0.2430  0.4695
   12MOL   C226 3108   4.531   5.488   4.049  0.6398  0.2184 -0.0553
   12MOL   C227 3109   4.439   5.415   4.381  0.1425  0.1964  0.0387
   12MOL   H228 3110   4.584   5.338   4.250 -1.4107  0.7428 -1.1099
   12MOL   H229 3111   4.510   5.629   4.230  1.6988  2.0661 -1.6384
   12MOL   H230 3112   4.750   5.514   4.081  0.1291  1.1472 -0.0221
   12MOL   H231 3113   4.658   5.670   4.072  0.2869  0.1714  0.2358
   12MOL   H232 3114   4.458   5.538   3.985  0.1865 -0.8618 -0.3866
   12MOL   H233 3115   4.537   5.381   4.030 -0.1277 -0.1379  1.6465
   12MOL   H234 3116   4.455   5.367   4.478  1.1777 -1.4766 -0.9451
   12MOL   H235 3117   4.419   5.517   4.415  1.1300 -0.7911  3.9097
   12MOL   C236 3118   4.321   5.332   4.322 -0.7915  0.7581  0.1951
   12MOL   C237 3119   4.189   5.368   4.381  0.0703 -0.6509  0.4076
   12MOL   C238 3120   4.136   5.514   4.371  0.1419  0.3648 -0.5282
   12MOL   C239 3121   4.069   5.404   4.292 -0.1761  0.2416  0.0963
   12MOL   C240 3122   4.347   5.174   4.325 -0.1579 -0.0188  0.1684
   12MOL   H241 3123   4.313   5.371   4.220 -2.1123 -1.2037 -0.4842
   12MOL   H242 3124   4.169   5.335   4.483  1.0032  0.7285  1.0482
   12MOL   H243 3125   4.083   5.558   4.455 -0.6288 -1.5761  0.0204
   12MOL   H244 3126   4.182   5.596   4.316  0.5257 -0.8077 -1.9772
   12MOL   H245 3127   4.093   5.424   4.187 -0.1594  1.2242  0.2836
   12MOL   H246 3128   3.969   5.373   4.320 -0.8458  0.6806 -1.7024
   12MOL   H247 3129   4.440   5.154   4.273  0.3129 -1.7961  1.6714
   12MOL   H248 3130   4.367   5.147   4.428  0.1172 -2.2842 -0.4309
   12MOL   C249 3131   4.241   5.079   4.259 -0.5237 -0.5167  0.0775
   12MOL   C250 3132   4.290   4.934   4.275  0.1830 -0.6182  0.2643
   12MOL   C251 3133   4.281   4.856   4.405  0.1339 -0.3372  0.7936
   12MOL   C252 3134   4.185   4.827   4.293  0.6255  0.1569  0.5281
   12MOL   C253 3135   4.212   5.108   4.109  0.4418  0.1418  0.6919
   12MOL   H254 3136   4.150   5.098   4.316 -1.1915 -1.2482 -0.7202
   12MOL   H255 3137   4.368   4.902   4.206 -0.0730  0.6414 -0.6325
   12MOL   H256 3138   4.367   4.790   4.410  0.8891  0.3227 -2.4081
   12MOL   H257 3139   4.239   4.899   4.496 -0.0389  0.6456  0.2533
   12MOL   H258 3140   4.183   4.719   4.283 -2.9091 -0.5965  6.5373
   12MOL   H259 3141   4.079   4.851   4.301  0.7234  0.1454  1.9053
   12MOL   H260 3142   4.142   5.191   4.099 -1.3206 -1.2004  1.5332
   12MOL   H261 3143   4.152   5.028   4.066  0.1891  0.1795  0.9725
   12MOL   H262 3144   4.301   5.124   4.049 -0.5152  2.4994 -0.1675
   13MOL     C1 3145   3.340   0.750   3.500  0.4603 -0.8331  0.2114
   13MOL     C2 3146   3.280   0.645   3.408 -0.0151  0.4815  0.3858
   13MOL     C3 3147   3.231   0.684   3.273 -0.1651 -0.3555  0.6473
   13MOL     C4 3148   3.128   0.643   3.368 -0.2085 -0.6587  0.0188
   13MOL     C5 3149   3.484   0.783   3.449  0.3832 -0.3874 -0.1546
   13MOL     H6 3150   3.270   0.834   3.504  0.0084 -1.2374  0.7945
   13MOL     H7 3151   3.337   0.552   3.407  1.0803  1.1347 -0.9549
   13MOL     H8 3152   3.238   0.789   3.246  0.6242 -0.5974 -0.1354
   13MOL     H9 3153   3.247   0.616   3.189 -0.6639  0.3966 -0.0605
   13MOL    H10 3154   3.104   0.538   3.375  0.1626 -0.9034 -2.1068
   13MOL    H11 3155   3.061   0.721   3.405  0.8599 -0.9770  2.7833
   13MOL    H12 3156   3.498   0.811   3.345  2.9414 -1.6329 -0.1821
   13MOL    H13 3157   3.546   0.695   3.463  0.5103 -0.1459  0.8909
   13MOL    H14 3158   3.347   0.716   3.603  1.5434  2.4137  1.2918
   13MOL    C15 3159   3.558   0.893   3.529  0.5318  0.0874 -0.0034
   13MOL    C16 3160   3.697   0.908   3.468 -0.4334  0.5679 -0.0414
   13MOL    C17 3161   3.796   0.793   3.472 -0.5125 -0.3804  0.4279
   13MOL    C18 3162   3.828   0.923   3.545 -0.4383  0.3261  0.4425
   13MOL    C19 3163   3.474   1.026   3.528  0.7079 -0.3269  0.1554
   13MOL    H20 3164   3.576   0.863   3.632  0.5272 -0.1269 -0.0648
   13MOL    H21 3165   3.706   0.961   3.373  0.8119 -0.4396 -0.5018
   13MOL    H22 3166   3.856   0.780   3.382 -0.9658  0.2458  0.0301
   13MOL    H23 3167   3.772   0.706   3.532 -0.2816 -0.1705  0.8275
   13MOL    H24 3168   3.836   0.902   3.652  0.0681 -0.2803  0.2908
   13MOL    H25 3169   3.901   0.982   3.490 -1.6456 -0.2047 -1.7879
   13MOL    H26 3170   3.372   1.020   3.565  0.0492  0.9675 -1.4342
   13MOL    H27 3171   3.455   1.048   3.423 -0.2417  1.9953  0.7838
   13MOL    C28 3172   3.531   1.155   3.587 -0.2987 -0.5901  1.1339
   13MOL    C29 3173   3.498   1.143   3.735 -0.1927 -0.0784  0.0985
   13MOL    C30 3174   3.612   1.078   3.809  0.2829 -0.4864  0.3161
   13MOL    C31 3175   3.574   1.219   3.838  0.8496 -0.1690 -0.3664
   13MOL    C32 3176   3.469   1.283   3.516 -0.0989 -0.2584 -0.1944
   13MOL    H33 3177   3.637   1.165   3.564 -0.1834 -2.5576  0.7163
   13MOL    H34 3178   3.397   1.112   3.761 -0.3807 -0.2530 -0.8268
   13MOL    H35 3179   3.703   1.050   3.757 -0.0824 -3.1330  1.0505
   13MOL    H36 3180   3.580   1.006   3.884 -0.8187  1.7492  2.0604
   13MOL    H37 3181   3.632   1.297   3.789  1.6295 -0.1458  0.5922
   13MOL    H38 3182   3.526   1.237   3.934  1.3699  0.7088 -0.2663
   13MOL    H39 3183   3.367   1.314   3.541  0.6170  3.2894 -1.4372
   13MOL    H40 3184   3.432   1.252   3.419 -0.8817  2.0771 -0.6897
   13MOL    C41 3185   3.566   1.400   3.499  0.1886 -0.1450  0.0477
   13MOL    C42 3186   3.490   1.530   3.487  0.6968  0.4713 -0.2026
   13MOL    C43 3187   3.558   1.659   3.504 -0.4329 -0.3064  0.5830
   13MOL    C44 3188   3.457   1.612   3.608 -0.1703  0.3722  0.0453
   13MOL    C45 3189   3.660   1.390   3.375 -0.2868  0.0699  0.0846
   13MOL    H46 3190   3.624   1.397   3.592 -0.6422 -2.1132  0.5333
   13MOL    H47 3191   3.420   1.532   3.404 -0.3132 -1.6416  0.5566
   13MOL    H48 3192   3.662   1.658   3.537 -0.6446  0.1233  1.2686
   13MOL    H49 3193   3.524   1.744   3.444 -1.8059 -0.9213  0.4740
   13MOL    H50 3194   3.358   1.657   3.608 -0.9748 -1.3686 -0.8889
   13MOL    H51 3195   3.502   1.601   3.706 -1.0099 -1.0020  0.2887
   13MOL    H52 3196   3.618   1.453   3.297  2.2208  1.0600 -0.4952
   13MOL    H53 3197   3.648   1.290   3.332  2.6830 -0.3826  0.1939
   13MOL    C54 3198   3.805   1.410   3.402 -0.4403  0.1388  0.0231
   13MOL    C55 3199   3.851   1.309   3.509  0.7065  0.2866  0.5374
   13MOL    C56 3200   3.870   1.345   3.653 -0.3553 -0.3664  0.1957
   13MOL    C57 3201   3.985   1.316   3.562  0.4180  0.2760 -0.5297
   13MOL    C58 3202   3.889   1.390   3.277 -0.6560 -0.3494 -0.3828
   13MOL    H59 3203   3.825   1.511   3.438 -1.7833  1.3284 -2.4374
   13MOL    H60 3204   3.816   1.208   3.489  1.7993  0.2492 -1.3082
   13MOL    H61 3205   3.856   1.450   3.679  2.3162  0.1625 -0.4250
   13MOL    H62 3206   3.861   1.267   3.728 -0.5575 -0.4515  0.0848
   13MOL    H63 3207   4.034   1.224   3.592 -1.6888 -0.7355 -0.1243
   13MOL    H64 3208   4.055   1.399   3.549 -0.6396  1.4054  0.7617
   13MOL    H65 3209   3.991   1.372   3.309 -1.0307 -0.5745  0.7030
   13MOL    H66 3210   3.855   1.305   3.217 -0.2610 -1.0599  0.3885
   13MOL    C67 3211   3.884   1.503   3.176  0.4656 -0.8242  0.6648
   13MOL    C68 3212   3.922   1.635   3.234 -0.0344 -0.1379  0.1718
   13MOL    C69 3213   3.893   1.765   3.151 -0.2648  0.3073  0.3210
   13MOL    C70 3214   3.816   1.738   3.273 -0.5973  0.2644  0.3035
   13MOL    C71 3215   3.959   1.481   3.039 -0.4013 -0.4178 -0.2610
   13MOL    H72 3216   3.779   1.512   3.147  0.9706 -0.3936 -1.1348
   13MOL    H73 3217   4.022   1.637   3.277  0.2744 -0.0052 -0.5499
   13MOL    H74 3218   3.967   1.845   3.156  0.9455 -0.8250  0.8300
   13MOL    H75 3219   3.841   1.762   3.055 -1.1190 -0.9964  0.8032
   13MOL    H76 3220   3.715   1.701   3.257  0.9613 -4.5650  0.6191
   13MOL    H77 3221   3.842   1.802   3.356 -1.0001 -1.2333  1.6132
   13MOL    H78 3222   3.915   1.551   2.969 -1.8872 -2.4341 -1.3991
   13MOL    H79 3223   3.924   1.382   3.009  0.8452 -1.4441  1.5607
   13MOL    C80 3224   4.115   1.492   3.043 -0.0285  0.4084  0.2701
   13MOL    C81 3225   4.176   1.512   2.903  0.3710  0.2472 -0.0008
   13MOL    C82 3226   4.314   1.572   2.883 -0.5369  0.1184  0.6259
   13MOL    C83 3227   4.188   1.651   2.854  0.2844  0.0019 -0.3427
   13MOL    C84 3228   4.193   1.368   3.103  0.2530 -0.2442  0.3334
   13MOL    H85 3229   4.147   1.582   3.095  1.4769  1.0528 -1.7070
   13MOL    H86 3230   4.152   1.434   2.831 -1.1933  0.6759  0.0298
   13MOL    H87 3231   4.372   1.537   2.798  0.5206 -0.1625  1.4451
   13MOL    H88 3232   4.372   1.622   2.961  0.9884 -2.7840  1.4177
   13MOL    H89 3233   4.165   1.731   2.923 -1.6202 -1.4502  0.7733
   13MOL    H90 3234   4.175   1.674   2.749 -2.4110  1.6692  0.3126
   13MOL    H91 3235   4.128   1.302   3.161  1.6417 -1.6049  0.3733
   13MOL    H92 3236   4.233   1.304   3.025 -0.0332  2.1642 -1.8544
   13MOL    C93 3237   4.311   1.406   3.185  0.4922 -0.7545 -0.7266
   13MOL    C94 3238   4.278   1.518   3.279  0.4203 -0.0889 -0.8440
   13MOL    C95 3239   4.405   1.575   3.344  0.0063 -0.1771 -0.2808
   13MOL    C96 3240   4.313   1.663   3.266  0.2213  0.2356 -0.8250
   13MOL    C97 3241   4.373   1.284   3.263 -0.4109  0.7901  0.2237
   13MOL    H98 3242   4.383   1.440   3.110 -0.0636 -0.3970 -1.0965
   13MOL    H99 3243   4.196   1.497   3.347 -0.1943  1.6423 -1.0249
   13MOL   H100 3244   4.404   1.600   3.450  0.7801  0.2232 -0.3646
   13MOL   H101 3245   4.501   1.563   3.296 -1.4773 -0.8190 -3.2139
   13MOL   H102 3246   4.253   1.731   3.326 -1.7480 -1.6981 -0.5127
   13MOL   H103 3247   4.338   1.695   3.165  3.1218 -0.8547 -0.5173
   13MOL   H104 3248   4.288   1.241   3.317 -2.4916  0.7507 -2.9597
   13MOL   H105 3249   4.449   1.312   3.336 -2.1770 -0.1344  2.4712
   13MOL   C106 3250   4.442   1.175   3.168  0.0312  0.0458 -0.8112
   13MOL   C107 3251   4.551   1.238   3.079  0.1903 -0.3696 -0.4471
   13MOL   C108 3252   4.615   1.171   2.970  0.3785  0.0061 -0.2130
   13MOL   C109 3253   4.537   1.299   2.943  0.4215 -1.1086 -0.1003
   13MOL   C110 3254   4.489   1.046   3.230 -0.4029 -0.6656 -0.0353
   13MOL   H111 3255   4.363   1.148   3.098 -0.5486  0.1309 -0.2016
   13MOL   H112 3256   4.629   1.287   3.135 -0.0367  0.1292 -0.5630
   13MOL   H113 3257   4.724   1.166   2.975  0.3515 -3.1574 -1.1589
   13MOL   H114 3258   4.575   1.072   2.949  0.7842 -0.1244 -0.3918
   13MOL   H115 3259   4.450   1.276   2.882 -1.0832 -1.5601  2.1167
   13MOL   H116 3260   4.586   1.392   2.915 -0.2724 -0.9893 -0.9259
   13MOL   H117 3261   4.536   0.976   3.161 -1.4426 -2.4313  1.0327
   13MOL   H118 3262   4.564   1.080   3.301  2.5537 -0.5407 -3.0883
   13MOL   C119 3263   4.386   0.961   3.314  0.0557 -0.3824 -0.0314
   13MOL   C120 3264   4.258   0.932   3.233 -0.4684  0.3782  0.6526
   13MOL   C121 3265   4.140   1.026   3.228  1.0142 -0.8797  0.0924
   13MOL   C122 3266   4.130   0.901   3.302  0.2055  0.1160 -0.3884
   13MOL   C123 3267   4.446   0.828   3.375 -0.6351 -0.5618 -0.1157
   13MOL   H124 3268   4.349   1.021   3.397  2.2672 -1.0962  1.5352
   13MOL   H125 3269   4.283   0.872   3.146  0.3940  0.2623  0.9700
   13MOL   H126 3270   4.085   1.023   3.134  0.5525  2.1513  0.2207
   13MOL   H127 3271   4.141   1.125   3.272  0.6958  0.2856 -2.4216
   13MOL   H128 3272   4.136   0.916   3.410 -0.0186 -0.0882 -0.3476
   13MOL   H129 3273   4.064   0.823   3.268 -1.8056  0.3717  2.7119
   13MOL   H130 3274   4.375   0.750   3.402  0.6752 -1.1522  1.6793
   13MOL   H131 3275   4.509   0.779   3.300 -0.4009 -0.1636 -0.1804
   13MOL   C132 3276   4.527   0.858   3.498  0.2121 -0.0746  0.1669
   13MOL   C133 3277   4.579   0.725   3.562 -0.1239 -0.4684  0.3636
   13MOL   C134 3278   4.566   0.589   3.504 -0.1838 -0.1074 -0.5052
   13MOL   C135 3279   4.498   0.627   3.640 -0.8069 -0.0648 -0.3861
   13MOL   C136 3280   4.466   0.955   3.611  0.4686 -0.2867 -0.4595
   13MOL   H137 3281   4.614   0.915   3.464 -0.5217  1.2688  0.5168
   13MOL   H138 3282   4.674   0.737   3.614 -0.9702  0.9082  1.6282
   13MOL   H139 3283   4.505   0.571   3.416 -1.5368  2.0889 -0.0703
   13MOL   H140 3284   4.645   0.515   3.514  0.5401  0.7523  0.2426
   13MOL   H141 3285   4.389   0.618   3.642 -0.7827 -0.2423  0.8483
   13MOL   H142 3286   4.539   0.583   3.731 -1.3344  1.1294  0.4408
   13MOL   H143 3287   4.358   0.956   3.602  0.3829  0.8211  0.4923
   13MOL   H144 3288   4.490   0.910   3.707  0.7961  0.3254 -0.2514
   13MOL   C145 3289   4.527   1.102   3.611 -0.1742 -0.6665 -0.3170
   13MOL   C146 3290   4.443   1.205   3.684  0.5900 -0.3939  0.0156
   13MOL   C147 3291   4.436   1.353   3.642 -0.3214 -0.5745  0.6003
   13MOL   C148 3292   4.319   1.253   3.617 -0.0972 -0.2168  0.5549
   13MOL   C149 3293   4.678   1.081   3.665 -0.9292 -0.1454  0.0307
   13MOL   H150 3294   4.527   1.136   3.508 -0.7264  1.6863  0.4285
   13MOL   H151 3295   4.433   1.199   3.793 -1.5091  0.4156 -0.1154
   13MOL   H152 3296   4.423   1.429   3.719  3.2162 -0.3253  1.0426
   13MOL   H153 3297   4.492   1.384   3.554  2.2017 -0.9029  2.0156
   13MOL   H154 3298   4.289   1.209   3.522 -0.1869  0.4769  0.2586
   13MOL   H155 3299   4.230   1.280   3.673 -1.1601 -0.7026 -0.8643
   13MOL   H156 3300   4.669   1.067   3.773  1.2213 -0.8738  0.1341
   13MOL   H157 3301   4.732   0.994   3.625  0.5786  0.7423  0.1067
   13MOL   C158 3302   4.772   1.205   3.641 -0.6455 -0.4902  0.1784
   13MOL   C159 3303   4.837   1.185   3.509  0.5926 -0.4457 -0.6620
   13MOL   C160 3304   4.784   1.243   3.381 -0.4574 -0.1467 -0.0305
   13MOL   C161 3305   4.913   1.295   3.443  0.8066  0.4567 -0.7246
   13MOL   C162 3306   4.882   1.225   3.743 -0.4316 -0.2988  0.1665
   13MOL   H163 3307   4.723   1.300   3.619 -0.8509 -1.0430 -1.8898
   13MOL   H164 3308   4.902   1.098   3.506  0.4453 -0.7368  2.6305
   13MOL   H165 3309   4.686   1.291   3.387 -0.2189  0.4792 -1.0156
   13MOL   H166 3310   4.789   1.171   3.299 -0.5768  0.5067 -0.6152
   13MOL   H167 3311   5.009   1.269   3.400  0.8004  1.0086 -1.0794
   13MOL   H168 3312   4.907   1.386   3.503 -0.7609 -0.9219  1.3053
   13MOL   H169 3313   4.961   1.280   3.693 -1.1301 -0.9196 -1.6509
   13MOL   H170 3314   4.919   1.126   3.769 -1.7293 -0.3330  1.9860
   13MOL   C171 3315   4.845   1.294   3.878  1.0729 -0.0118 -0.2106
   13MOL   C172 3316   4.768   1.424   3.861  0.0373 -0.0972  0.4604
   13MOL   C173 3317   4.758   1.528   3.968  0.2793  0.1604  0.3425
   13MOL   C174 3318   4.843   1.550   3.842 -0.3533  0.4134  0.6329
   13MOL   C175 3319   4.781   1.189   3.976  0.3311 -0.2380  0.7234
   13MOL   H176 3320   4.945   1.320   3.915  1.3422  0.5610 -1.2957
   13MOL   H177 3321   4.673   1.409   3.810  0.8929 -1.4306 -0.7643
   13MOL   H178 3322   4.670   1.591   3.968  0.1620  0.0091  1.6471
   13MOL   H179 3323   4.810   1.529   4.063 -1.2226  0.5185  1.1635
   13MOL   H180 3324   4.951   1.534   3.850 -0.2653  0.4972 -0.3182
   13MOL   H181 3325   4.803   1.620   3.769  0.2135  0.0963  0.0154
   13MOL   H182 3326   4.804   1.086   3.950  1.7945  0.3619 -0.4499
   13MOL   H183 3327   4.674   1.185   3.955  0.2175  0.5732  1.1151
   13MOL   C184 3328   4.796   1.224   4.128 -0.1633 -0.2239  0.5481
   13MOL   C185 3329   4.942   1.238   4.174 -0.5542  0.1531 -0.4889
   13MOL   C186 3330   4.979   1.297   4.304  0.1230  0.5041  0.6665
   13MOL   C187 3331   5.025   1.362   4.177  0.6437 -0.9369  0.3743
   13MOL   C188 3332   4.736   1.118   4.210 -0.3139  0.5968 -0.2860
   13MOL   H189 3333   4.748   1.319   4.152 -2.4017 -1.2195  0.1008
   13MOL   H190 3334   4.999   1.149   4.146 -2.1678 -0.8035 -0.8302
   13MOL   H191 3335   5.044   1.232   4.364 -0.5388  0.2497  1.1166
   13MOL   H192 3336   4.902   1.342   4.366 -2.7142 -2.5409 -0.4790
   13MOL   H193 3337   5.121   1.328   4.140 -0.1248 -2.1896 -0.5075
   13MOL   H194 3338   4.987   1.463   4.172 -0.3620 -1.3567 -0.7682
   13MOL   H195 3339   4.776   1.122   4.311 -1.8890 -1.0388  0.4188
   13MOL   H196 3340   4.769   1.019   4.179 -1.2724  0.0072  0.5415
   13MOL   C197 3341   4.579   1.104   4.232 -0.5976  0.1112 -0.7662
   13MOL   C198 3342   4.519   1.236   4.278  0.0650 -0.0389  0.4921
   13MOL   C199 3343   4.370   1.268   4.288  0.3878  0.1077  0.3896
   13MOL   C200 3344   4.450   1.329   4.183  0.6370 -0.4247 -0.4518
   13MOL   C201 3345   4.542   0.988   4.334  0.5113  0.8723  0.6772
   13MOL   H202 3346   4.534   1.084   4.135 -0.3531 -1.0601 -0.6397
   13MOL   H203 3347   4.556   1.272   4.373  1.4527  0.1113 -0.0930
   13MOL   H204 3348   4.303   1.189   4.255 -0.7538  1.0634  0.3624
   13MOL   H205 3349   4.336   1.329   4.371 -3.0561  2.1849 -2.3769
   13MOL   H206 3350   4.436   1.302   4.078  0.5902  3.7636 -1.6367
   13MOL   H207 3351   4.472   1.435   4.196 -0.3915 -0.0884 -1.3711
   13MOL   H208 3352   4.600   1.005   4.425 -0.6224  1.1093  1.3700
   13MOL   H209 3353   4.441   1.003   4.370 -0.2273 -1.1520 -0.4386
   13MOL   C210 3354   4.566   0.840   4.289 -0.0242 -0.6267  0.1009
   13MOL   C211 3355   4.534   0.753   4.402  0.4409  0.0188  0.4113
   13MOL   C212 3356   4.605   0.630   4.446 -0.3855 -0.6482  0.4827
   13MOL   C213 3357   4.614   0.756   4.530 -1.9620 -0.3724  0.1966
   13MOL   C214 3358   4.481   0.803   4.169  0.1584  0.5914 -0.2987
   13MOL   H215 3359   4.672   0.832   4.267  0.4368  1.3470  1.4108
   13MOL   H216 3360   4.428   0.758   4.427 -0.2767 -2.3023 -1.8804
   13MOL   H217 3361   4.553   0.547   4.494 -0.6464 -1.5017 -1.2266
   13MOL   H218 3362   4.698   0.605   4.395 -0.9658  2.1037 -2.0024
   13MOL   H219 3363   4.558   0.765   4.623 -0.0812 -2.4238  1.5591
   13MOL   H220 3364   4.708   0.810   4.526 -2.1705  0.0258  0.6846
   13MOL   H221 3365   4.378   0.832   4.194  0.1797 -0.5978  1.2303
   13MOL   H222 3366   4.501   0.876   4.091  0.5211  1.5597  0.6817
   13MOL   C223 3367   4.484   0.664   4.106  0.4578 -0.6529 -0.1209
   13MOL   C224 3368   4.620   0.636   4.036 -0.5098 -0.2012  0.6276
   13MOL   C225 3369   4.731   0.551   4.092  0.4614  0.0592  0.1548
   13MOL   C226 3370   4.641   0.506   3.982  0.4025 -0.0440 -0.2784
   13MOL   C227 3371   4.373   0.652   3.997  0.1123 -0.2539 -0.4468
   13MOL   H228 3372   4.465   0.597   4.190  0.9090  1.1185  1.4323
   13MOL   H229 3373   4.643   0.716   3.967 -1.4013  0.4733  1.1053
   13MOL   H230 3374   4.725   0.509   4.192 -2.1384 -0.8582 -0.3316
   13MOL   H231 3375   4.832   0.578   4.064  0.5776  1.2121  1.5930
   13MOL   H232 3376   4.676   0.487   3.881  1.6730 -0.7811  0.2807
   13MOL   H233 3377   4.570   0.438   4.029 -1.3904  2.5299  0.8139
   13MOL   H234 3378   4.383   0.738   3.930  0.4859  0.9001  1.0472
   13MOL   H235 3379   4.392   0.559   3.943  0.5800 -1.0370  1.0538
   13MOL   C236 3380   4.228   0.642   4.046  0.3804  0.5072  0.1695
   13MOL   C237 3381   4.205   0.524   4.144 -0.4250 -0.0309  0.3192
   13MOL   C238 3382   4.214   0.548   4.288 -0.3803 -0.7300  0.5734
   13MOL   C239 3383   4.080   0.524   4.220  0.5441  0.6723 -0.5197
   13MOL   C240 3384   4.136   0.626   3.920  0.7795 -0.0323 -0.1652
   13MOL   H241 3385   4.213   0.735   4.101  1.2795  0.9602 -0.3295
   13MOL   H242 3386   4.233   0.429   4.099  2.0358  0.7824  0.0231
   13MOL   H243 3387   4.272   0.471   4.337  0.7895  0.0514  0.4271
   13MOL   H244 3388   4.234   0.648   4.325  0.8683 -1.4560  1.8965
   13MOL   H245 3389   4.011   0.607   4.211  0.1817  0.4284 -0.0084
   13MOL   H246 3390   4.034   0.434   4.261 -0.8091  1.0655 -1.1709
   13MOL   H247 3391   4.174   0.538   3.869 -0.1243  0.4232 -1.6726
   13MOL   H248 3392   4.036   0.597   3.953  0.1511 -0.0328 -1.9694
   13MOL   C249 3393   4.121   0.743   3.827  0.3608  0.5676 -0.7942
   13MOL   C250 3394   4.056   0.868   3.881 -0.1144  0.4075 -0.0166
   13MOL   C251 3395   4.146   0.984   3.920 -0.3235  0.4128 -0.2543
   13MOL   C252 3396   4.054   0.998   3.807 -0.0928 -0.2562  0.4402
   13MOL   C253 3397   4.045   0.679   3.703  0.0568  0.0637  0.1544
   13MOL   H254 3398   4.214   0.781   3.785  0.6677  2.0184  1.1282
   13MOL   H255 3399   3.971   0.850   3.946  0.7322 -2.7017  0.3334
   13MOL   H256 3400   4.122   1.058   3.996 -0.9034 -0.8030  0.7605
   13MOL   H257 3401   4.254   0.980   3.904 -0.3946 -0.8719 -0.4412
   13MOL   H258 3402   3.962   1.056   3.810 -2.1911 -3.5318  1.8377
   13MOL   H259 3403   4.086   0.991   3.703 -3.7615  0.0102 -0.7791
   13MOL   H260 3404   3.941   0.666   3.731  0.6151 -0.8310  1.8637
   13MOL   H261 3405   4.083   0.581   3.676  1.2004  0.8936 -1.3201
   13MOL   H262 3406   4.051   0.738   3.611 -1.9696  0.5451  0.3076
   14MOL     C1 3407   2.757   6.011   4.908  0.3414  0.5583 -0.1114
   14MOL     C2 3408   2.837   5.906   4.991  0.2149  0.2213  0.4705
   14MOL     C3 3409   2.921   5.800   4.912  0.1144  0.2124 -0.2535
   14MOL     C4 3410   2.797   5.755   4.989 -0.4809  0.0341  0.1762
   14MOL     C5 3411   2.843   6.129   4.858  0.4204 -0.9339 -0.0713
   14MOL     H6 3412   2.688   5.964   4.837  1.7906 -0.9579 -0.5481
   14MOL     H7 3413   2.887   5.951   5.076  1.5733  2.0339 -1.2283
   14MOL     H8 3414   2.929   5.797   4.803  3.3103 -0.2996 -0.0546
   14MOL     H9 3415   3.003   5.737   4.946 -0.7093  0.0505  1.4882
   14MOL    H10 3416   2.812   5.706   5.085 -1.1782  0.3754  0.4609
   14MOL    H11 3417   2.710   5.729   4.929 -1.3755  2.3764  0.4028
   14MOL    H12 3418   2.924   6.076   4.806  0.5947 -0.8318  0.0944
   14MOL    H13 3419   2.890   6.179   4.943  0.4589 -0.4119 -0.3954
   14MOL    H14 3420   2.689   6.058   4.980 -1.2398 -1.2601 -0.3683
   14MOL    C15 3421   2.772   6.235   4.771 -0.7531 -0.8460  0.1810
   14MOL    C16 3422   2.676   6.319   4.850  0.2693 -0.2580  0.2370
   14MOL    C17 3423   2.531   6.279   4.865 -0.0019  0.3512  0.2526
   14MOL    C18 3424   2.571   6.414   4.813  0.5616  0.1070  0.5660
   14MOL    C19 3425   2.878   6.330   4.708 -0.0558 -0.1326 -0.1407
   14MOL    H20 3426   2.721   6.186   4.688 -1.9482  0.3988  0.1729
   14MOL    H21 3427   2.717   6.351   4.946  0.5931 -0.3838  0.1439
   14MOL    H22 3428   2.499   6.271   4.969 -0.5537 -0.2330  0.0407
   14MOL    H23 3429   2.491   6.212   4.789  2.0587 -0.1142 -0.4734
   14MOL    H24 3430   2.539   6.423   4.709  1.2293  3.4456  0.6003
   14MOL    H25 3431   2.570   6.501   4.878  1.6610  0.5763 -0.0319
   14MOL    H26 3432   2.962   6.265   4.681 -1.2924 -0.7940 -2.5058
   14MOL    H27 3433   2.912   6.402   4.782 -2.6382  2.0945 -1.0777
   14MOL    C28 3434   2.836   6.406   4.578 -0.5506  0.0271 -0.4056
   14MOL    C29 3435   2.852   6.314   4.450  0.7008 -0.7760  0.3834
   14MOL    C30 3436   2.899   6.356   4.311 -0.2178  0.5453  0.2129
   14MOL    C31 3437   2.990   6.275   4.406 -1.0175 -0.3325 -0.1758
   14MOL    C32 3438   2.928   6.531   4.564 -0.9314 -0.3858  0.0343
   14MOL    H33 3439   2.734   6.445   4.580 -0.5625 -0.0820  1.4845
   14MOL    H34 3440   2.766   6.248   4.443  0.1550 -0.0803  0.4896
   14MOL    H35 3441   2.911   6.463   4.296 -0.3064  0.2259 -2.4767
   14MOL    H36 3442   2.854   6.305   4.226  1.4333 -0.4920 -0.0553
   14MOL    H37 3443   3.068   6.335   4.452 -1.3521  0.4104 -0.5805
   14MOL    H38 3444   3.010   6.169   4.387 -0.0654 -0.4361  1.2940
   14MOL    H39 3445   2.912   6.578   4.467 -0.4418 -0.0379  0.1222
   14MOL    H40 3446   3.034   6.508   4.565 -1.0257 -0.9836 -1.8110
   14MOL    C41 3447   2.892   6.651   4.671  0.2955 -0.5042  0.1632
   14MOL    C42 3448   2.811   6.767   4.602  0.1294  0.3749 -0.1347
   14MOL    C43 3449   2.681   6.825   4.652  0.1526  0.8971 -0.1037
   14MOL    C44 3450   2.677   6.743   4.531 -0.0641  0.0148  0.4451
   14MOL    C45 3451   3.009   6.703   4.752 -0.2491 -0.5080  0.0792
   14MOL    H46 3452   2.826   6.605   4.745  0.2165 -1.6752 -0.6213
   14MOL    H47 3453   2.880   6.843   4.567  1.5698 -1.6176 -1.7444
   14MOL    H48 3454   2.651   6.770   4.741  1.4891  0.3611  0.0322
   14MOL    H49 3455   2.650   6.929   4.643  0.2141  0.8991 -0.2936
   14MOL    H50 3456   2.685   6.786   4.431  1.0549  0.6268  0.7936
   14MOL    H51 3457   2.639   6.641   4.525 -0.1617 -0.0182  1.5169
   14MOL    H52 3458   3.076   6.769   4.698 -2.9578  3.4055  1.2936
   14MOL    H53 3459   3.067   6.615   4.780 -1.8117 -1.3887  0.6211
   14MOL    C54 3460   2.980   6.770   4.886  0.2053 -0.2699  0.6819
   14MOL    C55 3461   2.930   6.670   4.989 -0.0496  0.4556 -0.1734
   14MOL    C56 3462   2.782   6.657   5.013 -0.0360 -0.1375 -0.4317
   14MOL    C57 3463   2.866   6.719   5.119  0.2903 -0.2528 -0.1913
   14MOL    C58 3464   3.103   6.850   4.944 -0.3625 -0.5077 -0.6323
   14MOL    H59 3465   2.902   6.845   4.874 -1.1608 -1.7013  0.3724
   14MOL    H60 3466   2.990   6.580   4.996 -1.0484 -0.2700 -0.8195
   14MOL    H61 3467   2.710   6.722   4.962 -1.6267 -1.8726 -0.4255
   14MOL    H62 3468   2.749   6.554   5.023  0.5378 -0.2054  0.8404
   14MOL    H63 3469   2.883   6.663   5.211  1.2080  1.3912  0.6624
   14MOL    H64 3470   2.847   6.826   5.127  2.4744  0.0275  1.8552
   14MOL    H65 3471   3.142   6.801   5.033  2.2515 -0.2875 -1.6121
   14MOL    H66 3472   3.185   6.851   4.872 -1.5199  0.3098 -1.9443
   14MOL    C67 3473   3.081   6.996   4.982  0.0027 -0.2168 -0.0775
   14MOL    C68 3474   3.176   7.039   5.088  0.2752  0.4587  0.2647
   14MOL    C69 3475   3.133   7.128   5.204  0.4517 -0.6496 -0.5323
   14MOL    C70 3476   3.172   6.983   5.230  0.2895 -0.3693 -0.5481
   14MOL    C71 3477   3.091   7.087   4.866  0.1758 -0.1652 -0.1300
   14MOL    H72 3478   2.980   7.006   5.023 -0.1281  0.3103 -0.5273
   14MOL    H73 3479   3.281   7.032   5.061 -0.1861 -1.6139 -1.0695
   14MOL    H74 3480   3.207   7.202   5.234 -0.6518  0.1412  0.2541
   14MOL    H75 3481   3.030   7.150   5.230  0.1001 -0.6576 -1.8785
   14MOL    H76 3482   3.093   6.919   5.268  0.0099 -0.0055 -0.5204
   14MOL    H77 3483   3.267   6.964   5.280  0.3434 -0.9177 -0.8512
   14MOL    H78 3484   3.101   7.017   4.783 -1.0078  1.3557 -1.5728
   14MOL    H79 3485   3.183   7.145   4.874  0.9356 -1.1275 -1.6134
   14MOL    C80 3486   2.972   7.187   4.837 -0.4532 -0.8241  0.3309
   14MOL    C81 3487   2.832   7.126   4.809 -0.7442 -0.3442 -1.0624
   14MOL    C82 3488   2.701   7.194   4.823  0.6454  0.1830  0.3713
   14MOL    C83 3489   2.739   7.095   4.920 -0.2550  0.2035 -0.2076
   14MOL    C84 3490   3.005   7.307   4.736 -0.2242 -0.5360  0.1253
   14MOL    H85 3491   2.962   7.243   4.930 -1.3054 -1.2411  0.4919
   14MOL    H86 3492   2.840   7.051   4.730  2.7044 -0.7173 -0.4334
   14MOL    H87 3493   2.620   7.166   4.755  1.5275 -1.6415  0.0538
   14MOL    H88 3494   2.688   7.294   4.865 -1.3044  0.1172 -0.0105
   14MOL    H89 3495   2.778   7.138   5.012  0.2114  0.7321 -0.6479
   14MOL    H90 3496   2.695   6.995   4.924 -2.7166  1.2463  0.1790
   14MOL    H91 3497   2.938   7.387   4.766  0.4752  0.6221 -1.3483
   14MOL    H92 3498   3.100   7.349   4.770 -0.2064  1.4680 -2.2571
   14MOL    C93 3499   2.991   7.295   4.579 -0.0815 -0.2021 -0.1005
   14MOL    C94 3500   3.078   7.176   4.531 -0.0565  0.0165  0.3835
   14MOL    C95 3501   3.142   7.182   4.399  0.0046  0.3394  0.1573
   14MOL    C96 3502   3.222   7.203   4.525  0.6709 -0.5235  0.5373
   14MOL    C97 3503   2.850   7.285   4.526 -0.2958  0.5241 -0.3866
   14MOL    H98 3504   3.043   7.379   4.534 -0.2525  0.5781  1.1238
   14MOL    H99 3505   3.050   7.081   4.576  1.7838 -1.5989 -1.7279
   14MOL   H100 3506   3.154   7.086   4.349  0.1064  1.1084 -1.3499
   14MOL   H101 3507   3.124   7.272   4.340  0.6647  0.1270 -0.3768
   14MOL   H102 3508   3.283   7.116   4.548  0.2898 -1.0792 -0.5014
   14MOL   H103 3509   3.257   7.298   4.564 -0.8359  0.8010 -1.2093
   14MOL   H104 3510   2.786   7.203   4.558  0.6262 -0.5449 -1.2762
   14MOL   H105 3511   2.873   7.255   4.424  1.5346 -0.0481  0.1738
   14MOL   C106 3512   2.775   7.416   4.531 -0.1399  0.2936 -0.4470
   14MOL   C107 3513   2.837   7.521   4.441 -0.5239 -0.5035  0.4097
   14MOL   C108 3514   2.797   7.668   4.456  0.1315  0.0845 -0.8670
   14MOL   C109 3515   2.933   7.623   4.494 -0.2130 -0.8703  0.6252
   14MOL   C110 3516   2.618   7.400   4.503  0.0135 -0.8360 -0.1264
   14MOL   H111 3517   2.780   7.453   4.633 -1.0232 -0.9631  0.0581
   14MOL   H112 3518   2.868   7.481   4.345  2.9035  1.6127  0.5357
   14MOL   H113 3519   2.787   7.726   4.365 -3.2379 -0.2766 -0.8085
   14MOL   H114 3520   2.731   7.694   4.539 -0.3790 -0.3483 -1.1302
   14MOL   H115 3521   2.955   7.638   4.600  0.5386  0.6546  0.2623
   14MOL   H116 3522   3.009   7.661   4.427 -2.2940  1.6693 -0.3543
   14MOL   H117 3523   2.568   7.355   4.589  1.8273 -3.1741 -0.2489
   14MOL   H118 3524   2.563   7.494   4.495  1.8659  0.1705 -1.3722
   14MOL   C119 3525   2.579   7.329   4.369  0.4530 -0.2742 -0.2622
   14MOL   C120 3526   2.440   7.269   4.392 -0.2747 -0.0704  0.1418
   14MOL   C121 3527   2.421   7.146   4.485  0.2564  0.0225 -0.2797
   14MOL   C122 3528   2.411   7.137   4.332  0.1972 -0.1924 -0.7096
   14MOL   C123 3529   2.567   7.428   4.253 -0.5303  0.1986  0.1402
   14MOL   H124 3530   2.650   7.249   4.346 -0.7145 -1.0556 -1.1631
   14MOL   H125 3531   2.362   7.344   4.387 -0.6297 -0.4634 -0.2413
   14MOL   H126 3532   2.327   7.120   4.533  0.1813 -1.0778 -0.9837
   14MOL   H127 3533   2.509   7.103   4.531  1.8006  0.7773 -2.4375
   14MOL   H128 3534   2.496   7.083   4.289  1.7698  1.7802 -0.1620
   14MOL   H129 3535   2.315   7.106   4.291  0.0803 -1.7018  0.6355
   14MOL   H130 3536   2.487   7.496   4.282 -2.1941 -1.7525  0.1307
   14MOL   H131 3537   2.660   7.485   4.244  0.8552 -2.2641 -1.4990
   14MOL   C132 3538   2.544   7.364   4.116 -0.0620  0.2408  0.7164
   14MOL   C133 3539   2.635   7.242   4.085  0.1352 -0.0113  0.3838
   14MOL   C134 3540   2.786   7.258   4.092 -0.2690  0.3496 -0.2738
   14MOL   C135 3541   2.716   7.228   3.961 -0.2836  0.2881  0.6597
   14MOL   C136 3542   2.545   7.477   4.004 -0.4707  0.7859 -0.1150
   14MOL   H137 3543   2.443   7.322   4.117  0.3996 -0.9425 -1.0516
   14MOL   H138 3544   2.609   7.152   4.141  1.0572  0.0046  0.8421
   14MOL   H139 3545   2.844   7.349   4.098  1.0251 -0.4292 -0.7996
   14MOL   H140 3546   2.829   7.174   4.148 -0.9274 -1.3692 -2.2860
   14MOL   H141 3547   2.707   7.305   3.885  1.9248  0.8894  0.9812
   14MOL   H142 3548   2.734   7.127   3.925  0.4999  0.5065  0.4379
   14MOL   H143 3549   2.648   7.513   4.001  0.5476 -2.1031 -0.8665
   14MOL   H144 3550   2.531   7.438   3.903 -0.2898 -0.2430  0.2523
   14MOL   C145 3551   2.452   7.590   4.015 -0.1650 -0.2512 -0.4165
   14MOL   C146 3552   2.504   7.701   3.931 -0.1071 -0.1473  0.2446
   14MOL   C147 3553   2.469   0.009   3.940 -0.3856  0.4278 -0.6227
   14MOL   C148 3554   2.602   7.794   3.991  0.5159 -0.4350 -0.2803
   14MOL   C149 3555   2.307   7.551   3.978 -0.7757  0.6020 -0.3343
   14MOL   H150 3556   2.452   7.628   4.117  0.3024 -1.2949 -0.0165
   14MOL   H151 3557   2.530   7.671   3.829 -0.9155  0.9168 -0.2880
   14MOL   H152 3558   2.477   0.069   3.849  1.4558 -1.0579 -1.4771
   14MOL   H153 3559   2.397   0.033   4.018 -0.4827  0.1704 -0.6338
   14MOL   H154 3560   2.603   7.807   4.099  0.1983  0.5221 -0.3860
   14MOL   H155 3561   2.687   7.831   3.934 -0.1106  0.3139 -0.7346
   14MOL   H156 3562   2.257   7.629   3.921  0.1592  2.2375  1.0291
   14MOL   H157 3563   2.302   7.457   3.923  4.9374  0.8329 -1.4883
   14MOL   C158 3564   2.221   7.525   4.098  0.4021 -0.7007 -0.3042
   14MOL   C159 3565   2.102   7.439   4.069  0.3927  0.6045  0.2617
   14MOL   C160 3566   2.116   7.295   4.101  0.9039 -1.5503 -0.0015
   14MOL   C161 3567   2.019   7.374   4.178  0.2157  0.3673 -0.3084
   14MOL   C162 3568   2.171   7.663   4.150  0.2966  0.4518 -0.6587
   14MOL   H163 3569   2.286   7.474   4.168  0.2738  0.6817  0.8324
   14MOL   H164 3570   2.067   7.450   3.967  0.5396 -3.4998 -0.3037
   14MOL   H165 3571   2.208   7.262   4.148  0.7640 -2.0401 -0.0631
   14MOL   H166 3572   2.059   7.214   4.054 -0.4310 -0.9541  0.5811
   14MOL   H167 3573   1.913   7.358   4.165 -0.0650 -1.1505  3.3149
   14MOL   H168 3574   2.048   7.379   4.283  1.8406 -1.6542 -0.6226
   14MOL   H169 3575   2.086   7.693   4.089 -2.4257 -0.7962  2.3906
   14MOL   H170 3576   2.242   7.742   4.126  0.5373  0.3563 -0.2701
   14MOL   C171 3577   2.130   7.677   4.299  0.4629 -0.1306  0.5644
   14MOL   C172 3578   2.249   7.654   4.397 -0.4297 -0.4198 -0.6200
   14MOL   C173 3579   2.369   7.752   4.420 -0.2743  0.1735  0.1116
   14MOL   C174 3580   2.268   7.736   4.531  0.4255  0.3337  0.2780
   14MOL   C175 3581   2.069   7.819   4.313 -1.1908  0.6437 -0.1492
   14MOL   H176 3582   2.054   7.599   4.304  0.5853 -0.2237  1.0567
   14MOL   H177 3583   2.274   7.549   4.385  0.4334 -0.3868  0.8816
   14MOL   H178 3584   2.469   7.710   4.437 -0.2412  0.5405  0.8545
   14MOL   H179 3585   2.375   0.011   4.374 -0.5414  0.0548 -0.1806
   14MOL   H180 3586   2.209   7.824   4.556 -2.4504 -1.7060  0.9816
   14MOL   H181 3587   2.297   7.689   4.624  0.2586  3.1167  1.7735
   14MOL   H182 3588   2.024   0.017   4.221 -0.1739  0.6362 -0.6539
   14MOL   H183 3589   2.156   0.045   4.322  0.0039 -0.7715 -1.2761
   14MOL   C184 3590   1.968   0.001   4.436  0.0515 -0.6332 -0.0897
   14MOL   C185 3591   1.829   7.794   4.401  0.2298 -0.0318  0.0689
   14MOL   C186 3592   1.736   7.752   4.507  0.2668 -0.0223  0.0698
   14MOL   C187 3593   1.783   7.654   4.403 -0.4432  0.2889 -0.0228
   14MOL   C188 3594   1.961   0.154   4.466  0.4832  1.0364 -0.0709
   14MOL   H189 3595   2.002   7.792   4.528  2.4970  0.2908 -0.4746
   14MOL   H190 3596   1.784   0.010   4.319 -1.3307 -1.4925 -0.0805
   14MOL   H191 3597   1.632   7.775   4.484  0.6342  1.4501 -0.2250
   14MOL   H192 3598   1.769   7.725   4.607 -0.8147  0.9708  0.7116
   14MOL   H193 3599   1.717   7.640   4.318  0.4496  0.9022 -0.8236
   14MOL   H194 3600   1.860   7.579   4.419 -0.3934  0.6740  1.6260
   14MOL   H195 3601   1.911   0.189   4.376 -1.2988  0.3494  0.6247
   14MOL   H196 3602   2.061   0.196   4.461  0.8536 -0.0135 -1.6253
   14MOL   C197 3603   1.884   0.211   4.586  0.7426  0.0944 -0.0901
   14MOL   C198 3604   1.832   0.346   4.545 -0.1172  0.0132 -0.1210
   14MOL   C199 3605   1.703   0.384   4.613  0.1341  0.4171 -0.7056
   14MOL   C200 3606   1.706   0.358   4.462  0.4549  0.1235 -0.1863
   14MOL   C201 3607   1.963   0.213   4.715  0.5386 -0.0026  0.4255
   14MOL   H202 3608   1.793   0.153   4.603 -0.3991  1.6872 -0.6270
   14MOL   H203 3609   1.911   0.420   4.530  0.3317 -0.4321  0.0438
   14MOL   H204 3610   1.630   0.315   4.655  1.0958 -0.5811 -0.6581
   14MOL   H205 3611   1.683   0.486   4.646 -1.4741 -0.5041  1.3395
   14MOL   H206 3612   1.674   0.264   4.417  1.1325  0.4093 -1.2555
   14MOL   H207 3613   1.701   0.444   4.397 -1.3274  1.0288  1.0975
   14MOL   H208 3614   2.064   0.242   4.687  1.0159  0.6011  2.7281
   14MOL   H209 3615   1.923   0.297   4.771  2.5351  1.5771 -0.4620
   14MOL   C210 3616   1.953   0.091   4.811  0.5865  0.6887 -0.3015
   14MOL   C211 3617   2.054   0.121   4.916  0.0967  0.1617  0.1427
   14MOL   C212 3618   2.139   0.005   4.957 -0.2153  0.3897 -0.9625
   14MOL   C213 3619   2.203   0.129   4.900  0.3451  0.9200 -0.7043
   14MOL   C214 3620   1.808   0.065   4.865 -0.6622  0.9805  0.2943
   14MOL   H215 3621   1.986   0.011   4.744 -0.6197  0.5717 -0.7635
   14MOL   H216 3622   2.017   0.188   4.992  1.3971  1.7774 -0.6140
   14MOL   H217 3623   2.142   7.833   5.065 -1.2013 -0.8002 -1.0469
   14MOL   H218 3624   2.123   7.750   4.906 -2.3024  0.4650 -0.4916
   14MOL   H219 3625   2.264   0.184   4.972  0.5420 -0.1032 -0.0901
   14MOL   H220 3626   2.236   0.121   4.797 -0.5139 -0.9821 -0.8395
   14MOL   H221 3627   1.779   0.155   4.918 -0.4397  2.3506 -1.8637
   14MOL   H222 3628   1.730   0.058   4.789  1.2119  1.0068 -1.6813
   14MOL   C223 3629   1.788   7.778   4.943 -0.6282  0.3627  0.2732
   14MOL   C224 3630   1.775   7.653   4.855 -0.1596  0.1787  0.2550
   14MOL   C225 3631   1.894   7.588   4.793 -0.4009  0.1606 -0.2699
   14MOL   C226 3632   1.818   7.521   4.903  0.4665 -0.0085 -0.2327
   14MOL   C227 3633   1.662   7.788   5.028 -0.6014 -0.6940  0.3289
   14MOL   H228 3634   1.872   7.762   5.011  0.6087  0.2919 -1.2486
   14MOL   H229 3635   1.684   7.659   4.794 -0.4672 -1.0273  0.5904
   14MOL   H230 3636   1.992   7.621   4.825 -0.0184 -1.8360  0.6479
   14MOL   H231 3637   1.894   7.539   4.696  0.1752 -1.6948  0.6527
   14MOL   H232 3638   1.770   7.431   4.866  1.1001 -0.4707  0.0545
   14MOL   H233 3639   1.876   7.508   4.994  1.0244 -1.3831 -0.7784
   14MOL   H234 3640   1.570   7.805   4.973  0.6228  0.5596 -1.3596
   14MOL   H235 3641   1.636   7.688   5.064  0.2621 -0.9840  0.1415
   14MOL   C236 3642   1.664   0.041   5.155  0.1156  0.1743  0.4301
   14MOL   C237 3643   1.751   7.818   5.260 -0.2642  0.1659  0.3949
   14MOL   C238 3644   1.893   7.837   5.247  0.7112 -0.4282  0.1883
   14MOL   C239 3645   1.818   0.039   5.374  0.5017 -0.1202  0.0100
   14MOL   C240 3646   1.520   0.057   5.225  0.1174  0.1910  0.5801
   14MOL   H241 3647   1.703   0.140   5.132  0.0488 -0.1050 -0.8756
   14MOL   H242 3648   1.732   7.714   5.285 -0.9385  0.4777  1.2118
   14MOL   H243 3649   1.938   7.738   5.235  0.1810 -0.7143  0.5493
   14MOL   H244 3650   1.929   0.077   5.182 -0.9879 -0.9432 -1.4212
   14MOL   H245 3651   1.804   0.147   5.381  0.0027  0.0984 -3.3196
   14MOL   H246 3652   1.834   7.822   5.466  0.5247 -2.9151 -1.6328
   14MOL   H247 3653   1.471   7.799   5.235 -2.5749  1.1972 -1.9286
   14MOL   H248 3654   1.537   0.085   5.328  0.7265 -3.0131  1.3997
   14MOL   C249 3655   1.421   0.140   5.136 -0.0744  0.4443  0.0287
   14MOL   C250 3656   1.488   0.261   5.079  0.4943 -0.9016  0.4821
   14MOL   C251 3657   1.519   0.262   4.924  0.6562  0.3792  0.1883
   14MOL   C252 3658   1.421   0.359   4.990  0.6390  0.2413 -0.3799
   14MOL   C253 3659   1.284   0.169   5.214 -0.8317  0.1295  0.7269
   14MOL   H254 3660   1.387   0.072   5.057 -1.2917  2.0640 -0.8798
   14MOL   H255 3661   1.554   0.308   5.151  1.7450 -1.4326 -0.3036
   14MOL   H256 3662   1.602   0.320   4.886 -0.5021  1.7120 -0.3590
   14MOL   H257 3663   1.475   0.196   4.849  1.0178  2.1001 -1.5743
   14MOL   H258 3664   1.436   0.466   4.996 -2.3912  0.7090 -0.2497
   14MOL   H259 3665   1.318   0.343   4.958  0.7153 -0.5585 -0.2275
   14MOL   H260 3666   1.310   0.236   5.296  3.2855 -1.7806  1.1510
   14MOL   H261 3667   1.243   0.077   5.256 -1.4803  0.0282 -0.1206
   14MOL   H262 3668   1.212   0.200   5.139 -1.0671 -0.9806  0.4805
   15MOL     C1 3669   4.669   5.757   5.399 -0.0138 -0.0569  0.0677
   15MOL     C2 3670   4.535   5.834   5.406  0.4975 -0.0822  1.0468
   15MOL     C3 3671   4.522   5.973   5.352 -0.3505  0.7370 -0.0796
   15MOL     C4 3672   4.518   5.948   5.502  0.3584  0.2184  0.3281
   15MOL     C5 3673   4.690   5.654   5.509 -0.6423  0.8181 -0.3525
   15MOL     H6 3674   4.668   5.714   5.298  2.0817 -1.3625  0.5720
   15MOL     H7 3675   4.450   5.766   5.404 -0.3532  0.8523  3.5488
   15MOL     H8 3676   4.609   6.018   5.303  0.6396 -1.7383 -0.6502
   15MOL     H9 3677   4.431   5.999   5.298 -1.4218  0.4301  1.5468
   15MOL    H10 3678   4.420   5.935   5.548  1.1829 -0.6415  1.9019
   15MOL    H11 3679   4.603   5.979   5.562  0.6737 -1.1705  0.6244
   15MOL    H12 3680   4.621   5.570   5.497 -0.7865  0.8139  0.4699
   15MOL    H13 3681   4.658   5.700   5.603 -0.3344  0.0466  0.1423
   15MOL    H14 3682   4.757   5.821   5.402  0.9767 -1.2343 -2.4352
   15MOL    C15 3683   4.838   5.599   5.518 -0.5329  0.2149 -0.2581
   15MOL    C16 3684   4.867   5.533   5.654  0.1712  0.8487  0.1308
   15MOL    C17 3685   4.879   5.613   5.789  0.7615 -0.6048 -0.5251
   15MOL    C18 3686   4.991   5.540   5.736  1.0681  0.4194  0.1538
   15MOL    C19 3687   4.880   5.505   5.402 -0.1944  0.1925  0.7768
   15MOL    H20 3688   4.898   5.690   5.520 -0.2293  0.0319 -0.8035
   15MOL    H21 3689   4.813   5.439   5.670 -1.9513  1.7264 -1.6495
   15MOL    H22 3690   4.818   5.574   5.871  0.2986 -2.0837 -1.5354
   15MOL    H23 3691   4.886   5.721   5.778  2.1514 -0.6569 -0.1837
   15MOL    H24 3692   5.063   5.621   5.720 -0.9110  2.1402 -0.3349
   15MOL    H25 3693   5.030   5.447   5.774  2.6305  1.4330  1.0832
   15MOL    H26 3694   4.855   5.566   5.315 -0.9317 -0.7461  0.3182
   15MOL    H27 3695   4.807   5.426   5.386  0.5122 -0.3597  0.2218
   15MOL    C28 3696   5.029   5.449   5.407  0.5216 -0.3328 -0.3042
   15MOL    C29 3697   5.105   5.472   5.278  0.1524 -0.2215  0.7707
   15MOL    C30 3698   5.137   5.623   5.248  0.7470 -0.3048 -0.2095
   15MOL    C31 3699   5.244   5.525   5.276 -0.4236 -0.1168 -0.9376
   15MOL    C32 3700   5.025   5.306   5.454  0.1509  0.0336  0.6154
   15MOL    H33 3701   5.085   5.508   5.480 -0.4286  0.4703 -0.2045
   15MOL    H34 3702   5.076   5.411   5.193  2.7646  0.8673 -0.9769
   15MOL    H35 3703   5.103   5.692   5.325 -1.4889 -0.3419 -1.1224
   15MOL    H36 3704   5.126   5.663   5.147  3.7680  1.5112  0.1157
   15MOL    H37 3705   5.299   5.530   5.370 -1.4164  1.5464 -0.4204
   15MOL    H38 3706   5.305   5.493   5.192 -1.1786 -4.5453  0.0716
   15MOL    H39 3707   4.965   5.251   5.382  2.6687 -0.7487 -0.9469
   15MOL    H40 3708   4.969   5.297   5.547  1.7798  0.3359  1.6505
   15MOL    C41 3709   5.155   5.241   5.478  0.2930 -0.2614 -0.0970
   15MOL    C42 3710   5.153   5.089   5.456  0.6796 -0.6650 -0.6187
   15MOL    C43 3711   5.270   5.011   5.388 -0.2841 -0.3910 -0.6996
   15MOL    C44 3712   5.136   5.025   5.316 -0.1779  0.7303  0.1794
   15MOL    C45 3713   5.194   5.273   5.630 -0.1150  0.1013 -0.1171
   15MOL    H46 3714   5.232   5.281   5.411  0.0835 -0.0540 -0.2158
   15MOL    H47 3715   5.077   5.044   5.519 -1.7571  2.8591 -0.8937
   15MOL    H48 3716   5.349   5.062   5.335 -2.2040  0.7583 -2.4993
   15MOL    H49 3717   5.302   4.924   5.446  2.3773  1.3160  0.4931
   15MOL    H50 3718   5.086   4.930   5.298 -0.5078  0.6322  1.5460
   15MOL    H51 3719   5.125   5.100   5.239 -0.6856  1.1459  0.6528
   15MOL    H52 3720   5.119   5.229   5.695  0.9070 -1.9258 -0.2853
   15MOL    H53 3721   5.194   5.382   5.634 -2.8197  0.1636 -1.0363
   15MOL    C54 3722   5.338   5.228   5.673  0.1859 -0.4557 -0.1442
   15MOL    C55 3723   5.447   5.324   5.614  1.0388  0.5176  1.1068
   15MOL    C56 3724   5.524   5.285   5.494 -0.0858  0.1832 -0.1161
   15MOL    C57 3725   5.592   5.284   5.628 -0.2977 -0.0278  0.2073
   15MOL    C58 3726   5.353   5.250   5.830 -0.8003 -0.7526 -0.6314
   15MOL    H59 3727   5.347   5.122   5.648 -1.8014 -0.8525  0.7573
   15MOL    H60 3728   5.433   5.431   5.624 -1.0734  0.3210  0.4838
   15MOL    H61 3729   5.506   5.185   5.457 -0.1936  0.3637 -0.5494
   15MOL    H62 3730   5.560   5.367   5.433  0.9370  1.4796  2.1652
   15MOL    H63 3731   5.657   5.368   5.647  1.1519 -1.2501  0.7477
   15MOL    H64 3732   5.627   5.189   5.668 -0.9076 -0.5518 -0.4783
   15MOL    H65 3733   5.459   5.253   5.853 -1.1176 -1.3389  0.9860
   15MOL    H66 3734   5.314   5.350   5.850 -0.9015 -0.9574  0.2245
   15MOL    C67 3735   5.282   5.148   5.930  0.0971  0.1297  0.0111
   15MOL    C68 3736   5.347   5.013   5.938 -0.2480  0.1610  0.0111
   15MOL    C69 3737   5.277   4.895   5.997  0.2360 -0.3282 -0.3053
   15MOL    C70 3738   5.318   4.900   5.850  0.3160  0.1615  0.1106
   15MOL    C71 3739   5.295   5.217   6.070  0.4384  0.0887 -0.5645
   15MOL    H72 3740   5.179   5.133   5.897 -0.1392  0.3024  0.6544
   15MOL    H73 3741   5.448   5.027   5.977 -0.2888 -0.6896  0.4220
   15MOL    H74 3742   5.339   4.832   6.061  0.2974  0.3431  0.2872
   15MOL    H75 3743   5.175   4.915   6.026  0.6778  0.7658  0.5345
   15MOL    H76 3744   5.260   4.939   5.766 -0.8390 -0.4293  0.6201
   15MOL    H77 3745   5.406   4.850   5.811 -0.6081 -2.9032  1.8261
   15MOL    H78 3746   5.397   5.255   6.079 -0.0097  1.1166  0.2457
   15MOL    H79 3747   5.288   5.152   6.157 -0.3394  0.5697 -0.2673
   15MOL    C80 3748   5.190   5.334   6.089 -0.1378 -0.7632  0.3963
   15MOL    C81 3749   5.258   5.469   6.117 -0.2110 -0.3856  0.5661
   15MOL    C82 3750   5.178   5.601   6.116  0.0979 -0.0223  0.0995
   15MOL    C83 3751   5.281   5.569   6.001  0.0481 -0.0743  0.2984
   15MOL    C84 3752   5.094   5.304   6.207 -0.1330  0.0520 -0.1074
   15MOL    H85 3753   5.127   5.353   6.002  0.7059  0.7068  0.0946
   15MOL    H86 3754   5.332   5.465   6.196 -1.0636 -0.9931  1.3526
   15MOL    H87 3755   5.209   5.675   6.189 -1.6297  0.8529 -0.0270
   15MOL    H88 3756   5.074   5.607   6.086 -1.0722 -2.2458  3.4275
   15MOL    H89 3757   5.238   5.547   5.903 -0.1448  0.9305  0.1513
   15MOL    H90 3758   5.350   5.653   6.005 -1.0538  0.9012 -0.6778
   15MOL    H91 3759   5.153   5.263   6.289  2.4339  0.6989 -1.5651
   15MOL    H92 3760   5.041   5.395   6.235 -0.1680 -0.5907  1.9289
   15MOL    C93 3761   4.984   5.208   6.169 -0.0875  0.6211 -0.5935
   15MOL    C94 3762   4.947   5.108   6.277 -0.1053  0.2434 -0.8357
   15MOL    C95 3763   4.926   4.967   6.244 -0.5972  0.5346 -0.4008
   15MOL    C96 3764   5.040   5.010   6.334  0.8251 -0.1084 -0.3774
   15MOL    C97 3765   4.857   5.281   6.116  0.5408  0.0200 -0.2736
   15MOL    H98 3766   5.022   5.152   6.083  3.1083  0.5920  0.7668
   15MOL    H99 3767   4.865   5.145   6.338 -1.0548  2.0684 -3.1761
   15MOL   H100 3768   4.835   4.918   6.279 -0.4858  2.6572  3.0743
   15MOL   H101 3769   4.967   4.928   6.151 -1.3051  2.1772 -1.4113
   15MOL   H102 3770   5.030   4.985   6.439  1.3013 -1.9078 -0.7427
   15MOL   H103 3771   5.136   5.005   6.282  0.2960  2.1097 -1.6509
   15MOL   H104 3772   4.887   5.374   6.067 -0.0551  0.6553  0.5554
   15MOL   H105 3773   4.802   5.332   6.195 -0.5114  1.4650 -1.8891
   15MOL   C106 3774   4.754   5.194   6.036 -0.2495 -0.0323 -0.2056
   15MOL   C107 3775   4.613   5.245   6.066  0.5958 -0.4646  0.1652
   15MOL   C108 3776   4.488   5.171   6.026  1.0537 -0.3219 -0.3068
   15MOL   C109 3777   4.531   5.173   6.169 -0.0432 -0.2908  0.1019
   15MOL   C110 3778   4.782   5.207   5.889 -0.1603 -0.2011  0.3957
   15MOL   H111 3779   4.753   5.091   6.071 -2.6011 -0.3608 -1.1696
   15MOL   H112 3780   4.599   5.353   6.075 -0.4598 -0.6889  1.2223
   15MOL   H113 3781   4.392   5.223   6.021 -0.1330 -1.5692  5.4486
   15MOL   H114 3782   4.482   5.072   5.981 -0.9524 -0.9398  1.1970
   15MOL   H115 3783   4.558   5.075   6.208  2.3382  0.0045 -0.7289
   15MOL   H116 3784   4.469   5.232   6.237  3.1675  2.9582  0.3926
   15MOL   H117 3785   4.735   5.291   5.839  0.8819  0.3541  0.3205
   15MOL   H118 3786   4.888   5.226   5.872 -0.4934  1.1250 -0.2080
   15MOL   C119 3787   4.758   5.079   5.808 -0.9517 -0.3852 -0.3672
   15MOL   C120 3788   4.731   5.122   5.668  0.2217 -0.1731 -0.1848
   15MOL   C121 3789   4.596   5.166   5.624  0.7772 -0.0648 -0.6079
   15MOL   C122 3790   4.648   5.035   5.574  0.8383 -0.0974  0.3657
   15MOL   C123 3791   4.877   4.975   5.824 -0.5000 -0.1430  0.5951
   15MOL   H124 3792   4.666   5.035   5.847 -0.4896 -2.2431 -1.3496
   15MOL   H125 3793   4.814   5.179   5.627 -0.4084  0.3189 -0.7842
   15MOL   H126 3794   4.596   5.241   5.546 -0.8952 -0.6435 -1.1940
   15MOL   H127 3795   4.520   5.187   5.699  2.0293 -0.7193  0.8651
   15MOL   H128 3796   4.604   4.947   5.622 -1.5858  1.0338  0.2908
   15MOL   H129 3797   4.678   5.012   5.472  0.4213 -0.3328  0.2952
   15MOL   H130 3798   4.969   5.009   5.777 -0.1680 -1.1811  0.4872
   15MOL   H131 3799   4.901   4.974   5.930  1.4764  1.2935  0.1926
   15MOL   C132 3800   4.850   4.831   5.781 -0.2600 -0.5960 -0.3154
   15MOL   C133 3801   4.776   4.767   5.903 -0.0375 -0.2894 -1.0441
   15MOL   C134 3802   4.678   4.650   5.912  0.0355 -0.5433 -0.2339
   15MOL   C135 3803   4.627   4.797   5.906  0.3647  0.8008 -0.2446
   15MOL   C136 3804   4.979   4.755   5.746  0.6643  0.2277  0.0694
   15MOL   H137 3805   4.788   4.819   5.692  0.8674  0.1153 -1.2068
   15MOL   H138 3806   4.827   4.788   5.997 -0.4644 -1.1704 -0.6098
   15MOL   H139 3807   4.651   4.586   5.828 -1.6571  1.9976 -1.6912
   15MOL   H140 3808   4.660   4.607   6.010  0.4826  1.4113  0.7189
   15MOL   H141 3809   4.575   4.841   5.821 -2.2712  0.9321  1.3722
   15MOL   H142 3810   4.593   4.834   6.002  2.9944 -1.1683  1.4969
   15MOL   H143 3811   5.020   4.805   5.658 -1.1610  0.2911 -0.7737
   15MOL   H144 3812   5.051   4.785   5.822  0.0129  1.1725  0.3174
   15MOL   C145 3813   4.969   4.601   5.714  0.6316  0.4540 -1.0135
   15MOL   C146 3814   4.937   4.577   5.571 -0.2906  0.7471 -0.2200
   15MOL   C147 3815   4.843   4.466   5.525  0.3145 -0.0326  0.5969
   15MOL   C148 3816   4.807   4.613   5.506 -0.2687 -0.2727 -0.3176
   15MOL   C149 3817   5.093   4.523   5.762  0.1218  0.0446  0.3512
   15MOL   H150 3818   4.884   4.555   5.763  2.0320  0.7684  1.7795
   15MOL   H151 3819   5.022   4.595   5.504 -1.0263  0.9107 -1.1233
   15MOL   H152 3820   4.879   4.414   5.436 -2.7535 -0.6749 -0.3051
   15MOL   H153 3821   4.795   4.412   5.606 -0.0531 -1.7165 -0.7076
   15MOL   H154 3822   4.735   4.658   5.574  1.3841  1.5995  0.2448
   15MOL   H155 3823   4.799   4.661   5.409 -2.5721 -0.5991 -0.3272
   15MOL   H156 3824   5.093   4.419   5.732 -2.7134  0.3279 -0.7656
   15MOL   H157 3825   5.168   4.569   5.697 -0.7739  0.8293 -0.1347
   15MOL   C158 3826   5.123   4.528   5.917  0.0653  0.3884  0.5424
   15MOL   C159 3827   5.253   4.448   5.940 -0.0395  0.1867 -0.4370
   15MOL   C160 3828   5.379   4.481   5.869  0.0443  0.2856  0.0734
   15MOL   C161 3829   5.371   4.506   6.018  0.1300  0.0314 -0.0806
   15MOL   C162 3830   5.004   4.473   6.000  0.4713 -0.1411  0.2103
   15MOL   H163 3831   5.140   4.631   5.950  2.2828  0.6260 -1.2295
   15MOL   H164 3832   5.229   4.342   5.954  1.3524 -0.0596  0.2522
   15MOL   H165 3833   5.387   4.578   5.821  2.1957 -1.3253 -2.9332
   15MOL   H166 3834   5.434   4.401   5.820  0.8541  1.5725 -1.1343
   15MOL   H167 3835   5.437   4.439   6.074  0.8814  2.0063  1.4457
   15MOL   H168 3836   5.360   4.605   6.060  0.2375 -1.0638  2.6379
   15MOL   H169 3837   4.978   4.369   5.978 -1.6557  0.5647 -0.7764
   15MOL   H170 3838   4.911   4.525   5.977  0.2167 -0.6105  0.1638
   15MOL   C171 3839   5.018   4.474   6.153 -0.0196  0.1709  0.5945
   15MOL   C172 3840   5.033   4.611   6.201 -0.0284  0.3389 -0.3162
   15MOL   C173 3841   5.065   4.635   6.342  0.5340 -0.6370 -0.3494
   15MOL   C174 3842   5.165   4.673   6.233 -0.0827  0.5875 -1.1426
   15MOL   C175 3843   4.893   4.415   6.221  0.2239  0.6069  0.1792
   15MOL   H176 3844   5.114   4.429   6.176  1.4703  3.6182  1.4192
   15MOL   H177 3845   4.958   4.677   6.159  0.3178  0.9613  0.0332
   15MOL   H178 3846   4.994   4.699   6.394  2.5547  2.1334 -0.8945
   15MOL   H179 3847   5.100   4.548   6.398  0.4105 -0.7826 -0.4973
   15MOL   H180 3848   5.255   4.613   6.247 -0.7313 -0.0084  0.4663
   15MOL   H181 3849   5.192   4.778   6.237 -0.4973  0.6026  1.9449
   15MOL   H182 3850   4.806   4.457   6.173  0.0187  0.0939  0.1012
   15MOL   H183 3851   4.877   4.445   6.325 -1.8356 -4.5954  1.5295
   15MOL   C184 3852   4.872   4.260   6.230 -0.1176 -0.5223 -0.1027
   15MOL   C185 3853   4.722   4.216   6.234 -0.0079  0.3241  0.1277
   15MOL   C186 3854   4.672   4.086   6.181 -0.6088 -0.0007 -0.1200
   15MOL   C187 3855   4.660   4.213   6.091 -0.2612  0.1151 -0.1624
   15MOL   C188 3856   4.957   4.206   6.357 -0.0562 -0.0635  0.1454
   15MOL   H189 3857   4.911   4.215   6.139 -0.1068 -2.1064  0.6616
   15MOL   H190 3858   4.670   4.267   6.314 -2.0775 -0.7966 -0.4734
   15MOL   H191 3859   4.585   4.043   6.229  0.5296 -1.9465  0.2543
   15MOL   H192 3860   4.757   4.020   6.163 -0.8711 -1.5635  3.8025
   15MOL   H193 3861   4.569   4.272   6.086  0.0736  0.5527 -1.0454
   15MOL   H194 3862   4.732   4.246   6.017  1.1886 -0.9068  0.7662
   15MOL   H195 3863   4.890   4.199   6.443 -0.5576  4.3983  0.2588
   15MOL   H196 3864   5.021   4.287   6.392  1.6728 -1.5486  0.4933
   15MOL   C197 3865   5.043   4.080   6.332 -0.0854  0.3280 -0.0788
   15MOL   C198 3866   5.065   4.012   6.468 -0.2723 -0.4924 -0.5810
   15MOL   C199 3867   5.073   3.864   6.487  0.7410  0.0395 -0.1019
   15MOL   C200 3868   4.951   3.939   6.529  1.0772  0.1704 -0.0923
   15MOL   C201 3869   5.170   4.112   6.258 -0.6744 -0.1790 -0.3194
   15MOL   H202 3870   4.989   4.010   6.268  0.7979 -0.5167  0.0712
   15MOL   H203 3871   5.125   4.068   6.539 -0.2992 -0.4723 -0.5742
   15MOL   H204 3872   5.082   3.793   6.406  1.6712 -3.9775  3.3324
   15MOL   H205 3873   5.133   3.825   6.570 -0.1854  0.4198  0.7607
   15MOL   H206 3874   4.865   3.939   6.462 -0.8092  1.3500  2.2630
   15MOL   H207 3875   4.925   3.962   6.632 -1.2359  0.4389 -0.7139
   15MOL   H208 3876   5.136   4.175   6.176 -1.0133  1.3004  0.9128
   15MOL   H209 3877   5.230   4.176   6.323  0.0721 -1.8213  0.6457
   15MOL   C210 3878   5.249   3.996   6.196  0.4414  0.1324  0.0601
   15MOL   C211 3879   5.188   3.956   6.066 -0.6290  0.5992  0.8983
   15MOL   C212 3880   5.220   3.830   5.985  0.9612  0.5599  0.6381
   15MOL   C213 3881   5.081   3.848   6.057 -0.2193 -0.6674 -0.2428
   15MOL   C214 3882   5.407   4.027   6.178 -0.0887  0.1874 -0.4692
   15MOL   H215 3883   5.240   3.912   6.264 -1.6258 -1.1339 -1.7298
   15MOL   H216 3884   5.162   4.047   6.013 -1.4370 -0.7698 -1.1162
   15MOL   H217 3885   5.218   3.837   5.877  0.8043 -0.0028  0.6051
   15MOL   H218 3886   5.278   3.749   6.030 -1.9100 -2.2513 -0.4893
   15MOL   H219 3887   4.992   3.853   5.995 -0.3958 -1.2900 -0.0424
   15MOL   H220 3888   5.065   3.794   6.150 -0.2644  0.8553  0.6600
   15MOL   H221 3889   5.448   3.926   6.168  0.3553  0.1392  1.5562
   15MOL   H222 3890   5.425   4.079   6.083  1.7729  0.3692 -0.0462
   15MOL   C223 3891   5.494   4.082   6.290  0.1377 -0.7325 -0.2665
   15MOL   C224 3892   5.639   4.074   6.245 -0.3270  0.1730  0.2334
   15MOL   C225 3893   5.702   4.158   6.131 -0.7386  0.4893 -0.0185
   15MOL   C226 3894   5.735   4.178   6.281  0.3955  0.9597 -0.0871
   15MOL   C227 3895   5.465   4.001   6.418 -0.8526  0.2521 -0.2022
   15MOL   H228 3896   5.466   4.187   6.296  0.2947 -0.7304  0.5294
   15MOL   H229 3897   5.685   3.975   6.245  2.5924  1.4461  2.0287
   15MOL   H230 3898   5.644   4.242   6.092 -1.8277 -0.6363 -0.8722
   15MOL   H231 3899   5.787   4.120   6.076  0.9267  2.3006  1.2575
   15MOL   H232 3900   5.824   4.154   6.339 -1.1851  0.0501  2.0221
   15MOL   H233 3901   5.688   4.269   6.318 -1.8475 -1.3724  3.1080
   15MOL   H234 3902   5.359   3.996   6.446 -1.3879  0.3497 -2.1291
   15MOL   H235 3903   5.482   3.896   6.394  0.5727  0.2564  0.7581
   15MOL   C236 3904   5.533   4.050   6.552 -0.4595 -0.0238 -0.1848
   15MOL   C237 3905   5.517   3.944   6.650  0.4679 -0.3870 -0.0381
   15MOL   C238 3906   5.580   3.812   6.631  0.2117 -0.6669  0.0686
   15MOL   C239 3907   5.627   3.904   6.742 -0.0772  0.8185 -0.3798
   15MOL   C240 3908   5.474   4.182   6.605  0.0048 -0.2216  0.4086
   15MOL   H241 3909   5.642   4.060   6.547 -0.3893 -1.4858 -2.3116
   15MOL   H242 3910   5.418   3.933   6.694  0.8452 -3.5378  0.1216
   15MOL   H243 3911   5.528   3.725   6.671 -0.0219  0.9733  3.5315
   15MOL   H244 3912   5.650   3.796   6.549 -0.1364  1.9019 -0.7770
   15MOL   H245 3913   5.725   3.946   6.721  0.2164 -0.5465 -1.8976
   15MOL   H246 3914   5.590   3.884   6.842 -0.0024 -0.4788 -0.5921
   15MOL   H247 3915   5.477   4.261   6.530 -0.9305 -1.2964 -0.7805
   15MOL   H248 3916   5.367   4.165   6.608 -0.3789  0.8295 -3.5763
   15MOL   C249 3917   5.540   4.222   6.747 -0.1133  0.6704 -0.1794
   15MOL   C250 3918   5.457   4.329   6.822  0.0219  0.0811 -0.4388
   15MOL   C251 3919   5.320   4.300   6.864  0.1320 -0.0326  0.2126
   15MOL   C252 3920   5.422   4.313   6.973 -0.1243 -0.1410 -0.6699
   15MOL   C253 3921   5.683   4.281   6.715  0.2982 -0.4767 -1.4712
   15MOL   H254 3922   5.567   4.140   6.814  0.0325 -0.1840 -1.2668
   15MOL   H255 3923   5.457   4.424   6.769 -1.6159  0.7839  0.7843
   15MOL   H256 3924   5.238   4.370   6.852 -0.5823 -1.1321 -1.3902
   15MOL   H257 3925   5.287   4.199   6.840 -0.4948 -0.0530  1.1408
   15MOL   H258 3926   5.429   4.407   7.027  0.4815 -1.4593  1.5923
   15MOL   H259 3927   5.484   4.229   7.003  3.5270  2.4827 -0.5141
   15MOL   H260 3928   5.760   4.273   6.793 -0.8450  0.3530 -0.2304
   15MOL   H261 3929   5.670   4.387   6.696  1.3635 -0.1628 -0.5630
   15MOL   H262 3930   5.736   4.237   6.631  0.7845 -0.5878 -1.1130
   16MOL     C1 3931   6.921   0.986   0.637 -0.3393 -0.3139 -0.2819
   16MOL     C2 3932   6.900   0.994   0.489  0.4275  0.2076 -0.2526
   16MOL     C3 3933   6.992   1.048   0.382 -0.0346 -0.9409  0.0748
   16MOL     C4 3934   6.877   1.125   0.418  0.9378 -0.8838 -0.2308
   16MOL     C5 3935   6.814   0.920   0.726 -0.6001 -0.4378  0.2202
   16MOL     H6 3936   7.017   0.936   0.652  0.6380  1.3794 -0.8190
   16MOL     H7 3937   6.846   0.904   0.459 -0.0842 -0.8277  3.5936
   16MOL     H8 3938   7.086   1.090   0.418 -0.0654 -1.6053  0.9379
   16MOL     H9 3939   6.986   1.007   0.282  0.3355 -1.6191  0.3281
   16MOL    H10 3940   6.801   1.126   0.340 -0.0084  2.0552  0.6368
   16MOL    H11 3941   6.881   1.216   0.479  0.0574 -1.3491  0.5516
   16MOL    H12 3942   6.795   0.815   0.702 -2.2611  0.4335 -2.4882
   16MOL    H13 3943   6.720   0.972   0.707  0.1197  0.2899 -1.4371
   16MOL    H14 3944   6.931   1.086   0.678 -0.6832 -0.7958  1.0226
   16MOL    C15 3945   6.838   0.944   0.875 -0.0300 -0.1778  0.5210
   16MOL    C16 3946   6.715   0.904   0.953  0.0354  0.1180 -0.2802
   16MOL    C17 3947   6.589   0.991   0.973 -0.5945  0.7663  0.0993
   16MOL    C18 3948   6.675   0.961   1.091 -0.1618 -0.0857  0.0788
   16MOL    C19 3949   6.966   0.871   0.927  0.1403  0.0388 -0.1868
   16MOL    H20 3950   6.844   1.053   0.887 -1.8665  0.0131 -0.1456
   16MOL    H21 3951   6.680   0.803   0.936  0.7043 -0.0267 -0.8384
   16MOL    H22 3952   6.496   0.939   0.952 -0.2736  0.1714  0.1499
   16MOL    H23 3953   6.593   1.094   0.937 -1.6135  1.2836  1.4380
   16MOL    H24 3954   6.733   1.043   1.133 -0.6640 -0.4447  1.5011
   16MOL    H25 3955   6.621   0.901   1.164 -1.6676  0.4680 -0.5765
   16MOL    H26 3956   7.007   0.799   0.857 -0.2382 -0.8548  0.4917
   16MOL    H27 3957   6.939   0.802   1.007  1.4891  1.4143  1.5006
   16MOL    C28 3958   7.081   0.973   0.969  0.0189 -0.5262  0.2668
   16MOL    C29 3959   7.204   0.899   0.972  0.4001 -0.2052  0.3847
   16MOL    C30 3960   7.280   0.856   0.853 -0.1566  0.6755  0.9818
   16MOL    C31 3961   7.342   0.963   0.948 -0.1945  1.6090  0.4652
   16MOL    C32 3962   7.054   1.050   1.099  0.5827  0.2218 -0.3549
   16MOL    H33 3963   7.096   1.046   0.890  1.0101 -0.8907  0.1060
   16MOL    H34 3964   7.199   0.819   1.045  0.5998 -2.1812 -1.7285
   16MOL    H35 3965   7.229   0.869   0.757 -1.0513 -0.2621  1.3190
   16MOL    H36 3966   7.337   0.764   0.856 -2.7640 -1.1040 -1.5551
   16MOL    H37 3967   7.343   1.065   0.912  0.9509  1.4312 -0.0581
   16MOL    H38 3968   7.426   0.931   1.010 -0.3972  1.6487  0.7625
   16MOL    H39 3969   7.016   0.993   1.183  3.0697  1.2691  1.5334
   16MOL    H40 3970   6.967   1.111   1.074 -0.2591 -0.0942  1.7053
   16MOL    C41 3971   7.153   1.164   1.139  0.6557 -0.7978  0.6994
   16MOL    C42 3972   7.165   1.164   1.290  0.0552 -0.0224  0.2649
   16MOL    C43 3973   7.271   1.224   1.373  0.6634  0.2478 -0.0294
   16MOL    C44 3974   7.246   1.069   1.370 -0.3531 -0.6336  0.5373
   16MOL    C45 3975   7.112   1.297   1.078 -0.0460 -0.1941 -0.7272
   16MOL    H46 3976   7.252   1.139   1.100 -0.3000  0.4066 -2.6849
   16MOL    H47 3977   7.069   1.191   1.333 -0.1621  0.0571 -0.2599
   16MOL    H48 3978   7.360   1.272   1.335  1.5414 -0.4689  1.0901
   16MOL    H49 3979   7.247   1.274   1.467 -3.0381  2.1537 -1.8616
   16MOL    H50 3980   7.191   1.012   1.445  1.1856 -2.3905  0.3618
   16MOL    H51 3981   7.332   1.011   1.338  0.4516  0.3643  0.8718
   16MOL    H52 3982   7.009   1.325   1.102 -0.3004 -1.7093  0.0050
   16MOL    H53 3983   7.104   1.278   0.971 -1.8590  1.5141 -0.9213
   16MOL    C54 3984   7.204   1.421   1.099 -0.4529 -0.2331 -0.0043
   16MOL    C55 3985   7.216   1.506   0.973 -0.7041  0.1283 -0.1276
   16MOL    C56 3986   7.306   1.468   0.854  0.2990 -0.4883 -1.4769
   16MOL    C57 3987   7.345   1.581   0.960  0.6484 -0.2446 -0.1799
   16MOL    C58 3988   7.144   1.501   1.220 -0.0302  0.7231  0.2279
   16MOL    H59 3989   7.302   1.377   1.118  0.1053  0.2621 -1.7384
   16MOL    H60 3990   7.126   1.559   0.941 -1.2859  0.8242  2.5180
   16MOL    H61 3991   7.352   1.369   0.860  0.4620 -0.3391 -0.0814
   16MOL    H62 3992   7.253   1.488   0.762 -1.6286 -1.4066 -0.6075
   16MOL    H63 3993   7.339   1.686   0.935 -1.1235 -0.1480  0.6056
   16MOL    H64 3994   7.438   1.562   1.014 -0.5034 -1.2111  1.4829
   16MOL    H65 3995   7.050   1.541   1.182  0.5659  0.8948 -1.1016
   16MOL    H66 3996   7.122   1.428   1.298  1.7552  0.8596  0.8740
   16MOL    C67 3997   7.217   1.627   1.277  0.3803  0.5175 -0.0343
   16MOL    C68 3998   7.126   1.699   1.379 -0.1153 -0.3830  0.4866
   16MOL    C69 3999   7.096   1.845   1.363  0.1302  0.1179  0.1207
   16MOL    C70 4000   6.990   1.737   1.323 -0.3283  0.3613  0.1028
   16MOL    C71 4001   7.348   1.590   1.338 -0.9929  0.0529 -0.7935
   16MOL    H72 4002   7.238   1.691   1.192 -0.7934  0.6328 -0.2509
   16MOL    H73 4003   7.120   1.652   1.477  0.6536  0.7409  1.0840
   16MOL    H74 4004   7.062   1.894   1.454 -3.6863 -1.1729 -0.4967
   16MOL    H75 4005   7.155   1.904   1.292  1.9881 -1.2002  0.5427
   16MOL    H76 4006   6.970   1.741   1.216  0.0793 -0.1066  0.0066
   16MOL    H77 4007   6.901   1.724   1.384 -1.0873  1.3571 -0.7784
   16MOL    H78 4008   7.410   1.520   1.281  2.7249  2.7235 -0.2023
   16MOL    H79 4009   7.339   1.524   1.425 -0.7592  0.6738 -0.3006
   16MOL    C80 4010   7.441   1.704   1.378  0.5788  0.2181  0.0014
   16MOL    C81 4011   7.496   1.766   1.248 -0.0950 -0.3647  0.3967
   16MOL    C82 4012   7.557   1.907   1.246  0.3938  0.1895  0.2006
   16MOL    C83 4013   7.422   1.878   1.179  0.3606  0.1368 -0.9993
   16MOL    C84 4014   7.557   1.667   1.478  0.2356  0.2737 -0.6761
   16MOL    H85 4015   7.384   1.778   1.434  0.4257  0.7104 -0.8006
   16MOL    H86 4016   7.560   1.695   1.196  1.2160 -0.2223  1.7973
   16MOL    H87 4017   7.640   1.924   1.177  0.9309 -1.1307  0.4952
   16MOL    H88 4018   7.545   1.962   1.338 -1.6220 -4.1945  2.7384
   16MOL    H89 4019   7.336   1.923   1.228 -0.0977 -1.5196 -0.2535
   16MOL    H90 4020   7.431   1.890   1.072 -1.8267  0.1220 -1.1963
   16MOL    H91 4021   7.612   1.583   1.436  1.2333  0.5703  0.0214
   16MOL    H92 4022   7.634   1.744   1.486  1.3651 -0.9810  0.8245
   16MOL    C93 4023   7.516   1.631   1.622 -0.0069  0.0268  0.3479
   16MOL    C94 4024   7.615   1.541   1.694  0.6452  0.1281 -0.1071
   16MOL    C95 4025   7.559   1.441   1.792 -0.0426  0.3062 -0.2414
   16MOL    C96 4026   7.610   1.396   1.658  0.0643  0.0373  0.2640
   16MOL    C97 4027   7.482   1.761   1.698 -0.0711  0.2174  0.7715
   16MOL    H98 4028   7.422   1.576   1.616 -3.9072  6.1356  0.8176
   16MOL    H99 4029   7.710   1.590   1.713 -0.3421  1.2271  2.1911
   16MOL   H100 4030   7.622   1.414   1.876  0.0217  2.5430  0.4550
   16MOL   H101 4031   7.454   1.417   1.803  0.0727  1.1635  3.0400
   16MOL   H102 4032   7.704   1.343   1.660  1.3272  2.0282 -2.6907
   16MOL   H103 4033   7.534   1.344   1.599 -0.5601  2.6141 -1.3298
   16MOL   H104 4034   7.469   1.856   1.646 -0.9017  0.4178  1.3309
   16MOL   H105 4035   7.575   1.785   1.750  1.4262 -1.5367 -1.0538
   16MOL   C106 4036   7.377   1.741   1.807  0.6477  0.2312 -0.2244
   16MOL   C107 4037   7.407   1.846   1.922  0.3545 -0.7824  0.0135
   16MOL   C108 4038   7.388   1.797   2.062 -0.3334  0.2664  0.0533
   16MOL   C109 4039   7.527   1.837   2.012  0.4946  0.3356  0.5452
   16MOL   C110 4040   7.233   1.762   1.748  0.5843  0.1789  0.6141
   16MOL   H111 4041   7.388   1.640   1.847  2.4092  0.4847 -0.0594
   16MOL   H112 4042   7.382   1.949   1.897  1.2597 -1.1437 -2.4764
   16MOL   H113 4043   7.321   1.864   2.114  1.0159  2.4059 -0.9127
   16MOL   H114 4044   7.370   1.690   2.071  0.2609  0.0477 -1.1973
   16MOL   H115 4045   7.592   1.751   2.004 -1.1290 -0.9107  0.4237
   16MOL   H116 4046   7.564   1.931   2.052  2.5939 -1.5133  3.1343
   16MOL   H117 4047   7.210   1.861   1.708 -0.8935  0.2887  1.7033
   16MOL   H118 4048   7.236   1.690   1.667 -1.3985 -1.5845  2.0668
   16MOL   C119 4049   7.117   1.722   1.839 -0.5554 -0.1890  0.0736
   16MOL   C120 4050   6.989   1.750   1.769  0.0325 -0.1779  0.0546
   16MOL   C121 4051   6.944   1.901   1.765 -0.0525 -0.0614 -0.5649
   16MOL   C122 4052   6.861   1.796   1.834  0.1873  0.0326  0.0330
   16MOL   C123 4053   7.111   1.572   1.871  0.5969  0.5552 -0.5935
   16MOL   H124 4054   7.125   1.777   1.932 -1.4211 -1.2319  0.7766
   16MOL   H125 4055   6.967   1.698   1.677  1.3262  1.1177 -1.0199
   16MOL   H126 4056   6.924   1.943   1.667  0.9960  0.2747 -0.6416
   16MOL   H127 4057   6.993   1.978   1.824  1.0475 -2.1042  1.2846
   16MOL   H128 4058   6.855   1.799   1.943  1.0157  0.6359  0.0633
   16MOL   H129 4059   6.767   1.775   1.784  0.4694  1.1162 -0.9676
   16MOL   H130 4060   7.091   1.523   1.775  0.0788 -0.5675  0.0738
   16MOL   H131 4061   7.207   1.528   1.899  0.7180  1.6969  0.8485
   16MOL   C132 4062   7.009   1.531   1.976 -0.7815 -0.2304  0.2858
   16MOL   C133 4063   7.071   1.531   2.115 -0.4364  0.8812 -0.3388
   16MOL   C134 4064   6.986   1.559   2.237 -0.4282 -0.1442  0.2862
   16MOL   C135 4065   7.096   1.653   2.192 -0.2618  0.4979  0.2602
   16MOL   C136 4066   6.955   1.390   1.924  0.1160  0.4789  0.2580
   16MOL   H137 4067   6.935   1.610   1.968 -2.1809 -1.6659 -1.6805
   16MOL   H138 4068   7.161   1.472   2.125 -2.6909 -2.6491  0.0399
   16MOL   H139 4069   6.879   1.574   2.218 -1.1376 -1.5775  2.9351
   16MOL   H140 4070   7.000   1.511   2.333  0.2904 -0.1510  0.1802
   16MOL   H141 4071   7.071   1.754   2.159  0.0290 -0.1383 -2.0551
   16MOL   H142 4072   7.167   1.651   2.274 -0.8013 -0.1860  0.7076
   16MOL   H143 4073   7.032   1.315   1.901 -0.0163 -0.5017  2.8148
   16MOL   H144 4074   6.907   1.335   2.005  1.1849  0.6781  1.0474
   16MOL   C145 4075   6.856   1.390   1.808  0.3796  0.0836  0.1974
   16MOL   C146 4076   6.858   1.259   1.733  0.7330  0.4507 -0.1996
   16MOL   C147 4077   6.841   1.236   1.586 -0.3110  0.6710 -0.6012
   16MOL   C148 4078   6.980   1.205   1.653 -0.8133 -0.1540 -1.1251
   16MOL   C149 4079   6.704   1.412   1.864  0.1000 -0.0639 -0.3795
   16MOL   H150 4080   6.888   1.472   1.744 -1.3533  0.0251 -0.7805
   16MOL   H151 4081   6.806   1.181   1.788  0.8613  1.4829  1.4190
   16MOL   H152 4082   6.774   1.154   1.561 -3.0472  2.6104  0.1540
   16MOL   H153 4083   6.835   1.317   1.513 -2.4279  1.0258 -0.0583
   16MOL   H154 4084   7.054   1.276   1.614 -0.5012  0.6468  0.8425
   16MOL   H155 4085   7.010   1.102   1.668 -1.6028 -0.1317  0.7152
   16MOL   H156 4086   6.676   1.326   1.924 -1.5063  0.0790 -0.8761
   16MOL   H157 4087   6.695   1.504   1.923  3.4226  0.6787 -0.9332
   16MOL   C158 4088   6.589   1.412   1.756  0.0816 -1.0701 -0.1567
   16MOL   C159 4089   6.596   1.546   1.676  0.5293  0.3077 -0.7615
   16MOL   C160 4090   6.681   1.571   1.555  0.1778 -0.3883  0.8469
   16MOL   C161 4091   6.532   1.535   1.542  0.0675  0.2880 -0.5540
   16MOL   C162 4092   6.441   1.402   1.811  0.1251  0.4518 -0.2166
   16MOL   H163 4093   6.604   1.329   1.688 -1.4831 -2.0381  0.6599
   16MOL   H164 4094   6.567   1.633   1.735  0.5173 -1.3413  1.7382
   16MOL   H165 4095   6.753   1.497   1.522  0.0947  0.1758 -0.6476
   16MOL   H166 4096   6.725   1.670   1.549 -0.5560 -0.1080 -0.0203
   16MOL   H167 4097   6.456   1.607   1.512 -1.1431 -1.1528 -0.9858
   16MOL   H168 4098   6.503   1.433   1.521 -1.6688 -0.7372  5.6786
   16MOL   H169 4099   6.436   1.302   1.855  1.4449  1.3184  1.9868
   16MOL   H170 4100   6.378   1.410   1.723 -1.9890  0.8596  1.3062
   16MOL   C171 4101   6.402   1.493   1.923  0.3470 -0.3592  0.2518
   16MOL   C172 4102   6.255   1.530   1.902 -0.1441 -0.4868  0.0398
   16MOL   C173 4103   6.194   1.665   1.938  0.0278 -0.2290 -0.6986
   16MOL   C174 4104   6.216   1.628   1.798 -0.0357 -0.5427  0.5104
   16MOL   C175 4105   6.423   1.428   2.067  0.0692 -0.5575 -0.7705
   16MOL   H176 4106   6.458   1.587   1.922 -0.8998  0.3953 -0.0226
   16MOL   H177 4107   6.198   1.438   1.917 -0.3536 -0.8309 -2.6038
   16MOL   H178 4108   6.102   1.659   1.996  1.1506 -0.5365  1.0894
   16MOL   H179 4109   6.265   1.739   1.976 -1.5760  1.0885 -0.1971
   16MOL   H180 4110   6.296   1.664   1.734 -2.7023  3.4477 -0.7237
   16MOL   H181 4111   6.122   1.624   1.743 -1.4819  0.4697  2.8090
   16MOL   H182 4112   6.511   1.364   2.063 -0.0042 -0.6810 -0.3535
   16MOL   H183 4113   6.332   1.369   2.077 -0.3399  0.3784  1.3327
   16MOL   C184 4114   6.430   1.525   2.189  0.6616 -0.4109  0.9288
   16MOL   C185 4115   6.547   1.616   2.174 -0.0579  0.2155 -0.5550
   16MOL   C186 4116   6.553   1.740   2.270 -0.2667  0.4124  0.1110
   16MOL   C187 4117   6.533   1.757   2.124  0.5818  0.3528 -0.0620
   16MOL   C188 4118   6.439   1.453   2.328  0.0696 -0.0251 -0.1926
   16MOL   H189 4119   6.338   1.583   2.201  1.7472  1.2844  1.2451
   16MOL   H190 4120   6.637   1.556   2.162 -0.2682 -0.0704 -0.6951
   16MOL   H191 4121   6.652   1.759   2.311  0.7285  2.5613 -3.1131
   16MOL   H192 4122   6.464   1.769   2.326 -0.4616 -2.0596  1.1801
   16MOL   H193 4123   6.605   1.803   2.056  0.7518  0.0402 -0.0957
   16MOL   H194 4124   6.432   1.788   2.097  0.8460  0.3824 -1.0578
   16MOL   H195 4125   6.441   1.529   2.406 -1.4471 -0.5434  0.3731
   16MOL   H196 4126   6.538   1.409   2.342  0.2326  0.5533  0.4924
   16MOL   C197 4127   6.320   1.354   2.359  0.3675  0.9395  0.0698
   16MOL   C198 4128   6.188   1.435   2.377  0.7908 -0.1165 -0.0677
   16MOL   C199 4129   6.051   1.370   2.367  0.2673 -0.4095  0.1602
   16MOL   C200 4130   6.095   1.475   2.267 -0.2558 -0.2068 -0.1250
   16MOL   C201 4131   6.351   1.281   2.492  0.0309 -0.7750 -0.5002
   16MOL   H202 4132   6.309   1.281   2.279  0.1417  1.8157 -0.7191
   16MOL   H203 4133   6.194   1.512   2.454  0.0470 -0.8976  0.7912
   16MOL   H204 4134   6.049   1.271   2.321  0.5996 -0.6656  0.6968
   16MOL   H205 4135   6.000   1.385   2.461 -0.9438  0.4699 -0.6246
   16MOL   H206 4136   6.113   1.449   2.163 -1.3161  1.5719 -0.7563
   16MOL   H207 4137   6.029   1.559   2.283 -0.3254 -0.8281  3.1920
   16MOL   H208 4138   6.419   1.341   2.552  0.4839 -2.8495  1.1563
   16MOL   H209 4139   6.271   1.272   2.566  0.8131  0.5458  0.5228
   16MOL   C210 4140   6.398   1.138   2.491 -0.5398 -0.2070 -0.7038
   16MOL   C211 4141   6.291   1.034   2.451  0.1034  0.0852  0.2601
   16MOL   C212 4142   6.325   0.891   2.465  0.6428  1.2352 -0.4354
   16MOL   C213 4143   6.221   0.947   2.552  0.1648  0.4291 -0.5538
   16MOL   C214 4144   6.524   1.122   2.408 -0.3414  0.2499  0.3282
   16MOL   H215 4145   6.422   1.100   2.590 -1.0199 -0.9638 -0.8699
   16MOL   H216 4146   6.237   1.068   2.363  2.6185 -0.1461 -1.4291
   16MOL   H217 4147   6.298   0.835   2.377  2.3487 -0.4133  0.0698
   16MOL   H218 4148   6.410   0.861   2.526 -0.5364  0.1299  0.6997
   16MOL   H219 4149   6.122   0.907   2.529  0.7275 -1.0684 -0.4744
   16MOL   H220 4150   6.245   0.951   2.658 -1.7265  2.1891 -0.1681
   16MOL   H221 4151   6.542   1.019   2.375  0.5831  0.5956 -0.2418
   16MOL   H222 4152   6.517   1.180   2.316  1.8249 -1.1495 -0.7560
   16MOL   C223 4153   6.653   1.166   2.474  0.1059  0.0933 -0.0267
   16MOL   C224 4154   6.763   1.191   2.370  0.1166  0.6727 -0.2441
   16MOL   C225 4155   6.800   1.327   2.322 -0.3311  0.4652  0.2766
   16MOL   C226 4156   6.893   1.248   2.403 -0.1582  0.0116  0.1478
   16MOL   C227 4157   6.700   1.080   2.589 -0.0431 -0.1346 -0.4203
   16MOL   H228 4158   6.622   1.262   2.514 -0.0408 -0.3639  0.9553
   16MOL   H229 4159   6.771   1.103   2.307 -1.2567 -1.9533  3.0684
   16MOL   H230 4160   6.774   1.421   2.372 -1.3736  1.0352 -1.3065
   16MOL   H231 4161   6.792   1.315   2.215  2.0391 -2.3998  0.3694
   16MOL   H232 4162   6.979   1.199   2.357  1.0901  1.9538  0.3473
   16MOL   H233 4163   6.905   1.288   2.503 -1.0390 -0.5982  0.5000
   16MOL   H234 4164   6.776   1.137   2.643  0.2662  1.0715 -2.0982
   16MOL   H235 4165   6.624   1.073   2.667 -1.2147 -2.9128 -1.7548
   16MOL   C236 4166   6.753   0.933   2.578  0.1593  0.1930 -0.5220
   16MOL   C237 4167   6.726   0.863   2.716 -0.2166  1.0829 -0.1903
   16MOL   C238 4168   6.587   0.852   2.756  0.3584 -0.3815 -0.0489
   16MOL   C239 4169   6.662   0.723   2.745  0.4932 -0.3838 -0.3383
   16MOL   C240 4170   6.896   0.918   2.537  0.0519 -0.2184  0.2023
   16MOL   H241 4171   6.694   0.889   2.498 -1.0544  0.3609  0.2691
   16MOL   H242 4172   6.791   0.895   2.798  1.2990 -1.4315 -0.3616
   16MOL   H243 4173   6.566   0.882   2.859  1.0999  1.5300 -0.4412
   16MOL   H244 4174   6.515   0.893   2.686  1.7483  1.6118 -0.3317
   16MOL   H245 4175   6.651   0.666   2.653  0.2078 -1.3153  0.2598
   16MOL   H246 4176   6.720   0.681   2.827  0.8236  0.9937  0.1324
   16MOL   H247 4177   6.918   0.979   2.450 -2.0676 -0.8757 -0.8149
   16MOL   H248 4178   6.958   0.957   2.619 -0.3717 -1.3224  1.0616
   16MOL   C249 4179   6.945   0.779   2.509  0.4564 -0.1870 -0.4048
   16MOL   C250 4180   7.094   0.769   2.500  0.0497  0.5378  0.0442
   16MOL   C251 4181   7.176   0.732   2.623  0.1811  0.1778  0.2329
   16MOL   C252 4182   7.156   0.634   2.508 -0.7967 -0.2381 -0.3449
   16MOL   C253 4183   6.885   0.724   2.377  0.3611  0.3041  0.0755
   16MOL   H254 4184   6.909   0.703   2.579 -2.0040  0.7945 -0.5663
   16MOL   H255 4185   7.139   0.842   2.434  0.9530 -0.9951 -1.0492
   16MOL   H256 4186   7.273   0.782   2.631  0.6375 -0.5978 -0.3923
   16MOL   H257 4187   7.124   0.708   2.716  0.2033 -0.7087  0.0170
   16MOL   H258 4188   7.242   0.609   2.446 -1.5033 -1.8377 -0.6997
   16MOL   H259 4189   7.085   0.553   2.523  0.3592 -1.1001  0.5941
   16MOL   H260 4190   6.911   0.797   2.301 -1.5213  0.4618 -0.4424
   16MOL   H261 4191   6.779   0.704   2.365  0.5989 -2.3750  1.8002
   16MOL   H262 4192   6.932   0.626   2.367 -1.5297 -0.7145  0.8744
   17MOL     C1 4193   1.289   2.193   0.859  0.2171 -0.4275 -0.2902
   17MOL     C2 4194   1.169   2.209   0.948 -0.7395 -0.0128 -0.0685
   17MOL     C3 4195   1.162   2.294   1.078  0.4381  0.0568 -0.1008
   17MOL     C4 4196   1.151   2.144   1.088 -0.1273  0.2230  0.1946
   17MOL     C5 4197   1.263   2.085   0.750  0.0660  0.3141  0.7981
   17MOL     H6 4198   1.323   2.281   0.804  0.5976 -0.2252  0.2685
   17MOL     H7 4199   1.079   2.211   0.887 -1.3006 -0.2827  0.7487
   17MOL     H8 4200   1.255   2.327   1.125  0.4294 -1.5220  1.0903
   17MOL     H9 4201   1.070   2.350   1.089  1.3143  1.6409 -0.6156
   17MOL    H10 4202   1.057   2.115   1.133  0.1195 -1.1208 -0.1113
   17MOL    H11 4203   1.229   2.082   1.132  0.2313  0.8464  0.4404
   17MOL    H12 4204   1.171   2.110   0.697  0.9451  1.3715 -0.2420
   17MOL    H13 4205   1.245   1.987   0.795  0.6257 -1.0761 -1.8851
   17MOL    H14 4206   1.373   2.180   0.926  1.2508 -0.3952 -1.5515
   17MOL    C15 4207   1.363   2.066   0.637 -0.1294  0.1568  0.1795
   17MOL    C16 4208   1.502   2.028   0.682  0.3167 -0.0619  0.3179
   17MOL    C17 4209   1.585   2.128   0.765  0.0405  0.3242  0.0430
   17MOL    C18 4210   1.631   2.085   0.628 -0.4197 -0.6629 -0.4290
   17MOL    C19 4211   1.303   1.957   0.545 -0.2071  0.3821 -0.0315
   17MOL    H20 4212   1.377   2.157   0.579 -1.7830 -0.3070 -0.9994
   17MOL    H21 4213   1.495   1.920   0.695 -3.1738 -0.1061 -1.3224
   17MOL    H22 4214   1.646   2.096   0.849  0.5666 -0.5101 -0.6470
   17MOL    H23 4215   1.543   2.228   0.772  0.6146  0.6114 -0.5015
   17MOL    H24 4216   1.638   2.158   0.549  0.4616 -0.9653 -0.6354
   17MOL    H25 4217   1.724   2.029   0.638 -1.5468 -2.5699 -0.4992
   17MOL    H26 4218   1.196   1.971   0.533 -0.2621 -0.1014 -0.0976
   17MOL    H27 4219   1.315   1.860   0.594 -1.3649  0.4312  0.3695
   17MOL    C28 4220   1.362   1.948   0.408 -0.0578  0.4466  0.4980
   17MOL    C29 4221   1.340   2.079   0.336  0.4831 -0.2354 -0.0785
   17MOL    C30 4222   1.454   2.178   0.318 -0.7416  0.2991 -0.1237
   17MOL    C31 4223   1.392   2.113   0.205 -0.2168 -0.3320  0.2308
   17MOL    C32 4224   1.298   1.836   0.327  0.3576  0.0714  0.5355
   17MOL    H33 4225   1.470   1.937   0.418 -0.1325 -1.6397 -0.7031
   17MOL    H34 4226   1.240   2.115   0.361  0.5083 -1.3730  1.7683
   17MOL    H35 4227   1.558   2.150   0.335  0.2114  2.3829 -2.2444
   17MOL    H36 4228   1.426   2.280   0.344 -0.7163  0.4724 -0.7827
   17MOL    H37 4229   1.446   2.035   0.152  0.8827  1.6257 -1.6080
   17MOL    H38 4230   1.323   2.163   0.137  0.0936 -1.8278 -1.2245
   17MOL    H39 4231   1.326   1.845   0.222  0.0447  1.9142  0.5926
   17MOL    H40 4232   1.190   1.850   0.322  0.2272 -1.3603 -0.9448
   17MOL    C41 4233   1.345   1.698   0.358  0.6745  0.7722 -0.6684
   17MOL    C42 4234   1.495   1.672   0.327 -0.9466  0.5062 -0.6436
   17MOL    C43 4235   1.565   1.561   0.394 -0.0580 -0.0795 -0.3505
   17MOL    C44 4236   1.599   1.698   0.437 -0.5877 -0.0572  0.3863
   17MOL    C45 4237   1.258   1.593   0.284  0.0507  0.2266 -0.1479
   17MOL    H46 4238   1.322   1.680   0.463 -0.0232  4.1306 -0.2126
   17MOL    H47 4239   1.518   1.693   0.223  1.5240 -2.6119 -0.7873
   17MOL    H48 4240   1.517   1.495   0.466  1.0393 -2.7915 -2.0492
   17MOL    H49 4241   1.641   1.511   0.335  0.5099  0.8959 -0.4677
   17MOL    H50 4242   1.699   1.734   0.412 -0.3906 -1.8892 -1.6945
   17MOL    H51 4243   1.553   1.753   0.519 -0.1363 -0.2911  0.7967
   17MOL    H52 4244   1.311   1.499   0.271  2.1610  1.4188 -0.5751
   17MOL    H53 4245   1.238   1.624   0.181 -1.1436 -2.2363 -0.6903
   17MOL    C54 4246   1.116   1.571   0.342 -0.7600 -0.1056 -0.5784
   17MOL    C55 4247   1.013   1.534   0.234 -0.0209 -0.0947 -0.4872
   17MOL    C56 4248   0.977   1.627   0.118 -0.1950  0.1208  0.4920
   17MOL    C57 4249   0.876   1.606   0.224 -0.4191 -0.4843 -0.0826
   17MOL    C58 4250   1.113   1.461   0.454  0.4884  0.4271 -0.0982
   17MOL    H59 4251   1.076   1.665   0.379  2.9615  1.3991 -0.1372
   17MOL    H60 4252   1.030   1.434   0.196  0.9946  0.5524 -1.7911
   17MOL    H61 4253   1.034   1.719   0.116 -2.0690  1.2849 -1.8979
   17MOL    H62 4254   0.963   1.576   0.022  0.6268 -0.5024  0.6977
   17MOL    H63 4255   0.781   1.564   0.193 -0.5145  0.9286 -1.7195
   17MOL    H64 4256   0.863   1.686   0.296 -0.7870  0.1644 -0.8644
   17MOL    H65 4257   1.162   1.374   0.411  0.6604 -0.0663  1.1089
   17MOL    H66 4258   1.162   1.505   0.541  1.0501 -0.3991  0.0057
   17MOL    C67 4259   0.973   1.420   0.495 -0.2741  0.4456  0.2683
   17MOL    C68 4260   0.989   1.302   0.580 -0.5138  0.0451  0.0571
   17MOL    C69 4261   0.889   1.190   0.609  0.0058  0.1770  0.1135
   17MOL    C70 4262   1.013   1.165   0.527 -0.3936 -0.0072  0.5512
   17MOL    C71 4263   0.909   1.547   0.566 -0.9270  0.1838 -0.3436
   17MOL    H72 4264   0.900   1.386   0.421 -3.1057 -0.4063  3.3014
   17MOL    H73 4265   1.052   1.326   0.666 -0.6893  2.7192 -0.5000
   17MOL    H74 4266   0.883   1.155   0.712 -2.4448  0.2698  0.0275
   17MOL    H75 4267   0.798   1.166   0.553 -0.5676  0.1397  1.0465
   17MOL    H76 4268   1.014   1.153   0.418  1.2461  1.8933  0.3306
   17MOL    H77 4269   1.095   1.109   0.572  0.0040 -0.4045 -0.6227
   17MOL    H78 4270   0.903   1.626   0.491  1.6328  2.4727  1.7319
   17MOL    H79 4271   0.974   1.592   0.641 -2.4475  1.1102  0.4460
   17MOL    C80 4272   0.762   1.516   0.619 -0.1420 -0.1430  0.3672
   17MOL    C81 4273   0.657   1.521   0.513  0.1421  0.3173 -0.3871
   17MOL    C82 4274   0.533   1.448   0.534  0.1244 -0.4811  0.0069
   17MOL    C83 4275   0.629   1.398   0.426  0.3880  0.4936 -0.6506
   17MOL    C84 4276   0.729   1.630   0.726  0.4806 -0.4359 -0.2052
   17MOL    H85 4277   0.756   1.420   0.671 -1.4695  0.1978  0.8648
   17MOL    H86 4278   0.662   1.610   0.451 -1.0555  1.1789  0.7297
   17MOL    H87 4279   0.438   1.483   0.495  0.1448  0.3108  0.6484
   17MOL    H88 4280   0.518   1.399   0.630 -1.4360 -0.7325 -0.3618
   17MOL    H89 4281   0.681   1.305   0.448 -2.2175 -0.1619  3.1380
   17MOL    H90 4282   0.608   1.426   0.323 -1.3916 -0.3528 -0.5362
   17MOL    H91 4283   0.727   1.730   0.684  1.0723  0.1754  1.1945
   17MOL    H92 4284   0.628   1.610   0.763  0.0680  0.8400 -0.6320
   17MOL    C93 4285   0.828   1.642   0.847  1.1923  1.0307  0.0578
   17MOL    C94 4286   0.875   1.786   0.875  0.0076  0.3139  0.0354
   17MOL    C95 4287   1.017   1.805   0.931  0.2937 -0.2554 -0.0868
   17MOL    C96 4288   0.975   1.860   0.788  0.0378  0.1581  0.9160
   17MOL    C97 4289   0.759   1.584   0.975 -0.2747 -0.9530  0.4955
   17MOL    H98 4290   0.911   1.575   0.826  0.9607  0.1453  1.8330
   17MOL    H99 4291   0.797   1.857   0.901 -2.4668 -2.2826 -0.1302
   17MOL   H100 4292   1.034   1.870   1.017  0.2974  1.7955 -1.6096
   17MOL   H101 4293   1.080   1.717   0.934 -1.2556 -1.3663  0.4235
   17MOL   H102 4294   0.974   1.967   0.772 -4.1570 -0.3826 -3.3890
   17MOL   H103 4295   1.020   1.807   0.704 -0.3717  0.9932  0.1697
   17MOL   H104 4296   0.702   1.495   0.949  0.4281 -1.0860 -0.6233
   17MOL   H105 4297   0.681   1.659   0.989  0.0623 -0.1569 -1.5895
   17MOL   C106 4298   0.851   1.559   1.094 -0.0301 -0.1817  0.1453
   17MOL   C107 4299   0.770   1.534   1.219  0.2394 -0.5899 -0.2440
   17MOL   C108 4300   0.808   1.589   1.353  0.1135 -0.5448 -0.0691
   17MOL   C109 4301   0.698   1.655   1.284 -0.5232 -0.2697  0.2322
   17MOL   C110 4302   0.925   1.425   1.076  0.0006  0.4137  0.2636
   17MOL   H111 4303   0.918   1.645   1.099  0.0685 -0.3455  2.1850
   17MOL   H112 4304   0.703   1.448   1.213 -1.2979  0.5958 -0.3340
   17MOL   H113 4305   0.787   1.533   1.444  0.2509 -2.7252 -1.3410
   17MOL   H114 4306   0.898   1.650   1.360 -0.5094  0.4271 -0.4219
   17MOL   H115 4307   0.719   1.744   1.226  0.4506 -0.6101  0.0516
   17MOL   H116 4308   0.597   1.640   1.323 -0.5208 -0.4545  0.1709
   17MOL   H117 4309   0.845   1.350   1.072  0.0301  0.4092 -0.3164
   17MOL   H118 4310   0.983   1.409   0.985 -0.0966 -0.3378  0.3285
   17MOL   C119 4311   1.029   1.396   1.179 -0.0417 -0.4267  0.2785
   17MOL   C120 4312   1.062   1.247   1.186 -0.7759 -0.0208  0.3225
   17MOL   C121 4313   0.950   1.155   1.225 -0.1417  0.1508  0.2376
   17MOL   C122 4314   1.056   1.177   1.326 -0.2120  1.0692  0.8759
   17MOL   C123 4315   1.152   1.491   1.165 -0.7590 -0.0206  0.2310
   17MOL   H124 4316   0.988   1.417   1.278 -0.1366 -1.9475  0.5764
   17MOL   H125 4317   1.121   1.202   1.107 -2.0713 -2.3369  0.6377
   17MOL   H126 4318   0.954   1.053   1.188  0.2857 -0.4484  1.8857
   17MOL   H127 4319   0.846   1.187   1.231 -0.4741 -0.7974 -0.2805
   17MOL   H128 4320   1.041   1.237   1.415  0.7854  0.8957  1.1753
   17MOL   H129 4321   1.122   1.092   1.345 -0.2029  1.5554  3.2609
   17MOL   H130 4322   1.195   1.462   1.069  2.3404  0.3131  1.4863
   17MOL   H131 4323   1.120   1.594   1.151  2.9663  0.9801 -1.6126
   17MOL   C132 4324   1.268   1.483   1.263 -0.6010 -0.2917  0.2576
   17MOL   C133 4325   1.220   1.488   1.405 -0.0574  0.7164 -0.5303
   17MOL   C134 4326   1.310   1.497   1.528  0.2813 -0.3375 -0.3244
   17MOL   C135 4327   1.246   1.367   1.493 -1.1904  0.1452  0.2750
   17MOL   C136 4328   1.373   1.602   1.229 -0.2027  0.1930  0.0303
   17MOL   H137 4329   1.320   1.388   1.247  0.4041  0.2022  0.5112
   17MOL   H138 4330   1.114   1.509   1.421  0.0535  1.1751 -0.3738
   17MOL   H139 4331   1.416   1.513   1.510 -0.1023  1.3312 -1.2243
   17MOL   H140 4332   1.282   1.548   1.620 -2.0783 -3.2625  0.6542
   17MOL   H141 4333   1.312   1.287   1.460 -0.8486 -0.6664  2.8350
   17MOL   H142 4334   1.173   1.330   1.565  0.0103 -0.0088  1.4127
   17MOL   H143 4335   1.334   1.701   1.250 -1.6759 -0.0252 -1.5973
   17MOL   H144 4336   1.457   1.593   1.298 -0.5479 -3.4249  0.0487
   17MOL   C145 4337   1.435   1.597   1.091 -0.0262  0.1752 -0.6360
   17MOL   C146 4338   1.521   1.720   1.076 -0.3246 -0.2226  0.8457
   17MOL   C147 4339   1.498   1.804   0.946 -0.0331  0.0812  0.1833
   17MOL   C148 4340   1.471   1.869   1.080 -0.0681  0.2938  0.7597
   17MOL   C149 4341   1.508   1.465   1.065  0.4989  0.3307  0.4987
   17MOL   H150 4342   1.345   1.606   1.031 -0.3766  2.6845  0.2157
   17MOL   H151 4343   1.627   1.706   1.096  0.0682  1.3352 -0.0810
   17MOL   H152 4344   1.588   1.827   0.888  1.2087  0.0035  2.0284
   17MOL   H153 4345   1.412   1.778   0.886  0.7016  0.8394 -1.2309
   17MOL   H154 4346   1.368   1.889   1.108  0.0088 -0.6140  1.7128
   17MOL   H155 4347   1.550   1.936   1.112  1.3972 -1.0601  0.0869
   17MOL   H156 4348   1.602   1.473   1.119  1.0979 -1.3801 -0.2681
   17MOL   H157 4349   1.467   1.379   1.117 -3.0648  2.3324  1.2055
   17MOL   C158 4350   1.527   1.433   0.913  0.5551 -0.9494 -0.1113
   17MOL   C159 4351   1.395   1.381   0.865 -0.2770 -0.5571 -0.3726
   17MOL   C160 4352   1.294   1.468   0.796 -0.0686 -0.3212  0.1633
   17MOL   C161 4353   1.364   1.358   0.720 -0.4811 -0.2697  0.6452
   17MOL   C162 4354   1.641   1.330   0.892  0.7227 -0.6134  0.2997
   17MOL   H163 4355   1.556   1.519   0.853  1.0265  1.2531  3.1815
   17MOL   H164 4356   1.358   1.302   0.929  1.3836 -0.0596  1.2602
   17MOL   H165 4357   1.317   1.571   0.770 -0.6590 -0.5215 -1.1868
   17MOL   H166 4358   1.190   1.451   0.823 -0.3320  0.1460 -0.5489
   17MOL   H167 4359   1.296   1.283   0.681  1.2221 -1.8730  0.6675
   17MOL   H168 4360   1.432   1.394   0.643 -0.1382 -0.1244  1.0109
   17MOL   H169 4361   1.625   1.267   0.805 -1.1903  0.6106 -0.2633
   17MOL   H170 4362   1.643   1.257   0.973 -0.0305  0.1562  1.0243
   17MOL   C171 4363   1.782   1.383   0.866  0.8793 -0.0154  0.4589
   17MOL   C172 4364   1.894   1.289   0.917  0.1562 -0.7039  0.2877
   17MOL   C173 4365   2.021   1.339   0.983  0.0421  0.3287  0.1803
   17MOL   C174 4366   1.903   1.273   1.062 -0.9859 -1.2191  0.6282
   17MOL   C175 4367   1.805   1.406   0.708  0.1803 -0.8150 -0.8896
   17MOL   H176 4368   1.794   1.480   0.914 -0.0010  1.2257 -1.7605
   17MOL   H177 4369   1.902   1.195   0.862 -1.2422  0.9762 -2.9250
   17MOL   H178 4370   2.106   1.272   0.996 -0.1327  0.4260  1.9041
   17MOL   H179 4371   2.041   1.445   0.973 -0.8720  0.3299 -1.9907
   17MOL   H180 4372   1.844   1.334   1.130  1.5603  0.9634  0.9579
   17MOL   H181 4373   1.922   1.170   1.093 -0.6203 -1.3884 -0.1380
   17MOL   H182 4374   1.713   1.441   0.662  1.0695  0.2572 -1.9030
   17MOL   H183 4375   1.835   1.312   0.663 -1.9123 -2.0929  0.3139
   17MOL   C184 4376   1.919   1.503   0.671 -0.0086  0.1632 -0.1428
   17MOL   C185 4377   1.862   1.645   0.711 -0.2658  0.5702 -0.0093
   17MOL   C186 4378   1.964   1.765   0.721  0.7151  0.7971  0.5091
   17MOL   C187 4379   1.893   1.716   0.843  0.2042  0.4534  0.0738
   17MOL   C188 4380   1.970   1.484   0.526 -0.5414 -0.4275  0.9681
   17MOL   H189 4381   2.004   1.486   0.737 -0.4712 -1.3502  0.0920
   17MOL   H190 4382   1.758   1.660   0.683 -0.9575  1.6307  2.9758
   17MOL   H191 4383   1.931   1.862   0.683 -2.0659  1.1591  3.5535
   17MOL   H192 4384   2.064   1.728   0.702 -1.3342 -3.0508 -3.7351
   17MOL   H193 4385   1.819   1.788   0.879 -1.4974 -1.2151 -0.0381
   17MOL   H194 4386   1.953   1.673   0.923  0.7942  1.6466  0.2856
   17MOL   H195 4387   2.044   1.563   0.522 -1.3005  0.3000  1.0011
   17MOL   H196 4388   1.889   1.524   0.464  0.8069 -0.3917 -0.7935
   17MOL   C197 4389   2.037   1.356   0.482  0.9480 -1.1790 -0.1883
   17MOL   C198 4390   2.168   1.331   0.551 -0.1453 -0.9409  0.0577
   17MOL   C199 4391   2.231   1.192   0.551  0.5175 -0.0946 -0.0403
   17MOL   C200 4392   2.195   1.258   0.680 -0.2196  0.2224  0.1229
   17MOL   C201 4393   2.047   1.368   0.331 -0.2464 -0.0193  0.1610
   17MOL   H202 4394   1.978   1.269   0.513 -2.9638  1.0785 -0.9629
   17MOL   H203 4395   2.244   1.407   0.534  0.0212 -1.4949 -1.7304
   17MOL   H204 4396   2.166   1.118   0.505  0.8333 -0.5030  0.1776
   17MOL   H205 4397   2.335   1.186   0.518  0.2023 -1.5594 -0.7819
   17MOL   H206 4398   2.113   1.218   0.740  0.5148 -1.3294  0.1069
   17MOL   H207 4399   2.277   1.300   0.738  0.1046 -2.6694  1.8407
   17MOL   H208 4400   2.079   1.467   0.301 -1.5883  0.4951  0.4022
   17MOL   H209 4401   2.130   1.305   0.301 -1.1914 -0.2478 -2.0312
   17MOL   C210 4402   1.931   1.304   0.244  0.3935  0.0617 -0.3111
   17MOL   C211 4403   1.955   1.354   0.101 -0.3506  0.2511 -0.6758
   17MOL   C212 4404   1.843   1.410   0.015 -0.0863  0.9971  0.3807
   17MOL   C213 4405   1.936   1.510   0.074 -1.2758 -0.0643 -0.3830
   17MOL   C214 4406   1.924   1.149   0.246  0.1583 -0.2821  0.5513
   17MOL   H215 4407   1.838   1.344   0.283 -1.8194 -2.4637 -2.7281
   17MOL   H216 4408   2.043   1.308   0.058 -0.1025  0.6779 -0.6278
   17MOL   H217 4409   1.858   1.407   7.747 -0.7496  1.3219  0.2736
   17MOL   H218 4410   1.739   1.416   0.046 -0.6805 -1.1155 -1.0654
   17MOL   H219 4411   2.004   1.552   0.000 -1.4379  1.1377  0.1354
   17MOL   H220 4412   1.881   1.565   0.151  1.2809  0.4126  1.1669
   17MOL   H221 4413   2.017   1.113   0.202  1.1692 -0.6153  2.8679
   17MOL   H222 4414   1.939   1.111   0.347  0.0085  0.6772  0.9329
   17MOL   C223 4415   1.799   1.094   0.183 -0.0886 -0.6745  0.1757
   17MOL   C224 4416   1.678   1.119   0.270 -0.3302  0.1541  0.6960
   17MOL   C225 4417   1.582   1.233   0.260  0.1022  0.2460 -0.0348
   17MOL   C226 4418   1.532   1.095   0.228 -0.1751 -0.9751 -0.0532
   17MOL   C227 4419   1.804   0.943   0.159 -0.8201 -0.0794  0.8276
   17MOL   H228 4420   1.780   1.130   0.082  0.1686 -1.0951 -0.0253
   17MOL   H229 4421   1.691   1.062   0.362 -0.4934 -3.0242 -1.1405
   17MOL   H230 4422   1.596   1.304   0.178  1.5117 -0.3632 -0.3268
   17MOL   H231 4423   1.562   1.271   0.360 -1.8116 -1.0439  0.1158
   17MOL   H232 4424   1.452   1.064   0.295  0.3380 -0.4743  0.7965
   17MOL   H233 4425   1.516   1.072   0.123 -0.3426  3.2627 -1.0692
   17MOL   H234 4426   1.842   0.886   0.244  0.4459 -0.8034 -0.1919
   17MOL   H235 4427   1.706   0.910   0.125 -0.7205 -1.4183  1.7991
   17MOL   C236 4428   1.901   0.885   0.059 -0.1924 -0.8224  0.1145
   17MOL   C237 4429   1.871   0.930   7.755 -0.3649  0.0846  0.7018
   17MOL   C238 4430   1.954   1.042   7.703 -0.3272 -0.7185  0.0948
   17MOL   C239 4431   1.970   0.912   7.644 -0.6967  0.3713  0.0614
   17MOL   C240 4432   1.898   0.729   0.060 -0.1257 -0.4434  0.0590
   17MOL   H241 4433   2.002   0.904   0.095 -0.3274  0.8563 -0.3562
   17MOL   H242 4434   1.768   0.933   7.722  0.8521  1.5884 -3.2388
   17MOL   H243 4435   1.901   1.125   7.656  1.4447 -0.5524 -1.7182
   17MOL   H244 4436   2.034   1.075   7.768 -0.3386 -1.0628  0.2831
   17MOL   H245 4437   2.064   0.861   7.663  0.2781  1.2980 -2.0831
   17MOL   H246 4438   1.927   0.889   7.547 -0.0217 -0.9039  0.0528
   17MOL   H247 4439   1.795   0.699   0.079 -0.1115  0.3427  1.4518
   17MOL   H248 4440   1.909   0.701   7.795  0.9227  0.7506 -0.1690
   17MOL   C249 4441   2.015   0.643   0.119 -0.0281 -0.0869 -0.4833
   17MOL   C250 4442   1.989   0.488   0.098 -0.3989 -0.2825 -0.0486
   17MOL   C251 4443   2.088   0.384   0.140 -0.4001  0.6537 -0.3122
   17MOL   C252 4444   1.955   0.399   0.213  0.9462 -0.9801 -0.2478
   17MOL   C253 4445   2.056   0.684   0.259 -0.2158 -0.0766  0.3989
   17MOL   H254 4446   2.108   0.665   0.067 -0.0670 -0.4930 -0.7231
   17MOL   H255 4447   1.942   0.461   0.004 -0.2007 -0.1827 -0.1756
   17MOL   H256 4448   2.099   0.292   0.084 -0.3959  0.2622  0.3259
   17MOL   H257 4449   2.176   0.424   0.189 -0.2176  0.0435 -0.1408
   17MOL   H258 4450   1.875   0.328   0.191 -0.0063  0.1907 -0.6159
   17MOL   H259 4451   1.961   0.427   0.317 -1.1172 -1.7670  0.1042
   17MOL   H260 4452   2.144   0.627   0.289 -0.2673 -0.6165 -0.4691
   17MOL   H261 4453   1.976   0.667   0.331  0.5836 -1.5646  0.9471
   17MOL   H262 4454   2.076   0.791   0.261  0.2601 -0.1271 -1.2794
   18MOL     C1 4455   6.987   1.272   3.717 -0.5461  0.2509 -0.0358
   18MOL     C2 4456   6.867   1.206   3.647  0.0634  0.0725 -0.6013
   18MOL     C3 4457   6.735   1.283   3.625  0.0548  0.1149 -0.4085
   18MOL     C4 4458   6.744   1.174   3.727  0.1174 -0.7649 -0.0819
   18MOL     C5 4459   7.069   1.356   3.615  0.5965  0.2608  0.2952
   18MOL     H6 4460   6.946   1.332   3.799 -0.8612  2.4665 -1.7756
   18MOL     H7 4461   6.892   1.146   3.560 -0.2882 -2.4064  0.9716
   18MOL     H8 4462   6.728   1.387   3.658  0.6455 -0.5982  2.0693
   18MOL     H9 4463   6.671   1.262   3.539  2.3209  2.4508 -2.7536
   18MOL    H10 4464   6.687   1.085   3.702 -0.2070  0.1299 -2.6449
   18MOL    H11 4465   6.761   1.182   3.835 -2.2283 -2.1528  0.4091
   18MOL    H12 4466   6.989   1.421   3.578  0.7926  2.6655  3.8282
   18MOL    H13 4467   7.105   1.299   3.529 -0.9804 -0.0701 -0.1674
   18MOL    H14 4468   7.048   1.192   3.760 -0.7100  0.0858 -0.1076
   18MOL    C15 4469   7.185   1.439   3.680  1.1418 -1.0610 -0.0034
   18MOL    C16 4470   7.292   1.344   3.740 -0.1361 -0.0449  0.5347
   18MOL    C17 4471   7.303   1.318   3.890  0.1099 -0.4017  0.4342
   18MOL    C18 4472   7.402   1.399   3.817 -0.1554 -0.1595 -0.2952
   18MOL    C19 4473   7.247   1.553   3.599  0.1365 -0.5651  0.1477
   18MOL    H20 4474   7.132   1.484   3.763  0.2883  1.2271 -1.7232
   18MOL    H21 4475   7.319   1.262   3.674  0.7772 -0.6087  1.5907
   18MOL    H22 4476   7.320   1.212   3.908  1.2153 -0.4924 -1.0460
   18MOL    H23 4477   7.235   1.370   3.958 -3.4378 -1.5769 -2.0408
   18MOL    H24 4478   7.397   1.502   3.853  0.8720 -0.2730  0.1974
   18MOL    H25 4479   7.500   1.353   3.818  0.8879  2.0073  1.2713
   18MOL    H26 4480   7.306   1.619   3.662 -1.6154 -1.7618  3.1578
   18MOL    H27 4481   7.164   1.616   3.569  0.7902  0.6626  0.8813
   18MOL    C28 4482   7.339   1.520   3.486  0.3763 -0.3224 -0.1561
   18MOL    C29 4483   7.477   1.591   3.497  0.5198 -0.6298  0.0678
   18MOL    C30 4484   7.590   1.540   3.582 -0.3037 -0.7076 -0.3122
   18MOL    C31 4485   7.595   1.537   3.425  0.1949  0.0088 -0.3391
   18MOL    C32 4486   7.263   1.534   3.354 -0.3665 -0.0949 -0.0599
   18MOL    H33 4487   7.366   1.415   3.495  3.4924  0.4600  0.1951
   18MOL    H34 4488   7.464   1.699   3.503 -2.5891 -1.0482  1.8059
   18MOL    H35 4489   7.574   1.448   3.637 -3.0231  0.0212  0.2057
   18MOL    H36 4490   7.662   1.601   3.637  2.1881 -2.1233 -1.8997
   18MOL    H37 4491   7.601   1.433   3.395  0.5553 -0.0081 -0.2213
   18MOL    H38 4492   7.679   1.594   3.384  0.7174  0.6660  1.5649
   18MOL    H39 4493   7.253   1.642   3.342 -1.8104 -0.1780  0.2926
   18MOL    H40 4494   7.166   1.485   3.359 -0.0850 -0.6536 -0.0202
   18MOL    C41 4495   7.329   1.471   3.223 -0.1326 -0.5183  0.1452
   18MOL    C42 4496   7.299   1.567   3.109  0.2166  0.2651  0.1164
   18MOL    C43 4497   7.393   1.586   2.990 -0.8472  0.0062  0.0492
   18MOL    C44 4498   7.373   1.698   3.095 -0.6001 -0.0137 -0.0992
   18MOL    C45 4499   7.272   1.331   3.195 -0.0017 -0.1510 -0.6375
   18MOL    H46 4500   7.436   1.466   3.243 -0.1399 -0.4209  0.2072
   18MOL    H47 4501   7.192   1.568   3.091 -0.0425 -3.0275  0.9898
   18MOL    H48 4502   7.479   1.519   2.992 -1.0238 -0.2702 -1.1325
   18MOL    H49 4503   7.347   1.603   2.892  0.9998  1.4566 -0.5901
   18MOL    H50 4504   7.454   1.710   3.165 -0.3560 -0.3552 -0.3217
   18MOL    H51 4505   7.331   1.796   3.073 -0.8531 -0.6547 -2.6499
   18MOL    H52 4506   7.170   1.344   3.160  0.5056  1.4334 -1.5472
   18MOL    H53 4507   7.245   1.284   3.289  0.1284  0.7771 -0.1382
   18MOL    C54 4508   7.345   1.228   3.097 -0.1013  0.4882  0.3422
   18MOL    C55 4509   7.481   1.184   3.161  0.5446 -0.0623  0.0337
   18MOL    C56 4510   7.605   1.253   3.115 -0.5724 -0.1651 -0.1174
   18MOL    C57 4511   7.585   1.106   3.086  0.0567 -0.0711  0.4432
   18MOL    C58 4512   7.255   1.105   3.060  0.0853 -0.1913  0.0397
   18MOL    H59 4513   7.367   1.280   3.004 -0.1589 -2.7162 -1.5592
   18MOL    H60 4514   7.482   1.144   3.262  1.9781 -1.3343 -0.4521
   18MOL    H61 4515   7.607   1.318   3.028  0.1270 -2.1408 -1.6215
   18MOL    H62 4516   7.671   1.291   3.192  0.4824  0.2818 -1.2200
   18MOL    H63 4517   7.640   1.027   3.138 -0.4297 -0.7364 -0.0430
   18MOL    H64 4518   7.577   1.089   2.979 -1.1049  3.7483 -0.1485
   18MOL    H65 4519   7.315   1.026   3.014 -0.4655  0.0946 -1.1769
   18MOL    H66 4520   7.224   1.056   3.152 -1.2417 -1.8193 -1.2395
   18MOL    C67 4521   7.122   1.114   2.989 -0.2150  0.1212 -0.0291
   18MOL    C68 4522   7.122   1.192   2.854  0.2380  0.5141  0.7084
   18MOL    C69 4523   7.000   1.248   2.780  0.1497  0.1949  0.7230
   18MOL    C70 4524   7.093   1.345   2.845  0.2927  0.2897 -0.2191
   18MOL    C71 4525   7.053   0.976   2.965 -0.3709  0.2636 -0.7130
   18MOL    H72 4526   7.048   1.170   3.047 -0.5702 -0.2596 -0.1102
   18MOL    H73 4527   7.217   1.170   2.806 -0.1245  0.7674 -0.1291
   18MOL    H74 4528   7.014   1.256   2.673  1.2732 -2.3652  0.6382
   18MOL    H75 4529   6.902   1.216   2.815 -0.5115  2.3235  0.9232
   18MOL    H76 4530   7.044   1.384   2.934  0.6037  1.3896 -0.5177
   18MOL    H77 4531   7.153   1.415   2.787  1.0255 -1.1133 -1.1906
   18MOL    H78 4532   7.103   0.935   2.878  1.0387  2.3682 -0.9325
   18MOL    H79 4533   6.956   0.986   2.915 -0.8507 -0.5266  0.0289
   18MOL    C80 4534   7.034   0.882   3.087 -0.2089  0.3122 -0.1770
   18MOL    C81 4535   7.001   0.743   3.037  0.0000  0.1442 -0.1088
   18MOL    C82 4536   7.045   0.613   3.114 -0.2449  0.5246 -1.0448
   18MOL    C83 4537   7.106   0.654   2.980  0.1515 -0.1170 -0.2173
   18MOL    C84 4538   6.922   0.941   3.174  0.2135 -0.4834  0.0309
   18MOL    H85 4539   7.129   0.877   3.141 -0.2652  2.1404  0.1136
   18MOL    H86 4540   6.903   0.720   2.996  1.6320 -2.1482 -2.9218
   18MOL    H87 4541   6.995   0.518   3.097 -0.2039 -0.3244  2.9918
   18MOL    H88 4542   7.109   0.621   3.202 -1.0920 -1.7821 -0.1933
   18MOL    H89 4543   7.204   0.701   2.976  0.2960 -0.3756  0.3088
   18MOL    H90 4544   7.075   0.613   2.883 -3.1380 -0.5129  0.9307
   18MOL    H91 4545   6.929   1.048   3.194 -0.7265 -0.5509  0.7619
   18MOL    H92 4546   6.830   0.929   3.117 -0.6299  0.6477  1.1193
   18MOL    C93 4547   6.913   0.871   3.307 -0.1879  0.4258  0.3467
   18MOL    C94 4548   7.008   0.926   3.402  0.8300 -0.1468 -0.1302
   18MOL    C95 4549   7.055   0.835   3.509 -0.1046  0.0663 -0.6660
   18MOL    C96 4550   7.156   0.887   3.414 -0.3226 -0.3063  0.7838
   18MOL    C97 4551   6.775   0.896   3.373 -0.3877 -0.1586 -0.3411
   18MOL    H98 4552   6.931   0.763   3.303  0.4448  0.4997  1.1276
   18MOL    H99 4553   7.001   1.032   3.422 -0.0318 -0.5051  1.5989
   18MOL   H100 4554   7.040   0.879   3.608  3.6541 -2.0171  0.9497
   18MOL   H101 4555   7.031   0.729   3.509 -0.2819  0.1034 -0.0026
   18MOL   H102 4556   7.235   0.948   3.457 -1.3255  1.6337 -0.0900
   18MOL   H103 4557   7.200   0.819   3.341  0.7625  0.2054  0.9598
   18MOL   H104 4558   6.735   0.989   3.335  1.1900  0.1465 -1.2705
   18MOL   H105 4559   6.781   0.907   3.482 -0.6022 -2.6136 -0.0318
   18MOL   C106 4560   6.665   0.793   3.349 -0.0188  0.4202  0.4626
   18MOL   C107 4561   6.684   0.660   3.408  0.3136  0.3123  0.6141
   18MOL   C108 4562   6.612   0.529   3.353 -0.5828  0.3267  0.4091
   18MOL   C109 4563   6.760   0.562   3.330 -0.1574 -0.1114  0.1472
   18MOL   C110 4564   6.530   0.842   3.406  0.2321 -0.1022 -0.0541
   18MOL   H111 4565   6.651   0.773   3.243 -1.6336  2.2336  0.3140
   18MOL   H112 4566   6.698   0.668   3.515 -1.9010  2.3183  0.8003
   18MOL   H113 4567   6.591   0.458   3.433 -1.2877  0.2164  0.1354
   18MOL   H114 4568   6.545   0.538   3.268  1.1953 -0.7342 -1.1321
   18MOL   H115 4569   6.792   0.583   3.228  1.3683  0.1267  0.6524
   18MOL   H116 4570   6.833   0.502   3.385  0.8014  1.3071  0.4471
   18MOL   H117 4571   6.478   0.761   3.459 -0.5991  1.5966  1.7918
   18MOL   H118 4572   6.543   0.919   3.482 -1.2996 -0.0791  0.2037
   18MOL   C119 4573   6.436   0.904   3.301  0.5472  0.4220  0.0247
   18MOL   C120 4574   6.372   0.794   3.209 -0.9440  0.0835 -0.5529
   18MOL   C121 4575   6.432   0.774   3.079 -0.1075 -0.4828 -0.2030
   18MOL   C122 4576   6.295   0.833   3.087  0.6644  0.4249 -0.4275
   18MOL   C123 4577   6.323   0.983   3.368  0.3549  0.2142  0.1482
   18MOL   H124 4578   6.490   0.973   3.236  0.7553  1.0151  0.8308
   18MOL   H125 4579   6.348   0.699   3.257 -0.8341  0.3544  0.0382
   18MOL   H126 4580   6.445   0.674   3.039 -1.0109 -0.6340 -0.1220
   18MOL   H127 4581   6.515   0.844   3.067 -1.9129  1.9479  1.1131
   18MOL   H128 4582   6.284   0.939   3.066 -0.6979  0.3270 -0.2964
   18MOL   H129 4583   6.202   0.780   3.067  0.6532 -0.7305  2.3768
   18MOL   H130 4584   6.234   0.984   3.304 -0.2080 -1.8584  0.8689
   18MOL   H131 4585   6.298   0.922   3.455 -0.7913 -1.4118 -1.2968
   18MOL   C132 4586   6.358   1.134   3.385 -0.2282 -0.2188 -0.5773
   18MOL   C133 4587   6.276   1.193   3.506  0.2353 -0.5321 -0.5500
   18MOL   C134 4588   6.345   1.274   3.619 -0.0921 -0.9588  0.3843
   18MOL   C135 4589   6.298   1.131   3.636 -0.0402 -0.8552 -0.0959
   18MOL   C136 4590   6.339   1.210   3.254  0.3535 -0.1097 -0.2083
   18MOL   H137 4591   6.462   1.141   3.415 -0.4855 -3.3192  1.3200
   18MOL   H138 4592   6.178   1.228   3.476  0.9317  1.5497 -0.4517
   18MOL   H139 4593   6.452   1.288   3.608  0.1050 -1.9573  1.0449
   18MOL   H140 4594   6.290   1.368   3.624  1.3513 -0.0497 -0.2931
   18MOL   H141 4595   6.375   1.056   3.652  1.8970  0.6960 -1.9446
   18MOL   H142 4596   6.208   1.102   3.690  0.4402 -1.7072  0.2475
   18MOL   H143 4597   6.281   1.144   3.189  1.8133  0.3234 -1.9835
   18MOL   H144 4598   6.274   1.295   3.274 -0.5414 -0.2987 -2.2575
   18MOL   C145 4599   6.463   1.261   3.179  0.6504  1.3526  1.0177
   18MOL   C146 4600   6.427   1.294   3.036  0.3043 -0.2762  0.1533
   18MOL   C147 4601   6.535   1.264   2.939 -0.0692  0.3584  0.0147
   18MOL   C148 4602   6.404   1.185   2.937 -0.1769  0.3767 -0.2132
   18MOL   C149 4603   6.510   1.387   3.249  0.1564  0.4381  0.2457
   18MOL   H150 4604   6.542   1.187   3.188  0.4668  0.7094 -2.0810
   18MOL   H151 4605   6.381   1.391   3.021 -0.7010 -0.5981  1.0729
   18MOL   H152 4606   6.558   1.337   2.861  0.2803  0.8564  0.5854
   18MOL   H153 4607   6.621   1.209   2.976 -0.2087 -0.9622 -1.5531
   18MOL   H154 4608   6.422   1.085   2.978 -0.2939  0.3812 -0.1503
   18MOL   H155 4609   6.333   1.195   2.856  0.5195 -0.2553 -0.9167
   18MOL   H156 4610   6.430   1.461   3.248 -0.2644 -0.0177  0.0777
   18MOL   H157 4611   6.530   1.364   3.353 -2.1856 -3.4645 -0.0962
   18MOL   C158 4612   6.646   1.448   3.192  0.1839 -0.4997  0.6704
   18MOL   C159 4613   6.754   1.403   3.280 -0.7091 -0.4588  0.4108
   18MOL   C160 4614   6.804   1.268   3.283  0.1840 -0.5641 -0.3521
   18MOL   C161 4615   6.895   1.381   3.217  0.5082 -0.7638  0.3549
   18MOL   C162 4616   6.662   1.604   3.207  0.1679 -0.0688 -0.7264
   18MOL   H163 4617   6.662   1.408   3.092  1.5092  1.2474  0.1765
   18MOL   H164 4618   6.757   1.446   3.380 -1.2886  2.4165 -0.7626
   18MOL   H165 4619   6.770   1.196   3.209  1.2176 -1.5641  0.1306
   18MOL   H166 4620   6.817   1.227   3.383  0.7315  1.2813  0.3518
   18MOL   H167 4621   6.984   1.423   3.263  0.2010  0.3396 -0.0589
   18MOL   H168 4622   6.896   1.376   3.109 -3.2056  0.0079  0.2176
   18MOL   H169 4623   6.766   1.631   3.222 -0.0447  0.9627 -1.0995
   18MOL   H170 4624   6.620   1.631   3.304  1.1640  0.0042 -0.3151
   18MOL   C171 4625   6.582   1.699   3.117  0.1706  0.0942 -0.0324
   18MOL   C172 4626   6.586   1.837   3.173 -0.0500 -0.2050 -0.2023
   18MOL   C173 4627   6.476   1.939   3.155 -0.1837 -0.1712  0.3669
   18MOL   C174 4628   6.506   1.875   3.292 -0.2603 -0.0972 -0.4125
   18MOL   C175 4629   6.653   1.692   2.975 -0.2233 -0.5342  0.7025
   18MOL   H176 4630   6.482   1.659   3.105 -0.0586  0.6102  0.1396
   18MOL   H177 4631   6.689   1.872   3.177 -0.7486  1.9548 -0.4712
   18MOL   H178 4632   6.513   2.041   3.147 -0.4732 -0.1119 -0.2437
   18MOL   H179 4633   6.374   1.927   3.118  0.0217  0.1902 -0.3304
   18MOL   H180 4634   6.437   1.798   3.327 -0.0891 -0.9302 -1.9022
   18MOL   H181 4635   6.555   1.924   3.376 -1.8300 -0.8376  0.9795
   18MOL   H182 4636   6.655   1.586   2.948 -0.5163 -0.4547  0.3706
   18MOL   H183 4637   6.754   1.730   2.990 -0.0069  0.4736 -2.9215
   18MOL   C184 4638   6.575   1.754   2.858  0.1116 -0.1024  0.2894
   18MOL   C185 4639   6.426   1.701   2.850  0.3809 -0.3180  1.1829
   18MOL   C186 4640   6.389   1.580   2.758 -0.0773 -0.5738  0.4157
   18MOL   C187 4641   6.327   1.721   2.736  0.2814 -0.3197 -0.2950
   18MOL   C188 4642   6.640   1.751   2.718 -0.2381  0.5434  0.3137
   18MOL   H189 4643   6.563   1.861   2.870  3.6724  0.1822  2.2142
   18MOL   H190 4644   6.377   1.703   2.947 -0.9220 -0.8639  0.5561
   18MOL   H191 4645   6.296   1.525   2.769 -1.7143  1.7030 -1.5113
   18MOL   H192 4646   6.453   1.532   2.684  1.2664  0.7034  0.7233
   18MOL   H193 4647   6.222   1.733   2.763  0.0511  2.0004 -2.0644
   18MOL   H194 4648   6.354   1.784   2.652 -1.7197  2.0266  0.7697
   18MOL   H195 4649   6.576   1.822   2.666 -1.6288 -1.6593 -1.0619
   18MOL   H196 4650   6.635   1.654   2.669  1.6016  0.5964 -0.0413
   18MOL   C197 4651   6.792   1.800   2.703 -0.5391  0.5929  0.5521
   18MOL   C198 4652   6.884   1.683   2.724 -0.3870  0.0446 -0.4583
   18MOL   C199 4653   7.026   1.669   2.662 -0.3583  0.0376 -0.2497
   18MOL   C200 4654   6.909   1.581   2.620 -0.2931  0.0054 -0.7185
   18MOL   C201 4655   6.832   1.931   2.782 -0.0720  0.0054  0.5695
   18MOL   H202 4656   6.787   1.829   2.598 -1.8890  1.8463  0.9374
   18MOL   H203 4657   6.877   1.651   2.828 -2.4903 -0.2032 -0.6464
   18MOL   H204 4658   7.056   1.754   2.600 -0.9241  1.4330  1.3713
   18MOL   H205 4659   7.101   1.613   2.717  1.0553  1.7352 -0.3677
   18MOL   H206 4660   6.868   1.599   2.521 -0.4471  2.4479 -0.2405
   18MOL   H207 4661   6.902   1.479   2.658  0.9285 -0.3093 -1.3050
   18MOL   H208 4662   6.811   1.904   2.886  2.1768 -0.9611  0.8085
   18MOL   H209 4663   6.939   1.948   2.778 -0.1507  0.1641 -1.1224
   18MOL   C210 4664   6.763   2.054   2.733 -0.1650  0.6967  0.1152
   18MOL   C211 4665   6.770   2.158   2.838  0.6543  0.3413 -0.5493
   18MOL   C212 4666   6.649   2.248   2.866  0.7041  0.9757 -0.1859
   18MOL   C213 4667   6.676   2.132   2.953  0.4249  0.5072 -0.2216
   18MOL   C214 4668   6.826   2.107   2.599 -0.0220  0.8786  0.1396
   18MOL   H215 4669   6.658   2.042   2.709 -0.0300 -0.0246 -0.1421
   18MOL   H216 4670   6.865   2.210   2.849  0.4643  0.5763 -0.0504
   18MOL   H217 4671   6.660   2.346   2.911 -0.0966  1.6606 -1.4646
   18MOL   H218 4672   6.565   2.248   2.797  0.2639  1.5049  0.3410
   18MOL   H219 4673   6.720   2.140   3.052  0.5631 -1.5786 -0.0893
   18MOL   H220 4674   6.611   2.046   2.937  0.5454  0.5001 -0.6651
   18MOL   H221 4675   6.932   2.116   2.621  0.1165 -1.0892  0.4129
   18MOL   H222 4676   6.819   2.017   2.537 -3.3741 -1.4893  3.6849
   18MOL   C223 4677   6.750   2.226   2.533 -0.1360  0.0909  0.0621
   18MOL   C224 4678   6.718   2.182   2.391  0.1213  0.0885 -0.4115
   18MOL   C225 4679   6.600   2.086   2.369  0.6625  0.0935 -0.1555
   18MOL   C226 4680   6.586   2.232   2.327  0.1074  1.0658  0.0169
   18MOL   C227 4681   6.808   2.367   2.546  0.7658 -0.0690 -0.1201
   18MOL   H228 4682   6.660   2.223   2.595 -0.5945 -2.8039 -0.6757
   18MOL   H229 4683   6.803   2.175   2.325 -0.2011 -0.0924 -0.8078
   18MOL   H230 4684   6.560   2.041   2.460 -3.0894 -0.4191 -1.9411
   18MOL   H231 4685   6.639   2.013   2.298 -0.7039 -0.6123 -0.1986
   18MOL   H232 4686   6.572   2.252   2.221 -2.2585  0.2486  0.1356
   18MOL   H233 4687   6.506   2.276   2.386 -1.3590  0.9408 -1.8229
   18MOL   H234 4688   6.851   2.377   2.646  1.1385  1.6570 -0.4424
   18MOL   H235 4689   6.893   2.371   2.479  0.8763 -0.2514  0.0079
   18MOL   C236 4690   6.708   2.487   2.514  0.0733  0.4134 -0.2960
   18MOL   C237 4691   6.772   2.623   2.528  0.2553  0.5682  0.7645
   18MOL   C238 4692   6.898   2.668   2.455  0.1079 -0.2261  0.0485
   18MOL   C239 4693   6.758   2.731   2.423  0.6638  0.5347  0.0386
   18MOL   C240 4694   6.586   2.476   2.605  0.3645 -0.0207  0.2962
   18MOL   H241 4695   6.685   2.476   2.408 -2.8382 -1.9068  0.5301
   18MOL   H242 4696   6.752   2.666   2.626 -1.3210  0.6171  0.4356
   18MOL   H243 4697   6.967   2.737   2.504  1.8766 -0.4812 -2.0060
   18MOL   H244 4698   6.949   2.607   2.381  0.7289 -2.3036  2.1625
   18MOL   H245 4699   6.717   2.701   2.327  2.8261 -1.7109 -0.2348
   18MOL   H246 4700   6.738   2.834   2.450  1.4967  0.3302  1.5160
   18MOL   H247 4701   6.532   2.384   2.582  1.0579 -0.0800 -1.1381
   18MOL   H248 4702   6.620   2.466   2.708  1.5910  0.7261 -0.0188
   18MOL   C249 4703   6.482   2.586   2.592 -0.2124  0.1543 -0.1706
   18MOL   C250 4704   6.379   2.562   2.710 -0.0401 -0.6761 -0.3793
   18MOL   C251 4705   6.385   2.651   2.839 -1.1755 -0.6832  0.7701
   18MOL   C252 4706   6.272   2.668   2.741 -0.5610 -0.1874  0.3948
   18MOL   C253 4707   6.417   2.596   2.452 -0.6091  0.2967  0.5473
   18MOL   H254 4708   6.532   2.680   2.614 -0.7665  0.7069 -1.2204
   18MOL   H255 4709   6.347   2.459   2.720  0.4210 -0.5997  2.0775
   18MOL   H256 4710   6.362   2.591   2.926 -1.2529 -0.8831  0.6137
   18MOL   H257 4711   6.469   2.721   2.843 -0.3995 -1.5690  0.1708
   18MOL   H258 4712   6.178   2.638   2.787 -1.6802  0.0765 -1.6416
   18MOL   H259 4713   6.266   2.758   2.680  0.7475  1.4752  2.6627
   18MOL   H260 4714   6.496   2.623   2.382 -1.3723  1.1913  0.0238
   18MOL   H261 4715   6.334   2.667   2.457 -0.6326  0.3557 -0.5792
   18MOL   H262 4716   6.375   2.500   2.424 -0.7349 -0.0821  1.9822
   19MOL     C1 4717   4.217   6.117   0.239  0.9855  0.4028 -0.2985
   19MOL     C2 4718   4.224   6.045   0.371  0.5328 -0.3815  0.1913
   19MOL     C3 4719   4.123   6.068   0.489  0.7059  0.7304  0.2167
   19MOL     C4 4720   4.259   6.136   0.490  0.5469  0.6380 -0.1882
   19MOL     C5 4721   4.356   6.132   0.172  0.6234 -0.0866 -0.5688
   19MOL     H6 4722   4.163   6.055   0.168  0.5275 -0.2065  0.5818
   19MOL     H7 4723   4.275   5.949   0.365 -0.1654 -0.7396 -0.1654
   19MOL     H8 4724   4.028   6.119   0.474  0.0066 -1.2766 -2.5047
   19MOL     H9 4725   4.120   5.985   0.560 -2.8895  0.2025 -0.4795
   19MOL    H10 4726   4.332   6.100   0.562 -1.2282 -1.6173  0.5323
   19MOL    H11 4727   4.253   6.244   0.482  0.1653  0.8428  2.5048
   19MOL    H12 4728   4.413   6.042   0.197  0.8030  0.3199  0.4834
   19MOL    H13 4729   4.421   6.211   0.209  0.4030 -0.2096  0.0853
   19MOL    H14 4730   4.168   6.213   0.256 -0.6021 -0.3391 -0.5866
   19MOL    C15 4731   4.349   6.161   0.020 -0.7046 -0.2538 -0.5787
   19MOL    C16 4732   4.433   6.283   7.814  0.0995 -0.1272 -0.1524
   19MOL    C17 4733   4.389   6.423   7.837 -0.3391 -0.1915 -1.3091
   19MOL    C18 4734   4.392   6.369   7.695 -0.0230 -0.6718 -0.5710
   19MOL    C19 4735   4.378   6.048   7.762  0.2831  0.2280 -0.0438
   19MOL    H20 4736   4.246   6.190   7.835 -1.1009  0.3197  1.7246
   19MOL    H21 4737   4.540   6.270   7.826  0.3334  0.0649 -2.0115
   19MOL    H22 4738   4.471   6.482   0.039 -0.2621 -1.5937  0.6255
   19MOL    H23 4739   4.301   6.424   0.061  0.1854 -1.2902 -0.5489
   19MOL    H24 4740   4.296   6.333   7.658 -0.1073 -1.6128  0.5054
   19MOL    H25 4741   4.474   6.409   7.636  1.0176 -2.2937 -0.2590
   19MOL    H26 4742   4.461   5.985   7.793  0.0993  0.5543  1.1372
   19MOL    H27 4743   4.399   6.090   7.664  1.5057  1.5198  0.7529
   19MOL    C28 4744   4.256   5.960   7.749  0.2552  0.6537 -0.5087
   19MOL    C29 4745   4.305   5.814   7.718  0.3084  0.0288 -0.8092
   19MOL    C30 4746   4.343   5.723   7.833 -0.2645  0.1533 -0.0997
   19MOL    C31 4747   4.226   5.688   7.743 -0.8820  0.1656  0.0962
   19MOL    C32 4748   4.160   6.008   7.636 -0.5658  0.0002  0.2154
   19MOL    H33 4749   4.192   5.951   7.836  0.7834 -0.8648 -0.2664
   19MOL    H34 4750   4.368   5.811   7.629  2.5565 -1.5348  0.7784
   19MOL    H35 4751   4.333   5.755   0.097  2.5800 -0.2236  0.3201
   19MOL    H36 4752   4.432   5.662   7.818  1.4384  1.7206  3.1809
   19MOL    H37 4753   4.121   5.700   7.770 -1.0624 -0.7308 -0.1642
   19MOL    H38 4754   4.243   5.608   7.671  2.3836  1.5817 -0.7926
   19MOL    H39 4755   4.202   5.971   7.543 -0.1408 -0.0181  0.4135
   19MOL    H40 4756   4.174   6.116   7.625 -3.1391  0.2716 -0.9529
   19MOL    C41 4757   4.011   5.960   7.650 -0.0363 -0.0384  0.3860
   19MOL    C42 4758   3.953   5.908   7.519 -0.7121 -0.1692 -0.4582
   19MOL    C43 4759   3.820   5.832   7.520 -0.2015  0.2827 -0.2169
   19MOL    C44 4760   3.947   5.762   7.482 -0.2075  0.2175 -0.3865
   19MOL    C45 4761   3.906   6.063   7.704 -0.4951  0.1003 -0.6548
   19MOL    H46 4762   4.015   5.877   7.720  3.0986 -0.0219  0.3063
   19MOL    H47 4763   3.974   5.969   7.432 -0.9418  0.1812 -0.2676
   19MOL    H48 4764   3.780   5.810   7.619  0.9179 -1.5346 -0.1455
   19MOL    H49 4765   3.752   5.847   7.437 -1.3164 -2.0247  0.2488
   19MOL    H50 4766   3.953   5.740   7.376 -0.1681  1.4020 -0.6333
   19MOL    H51 4767   4.006   5.703   7.553  0.7739  0.3062 -1.1261
   19MOL    H52 4768   3.824   6.064   7.633 -1.1758  2.1333  0.1155
   19MOL    H53 4769   3.948   6.164   7.700 -0.1909 -0.0629 -1.9469
   19MOL    C54 4770   3.876   6.059   0.013 -0.6518 -0.3136  0.0123
   19MOL    C55 4771   3.805   6.186   0.060 -0.2168  0.4516 -0.7214
   19MOL    C56 4772   3.894   6.309   0.064 -0.0065 -0.7525 -0.0264
   19MOL    C57 4773   3.821   6.255   0.191  0.2120 -0.0988  0.8177
   19MOL    C58 4774   3.794   5.926   0.043  0.4737  0.5175 -0.1838
   19MOL    H59 4775   3.974   6.058   0.063  0.2559  2.2113 -1.6302
   19MOL    H60 4776   3.701   6.199   0.032 -1.0721 -1.0382  1.6146
   19MOL    H61 4777   4.002   6.308   0.056  0.1178  4.1983 -0.0902
   19MOL    H62 4778   3.847   6.401   0.032  0.7723  0.2688  1.6942
   19MOL    H63 4779   3.733   6.309   0.224  0.4547  0.2596  0.8866
   19MOL    H64 4780   3.899   6.221   0.258  2.6051  2.4311 -0.5562
   19MOL    H65 4781   3.693   5.951   0.011  0.3554  1.7485  1.0686
   19MOL    H66 4782   3.831   5.846   7.819 -0.2931  0.2295 -0.2697
   19MOL    C67 4783   3.784   5.862   0.183  0.3415  0.0928  0.0359
   19MOL    C68 4784   3.914   5.864   0.256  0.4030 -0.3108 -0.4074
   19MOL    C69 4785   3.947   5.757   0.359 -0.5186  0.3252  0.1422
   19MOL    C70 4786   4.023   5.768   0.225 -0.0097  0.4061 -0.0930
   19MOL    C71 4787   3.670   5.932   0.274 -0.0246  0.5195 -0.7063
   19MOL    H72 4788   3.746   5.760   0.176  0.0429  0.1324  0.9944
   19MOL    H73 4789   3.950   5.962   0.289  0.5735  0.0749 -1.7243
   19MOL    H74 4790   4.007   5.787   0.444  0.7005  0.8878 -0.9011
   19MOL    H75 4791   3.881   5.671   0.368  0.3798 -0.3006  0.8609
   19MOL    H76 4792   4.005   5.700   0.142  1.7961 -0.0476 -0.1234
   19MOL    H77 4793   4.128   5.796   0.233  0.0161  0.1026  0.6761
   19MOL    H78 4794   3.593   5.965   0.205 -0.8410  0.4260  0.1550
   19MOL    H79 4795   3.709   6.018   0.328 -0.5069 -0.8256  1.8544
   19MOL    C80 4796   3.601   5.849   0.385 -0.2158  0.1662  0.1288
   19MOL    C81 4797   3.479   5.779   0.329 -0.1917 -0.4828 -0.5231
   19MOL    C82 4798   3.417   5.649   0.363  1.1986 -0.0317 -0.1698
   19MOL    C83 4799   3.491   5.660   0.236  0.1954  0.9072 -0.5399
   19MOL    C84 4800   3.567   5.937   0.513  0.0343 -0.1288 -0.5498
   19MOL    H85 4801   3.666   5.768   0.418  1.8524  2.0129  0.6497
   19MOL    H86 4802   3.416   5.853   0.279  0.5327  0.9047  0.5813
   19MOL    H87 4803   3.314   5.621   0.344  1.5497 -2.1720  0.9474
   19MOL    H88 4804   3.469   5.601   0.446  0.5643 -0.2426  0.1078
   19MOL    H89 4805   3.589   5.613   0.229  0.6878  2.2963 -3.6894
   19MOL    H90 4806   3.450   5.690   0.140  0.3888  2.2993 -0.2049
   19MOL    H91 4807   3.545   6.037   0.478  1.5100  0.3375 -0.1799
   19MOL    H92 4808   3.488   5.894   0.575  0.6746 -2.1707 -1.0902
   19MOL    C93 4809   3.683   5.968   0.605  0.4401 -0.4012 -0.0320
   19MOL    C94 4810   3.643   6.075   0.707  1.5186  0.1686  0.0260
   19MOL    C95 4811   3.735   6.183   0.735  0.2051  0.0777  0.2331
   19MOL    C96 4812   3.619   6.210   0.648 -0.2677  0.2122 -0.1957
   19MOL    C97 4813   3.723   5.827   0.690 -0.2695  0.9407  1.0758
   19MOL    H98 4814   3.766   6.002   0.542 -0.2650  1.9736  0.2680
   19MOL    H99 4815   3.589   6.037   0.793  2.0579  0.2253  0.3929
   19MOL   H100 4816   3.730   6.240   0.828 -4.7740  1.0534 -0.4918
   19MOL   H101 4817   3.830   6.189   0.683 -0.2745 -0.4853 -0.7194
   19MOL   H102 4818   3.541   6.278   0.682 -0.8345 -1.3358  1.6721
   19MOL   H103 4819   3.640   6.224   0.542  0.0687 -1.1995 -0.3342
   19MOL   H104 4820   3.761   5.750   0.622 -0.6664  0.2514  1.6362
   19MOL   H105 4821   3.624   5.794   0.720 -0.0365  0.2770  1.1414
   19MOL   C106 4822   3.808   5.844   0.819 -0.7228 -0.1874  0.2431
   19MOL   C107 4823   3.810   5.715   0.903  0.1838 -0.4300 -0.1025
   19MOL   C108 4824   3.848   5.704   1.051 -0.2604 -0.1159 -0.0728
   19MOL   C109 4825   3.705   5.703   1.007  0.5046  0.2665  0.1463
   19MOL   C110 4826   3.950   5.875   0.768  0.6330 -0.2486 -0.3370
   19MOL   H111 4827   3.776   5.935   0.870  0.0874 -0.3784  1.1008
   19MOL   H112 4828   3.827   5.620   0.853 -1.7966 -0.3541 -0.9813
   19MOL   H113 4829   3.880   5.607   1.087 -1.0689  0.0227  1.0338
   19MOL   H114 4830   3.878   5.792   1.108  0.1306 -0.4660  0.2685
   19MOL   H115 4831   3.645   5.793   1.018  1.4526  0.9972 -0.5853
   19MOL   H116 4832   3.650   5.611   1.025  0.4676  0.7755  2.8350
   19MOL   H117 4833   3.978   5.803   0.691  0.4126  0.7508 -1.3618
   19MOL   H118 4834   3.937   5.972   0.720 -1.5622 -1.1743 -1.6807
   19MOL   C119 4835   4.061   5.905   0.878 -0.2719 -0.1213  0.0929
   19MOL   C120 4836   4.201   5.911   0.811  0.0338  0.7206 -1.0523
   19MOL   C121 4837   4.263   5.793   0.742  0.2143  0.1001  0.0206
   19MOL   C122 4838   4.320   5.848   0.870  0.3192 -0.1414 -0.2199
   19MOL   C123 4839   4.027   6.038   0.962  0.4808 -0.2125 -0.0502
   19MOL   H124 4840   4.075   5.821   0.947  1.2700  0.8663  1.0191
   19MOL   H125 4841   4.216   6.008   0.765 -1.5536  1.0911 -0.8228
   19MOL   H126 4842   4.308   5.815   0.645  0.8045  1.5647  0.6070
   19MOL   H127 4843   4.201   5.704   0.742 -1.4063  1.2141  0.7857
   19MOL   H128 4844   4.307   5.793   0.963  0.2610  1.0007  0.4468
   19MOL   H129 4845   4.413   5.903   0.867 -0.2578  1.0804  2.7334
   19MOL   H130 4846   4.031   6.123   0.894 -0.3719 -1.5721 -1.8433
   19MOL   H131 4847   3.926   6.032   1.003  0.0861  2.1433 -0.5968
   19MOL   C132 4848   4.115   6.065   1.090 -0.4973  0.5541  0.3795
   19MOL   C133 4849   4.079   5.972   1.194 -0.8238  0.8335 -0.3415
   19MOL   C134 4850   4.173   5.935   1.315  0.2588 -0.0677  0.0347
   19MOL   C135 4851   4.143   5.835   1.201  0.2123 -0.4240  0.4374
   19MOL   C136 4852   4.080   6.214   1.134 -0.0252  0.4478 -0.2412
   19MOL   H137 4853   4.222   6.049   1.077 -0.7853 -0.2559 -1.0389
   19MOL   H138 4854   3.975   5.974   1.228 -0.5066 -0.8090  0.8325
   19MOL   H139 4855   4.264   5.994   1.313  0.9626 -1.1171  0.3051
   19MOL   H140 4856   4.120   5.937   1.411 -1.5522  0.6429 -0.9560
   19MOL   H141 4857   4.235   5.811   1.149 -0.0163 -1.1290  0.3660
   19MOL   H142 4858   4.084   5.752   1.238 -1.6318  1.1468  1.1222
   19MOL   H143 4859   3.979   6.246   1.111  0.3829  1.2759 -0.8950
   19MOL   H144 4860   4.074   6.226   1.242  0.2322 -0.6786 -0.0857
   19MOL   C145 4861   4.188   6.315   1.083 -0.1736 -0.2738 -0.2693
   19MOL   C146 4862   4.183   6.330   0.933  0.4462  0.1182 -0.1641
   19MOL   C147 4863   4.300   6.397   0.856  0.0712 -0.0282  0.4628
   19MOL   C148 4864   4.274   6.251   0.835  0.2173 -0.2446 -0.2860
   19MOL   C149 4865   4.164   6.457   1.145  0.5160 -0.1486 -0.5976
   19MOL   H150 4866   4.288   6.278   1.104 -0.4623 -0.8730  0.0565
   19MOL   H151 4867   4.079   6.344   0.906  1.2862  1.3488 -3.0960
   19MOL   H152 4868   4.281   6.459   0.768 -2.3488 -0.5801  0.5494
   19MOL   H153 4869   4.396   6.421   0.901 -1.0435  0.7013  2.5667
   19MOL   H154 4870   4.347   6.185   0.882  0.6397  0.0133 -0.5804
   19MOL   H155 4871   4.220   6.209   0.751  0.0839 -0.0705 -0.2870
   19MOL   H156 4872   4.211   6.523   1.072  0.1825  0.5220 -0.2120
   19MOL   H157 4873   4.060   6.484   1.126  1.4038  2.4730 -2.1034
   19MOL   C158 4874   4.205   6.476   1.295  0.4194  0.3620 -0.7989
   19MOL   C159 4875   4.142   6.591   1.359  0.0973  0.2146 -0.0461
   19MOL   C160 4876   4.000   6.593   1.382 -0.2147 -0.1141 -0.3703
   19MOL   C161 4877   4.089   6.586   1.500  0.1714  0.0567  0.0079
   19MOL   C162 4878   4.360   6.484   1.295 -0.2935 -0.4776 -0.3635
   19MOL   H163 4879   4.178   6.386   1.351  1.1286  0.5160 -0.1951
   19MOL   H164 4880   4.175   6.689   1.325 -2.2391  1.1331  0.2496
   19MOL   H165 4881   3.932   6.508   1.377 -1.1588  0.6209 -0.1990
   19MOL   H166 4882   3.957   6.689   1.357  1.3754  0.5243 -0.7138
   19MOL   H167 4883   4.092   6.675   1.564  4.1539 -1.3365  1.9172
   19MOL   H168 4884   4.087   6.489   1.548 -0.1444 -0.4581 -1.0450
   19MOL   H169 4885   4.385   6.585   1.261 -1.4907 -0.4192 -1.1162
   19MOL   H170 4886   4.422   6.429   1.223  1.7087  0.9263  0.2558
   19MOL   C171 4887   4.423   6.472   1.438  1.2664  0.1779  0.0474
   19MOL   C172 4888   4.425   6.325   1.489  0.0423  0.1407 -0.6117
   19MOL   C173 4889   4.464   6.286   1.635 -0.9066  0.4585 -0.9165
   19MOL   C174 4890   4.317   6.280   1.585 -0.1414 -0.0333  0.3825
   19MOL   C175 4891   4.566   6.531   1.433  0.4224  0.1340 -0.7370
   19MOL   H176 4892   4.367   6.524   1.516  1.7996  1.1289 -0.1920
   19MOL   H177 4893   4.432   6.259   1.403  0.3540  1.5122 -1.6673
   19MOL   H178 4894   4.523   6.195   1.647  0.9168  1.7900  0.5145
   19MOL   H179 4895   4.488   6.355   1.715 -0.6188 -0.1914 -0.4361
   19MOL   H180 4896   4.250   6.357   1.620  0.2402  0.8508 -0.7821
   19MOL   H181 4897   4.267   6.185   1.565  2.2480 -1.1850 -0.3345
   19MOL   H182 4898   4.570   6.594   1.344  0.5643 -0.1114 -0.9075
   19MOL   H183 4899   4.641   6.458   1.402  2.0604  1.4639  0.0455
   19MOL   C184 4900   4.616   6.620   1.555 -0.0336  0.0354  0.1283
   19MOL   C185 4901   4.509   6.713   1.616  0.5529  0.3218  0.7848
   19MOL   C186 4902   4.532   6.792   1.743  0.0202  0.1202  0.0906
   19MOL   C187 4903   4.440   6.674   1.743  0.3290 -0.6024  0.4067
   19MOL   C188 4904   4.740   6.703   1.516 -0.1769  0.6645 -0.3897
   19MOL   H189 4905   4.640   6.548   1.633 -1.7597  0.5227  1.1490
   19MOL   H190 4906   4.439   6.756   1.544  1.2654 -0.4896 -0.4161
   19MOL   H191 4907   4.480   6.886   1.762 -1.4123 -0.7696  0.6989
   19MOL   H192 4908   4.620   6.777   1.806  1.4680 -0.1536 -1.9615
   19MOL   H193 4909   4.333   6.690   1.753  0.0725 -1.1181 -1.4414
   19MOL   H194 4910   4.464   6.576   1.786 -0.0114 -0.0470  1.8998
   19MOL   H195 4911   4.763   6.756   1.608  0.8485 -0.4422 -0.0022
   19MOL   H196 4912   4.736   6.768   1.428 -0.4915  1.0813 -0.0639
   19MOL   C197 4913   4.875   6.624   1.498 -0.8000 -0.5194  0.1111
   19MOL   C198 4914   4.899   6.536   1.618  0.1756 -0.0302 -0.2952
   19MOL   C199 4915   5.010   6.431   1.611 -0.2127 -0.7345 -0.6328
   19MOL   C200 4916   4.870   6.389   1.615 -0.2858  0.2917 -0.1253
   19MOL   C201 4917   4.996   6.723   1.489  0.1471  0.7196  0.1557
   19MOL   H202 4918   4.883   6.564   1.408  1.4568  0.5984 -0.4635
   19MOL   H203 4919   4.902   6.589   1.714 -2.1385  0.3280 -0.3802
   19MOL   H204 4920   5.057   6.399   1.518 -1.0197 -1.6868 -0.7278
   19MOL   H205 4921   5.067   6.414   1.701 -0.8165  1.1851  0.1229
   19MOL   H206 4922   4.820   6.355   1.524  0.9402 -1.3414 -0.2051
   19MOL   H207 4923   4.856   6.341   1.711  1.1248  0.8611  0.3686
   19MOL   H208 4924   4.986   6.798   1.567 -0.9157 -0.5248  1.2557
   19MOL   H209 4925   5.093   6.680   1.518 -0.5305 -0.7759  0.2474
   19MOL   C210 4926   5.017   6.788   1.348 -0.4943  0.5066  0.2325
   19MOL   C211 4927   5.073   6.929   1.354 -0.5253 -0.0180 -0.5740
   19MOL   C212 4928   5.030   7.031   1.259  0.4736  0.3793 -0.4635
   19MOL   C213 4929   4.961   7.031   1.392 -0.4106  0.4863 -0.4895
   19MOL   C214 4930   5.098   6.696   1.256  0.3654  0.7967  0.1973
   19MOL   H215 4931   4.914   6.789   1.313 -0.8902 -0.5842  1.3299
   19MOL   H216 4932   5.173   6.943   1.394 -0.7389 -3.2775  1.2622
   19MOL   H217 4933   5.091   7.119   1.241  1.2771  0.4818  2.5859
   19MOL   H218 4934   4.969   6.994   1.176 -0.0930 -0.8376  0.4745
   19MOL   H219 4935   4.996   7.097   1.471  0.0424 -0.5352  0.1752
   19MOL   H220 4936   4.854   7.011   1.401 -0.3653 -0.6044 -2.2542
   19MOL   H221 4937   5.204   6.706   1.281  0.4755 -0.8826  0.5173
   19MOL   H222 4938   5.072   6.597   1.293 -0.1542  0.5653 -0.7773
   19MOL   C223 4939   5.067   6.690   1.106 -0.1289 -0.3605  0.0159
   19MOL   C224 4940   4.920   6.645   1.079 -0.6647 -0.7130 -0.1773
   19MOL   C225 4941   4.788   6.727   1.061  1.0720 -0.0019 -0.5316
   19MOL   C226 4942   4.860   6.659   0.943  0.8446 -0.7184  0.2122
   19MOL   C227 4943   5.163   6.589   1.031 -0.1427 -0.4626 -0.8393
   19MOL   H228 4944   5.080   6.789   1.061  1.5236 -0.8164 -0.5410
   19MOL   H229 4945   4.895   6.550   1.125  0.5072 -0.7060  0.4873
   19MOL   H230 4946   4.794   6.835   1.058  1.6981 -0.0826 -2.5064
   19MOL   H231 4947   4.693   6.682   1.091  1.3320  0.5100  1.1150
   19MOL   H232 4948   4.801   6.575   0.907 -0.2477 -0.0983  0.5357
   19MOL   H233 4949   4.918   6.712   0.867  0.9961 -1.6045 -0.3011
   19MOL   H234 4950   5.160   6.496   1.088 -2.8969 -0.0453 -0.1825
   19MOL   H235 4951   5.119   6.580   0.932 -2.0009 -1.5925  0.0510
   19MOL   C236 4952   5.315   6.619   1.015  0.2856 -0.1759  0.0142
   19MOL   C237 4953   5.337   6.745   0.939  0.5882 -0.3194 -0.2497
   19MOL   C238 4954   5.328   6.877   1.006 -0.0742  0.4567 -0.4165
   19MOL   C239 4955   5.458   6.846   0.943 -0.1726 -0.4450 -0.2540
   19MOL   C240 4956   5.397   6.505   0.945 -0.5596  0.2944 -0.1141
   19MOL   H241 4957   5.368   6.637   1.109 -0.6353 -0.9118  0.6859
   19MOL   H242 4958   5.287   6.735   0.842  0.9388 -2.4401 -0.2366
   19MOL   H243 4959   5.268   6.944   0.945  1.0315 -0.3025 -2.3802
   19MOL   H244 4960   5.317   6.874   1.114  2.3987  1.0687 -0.1275
   19MOL   H245 4961   5.542   6.811   1.003 -0.4002  0.4890  0.6234
   19MOL   H246 4962   5.476   6.904   0.853 -4.3589 -0.2790 -1.0615
   19MOL   H247 4963   5.348   6.479   0.850 -0.2923 -3.1620  0.6348
   19MOL   H248 4964   5.495   6.546   0.921 -1.6741  2.7365 -0.5877
   19MOL   C249 4965   5.445   6.376   1.019 -0.5286 -0.6540  0.6502
   19MOL   C250 4966   5.505   6.412   1.159 -0.5966  0.7176  0.5356
   19MOL   C251 4967   5.431   6.425   1.279 -0.5132 -0.2830  0.0092
   19MOL   C252 4968   5.531   6.315   1.279  0.5685  0.2390  0.8175
   19MOL   C253 4969   5.546   6.301   0.935 -0.2137 -0.2743  0.5388
   19MOL   H254 4970   5.354   6.318   1.034 -1.8414  1.3191  0.5162
   19MOL   H255 4971   5.591   6.476   1.140  0.8792 -1.2349  0.4783
   19MOL   H256 4972   5.449   6.506   1.349 -2.3552 -0.8056  1.1150
   19MOL   H257 4973   5.327   6.395   1.270 -0.6470  0.5034 -1.0775
   19MOL   H258 4974   5.627   6.327   1.329  1.9655  2.2401 -2.2131
   19MOL   H259 4975   5.490   6.215   1.280  2.1211 -0.4143  0.5772
   19MOL   H260 4976   5.509   6.302   0.833 -0.5916 -0.5261  0.6703
   19MOL   H261 4977   5.562   6.197   0.965  1.6950 -0.3481 -0.7029
   19MOL   H262 4978   5.650   6.333   0.941  0.7322 -2.9027 -0.9543
   20MOL     C1 4979   0.478   0.088   0.568  0.6318  0.2293  0.2135
   20MOL     C2 4980   0.560   0.165   0.466  0.2078 -0.1911 -0.1329
   20MOL     C3 4981   0.704   0.134   0.427 -0.0872  0.5483 -0.1484
   20MOL     C4 4982   0.664   0.254   0.515  0.2778 -0.0938 -0.2227
   20MOL     C5 4983   0.422   7.798   0.500 -0.4756 -0.4585  0.0984
   20MOL     H6 4984   0.537   0.059   0.656  1.0579  2.1789  0.5820
   20MOL     H7 4985   0.503   0.210   0.386 -0.5050 -2.6098 -1.0362
   20MOL     H8 4986   0.788   0.078   0.469  0.0348 -0.1456 -1.2754
   20MOL     H9 4987   0.730   0.151   0.322 -0.2301 -0.0470 -0.2815
   20MOL    H10 4988   0.671   0.356   0.476  2.0549  0.3406  1.1737
   20MOL    H11 4989   0.684   0.243   0.621 -0.3821  1.3633  0.0713
   20MOL    H12 4990   0.505   7.729   0.488  1.1914  1.2263  1.4061
   20MOL    H13 4991   0.377   7.823   0.404 -1.2460 -0.3027  0.4967
   20MOL    H14 4992   0.409   0.165   0.602 -1.0178 -0.6159 -1.1214
   20MOL    C15 4993   0.314   7.719   0.575  0.2666  0.3107 -0.3579
   20MOL    C16 4994   0.362   7.683   0.715  0.1688 -1.1110  0.7920
   20MOL    C17 4995   0.481   7.600   0.757 -0.3052 -0.0153 -0.0008
   20MOL    C18 4996   0.345   7.539   0.767  0.3293  0.2038 -0.1152
   20MOL    C19 4997   0.185   7.799   0.590 -0.5412  0.2859  0.2959
   20MOL    H20 4998   0.292   7.629   0.517 -0.1959 -0.8362  1.5510
   20MOL    H21 4999   0.357   7.767   0.785 -0.7242 -0.9418  0.5240
   20MOL    H22 5000   0.521   7.646   0.847  2.8406 -0.9660 -0.8459
   20MOL    H23 5001   0.541   7.560   0.675 -1.0653  0.1429 -0.6417
   20MOL    H24 5002   0.322   7.458   0.698  2.3884  0.9866 -1.7761
   20MOL    H25 5003   0.293   7.530   0.863 -0.3855 -0.1704 -0.5359
   20MOL    H26 5004   0.163   0.007   0.495 -1.9826 -3.5667 -1.4170
   20MOL    H27 5005   0.203   0.046   0.654 -0.0292  0.3821  0.0202
   20MOL    C28 5006   0.069   7.712   0.645  0.0766 -0.4464 -0.0478
   20MOL    C29 5007   0.014   7.632   0.528  0.0074 -0.1572 -0.3900
   20MOL    C30 5008   0.060   7.490   0.493  0.2889  0.0514  0.2159
   20MOL    C31 5009   7.756   7.513   0.549  0.5106  0.1836 -0.5721
   20MOL    C32 5010   7.796   7.786   0.724 -0.0953 -0.1715 -0.1145
   20MOL    H33 5011   0.103   7.634   0.713 -1.1515 -0.0675  1.0174
   20MOL    H34 5012   0.000   7.700   0.444 -0.1337  2.5060  1.7110
   20MOL    H35 5013   0.119   7.426   0.560  1.3425  0.1581 -0.5897
   20MOL    H36 5014   0.078   7.463   0.390  0.9668 -1.3977  0.6959
   20MOL    H37 5015   7.733   7.487   0.653 -1.4303  0.7462 -0.8255
   20MOL    H38 5016   7.680   7.493   0.474 -0.7480 -2.2061  1.2588
   20MOL    H39 5017   7.694   7.766   0.693 -0.1567  1.8822 -1.3543
   20MOL    H40 5018   7.814   0.052   0.703  1.1598 -0.1942  0.7920
   20MOL    C41 5019   7.801   7.766   0.885 -1.0208  0.1573 -0.5435
   20MOL    C42 5020   0.097   7.820   0.937 -0.5970 -0.1876 -0.6376
   20MOL    C43 5021   0.106   0.048   1.079  0.8998  0.4523  0.1244
   20MOL    C44 5022   0.108   0.130   0.950  0.5993  0.1257 -0.0894
   20MOL    C45 5023   7.775   7.621   0.931 -0.0013  0.3526  0.1498
   20MOL    H46 5024   7.727   7.836   0.923 -0.7707 -0.6296  1.4410
   20MOL    H47 5025   0.190   7.774   0.904  0.4103  2.6106 -1.9092
   20MOL    H48 5026   0.018   0.062   1.143  0.4365  1.6024 -0.7464
   20MOL    H49 5027   0.191   0.011   1.136 -0.5915 -2.1401  0.7789
   20MOL    H50 5028   0.210   0.155   0.923  0.6781 -0.0424  0.0522
   20MOL    H51 5029   0.032   0.206   0.938  0.1972 -0.1769  0.5158
   20MOL    H52 5030   0.020   7.595   0.995 -0.9181  0.1287  1.2709
   20MOL    H53 5031   7.773   7.556   0.844 -0.4946  0.9825 -0.3158
   20MOL    C54 5032   7.639   7.611   1.007 -0.8143  0.5264  0.2836
   20MOL    C55 5033   7.527   7.624   0.911 -0.0271 -0.8272  0.0724
   20MOL    C56 5034   7.469   7.750   0.871 -0.5958 -0.1623 -0.2665
   20MOL    C57 5035   7.388   7.663   0.954  0.2328  0.3094 -0.4814
   20MOL    C58 5036   7.620   7.479   1.080 -0.2800 -0.0812 -0.4604
   20MOL    H59 5037   7.633   7.691   1.081 -0.0088 -0.2308  1.1800
   20MOL    H60 5038   7.527   7.543   0.838  1.0549 -1.0117  0.2652
   20MOL    H61 5039   7.503   0.009   0.904 -3.3729  1.2512 -1.3866
   20MOL    H62 5040   7.422   7.764   0.774 -0.7775 -0.4878 -0.2230
   20MOL    H63 5041   7.300   7.621   0.906 -1.3200  0.5687  2.0450
   20MOL    H64 5042   7.366   7.694   1.056 -4.8567 -2.9443 -0.4106
   20MOL    H65 5043   7.519   7.453   1.111  0.0258 -1.8505 -0.9078
   20MOL    H66 5044   7.621   7.401   1.004 -0.6103 -0.5600  0.0248
   20MOL    C67 5045   7.712   7.441   1.196  0.6428  0.0554  0.3989
   20MOL    C68 5046   7.714   7.544   1.303  0.4982  0.1425 -0.1307
   20MOL    C69 5047   7.776   7.530   1.441  0.2403 -0.9465  0.3312
   20MOL    C70 5048   0.001   7.608   1.333 -0.4711 -0.3397 -0.5143
   20MOL    C71 5049   7.669   7.301   1.249 -0.6725 -0.6632  0.6115
   20MOL    H72 5050   7.811   7.424   1.153 -0.3142 -1.6464 -1.1864
   20MOL    H73 5051   7.628   7.610   1.300  0.4037  0.1607  2.3458
   20MOL    H74 5052   7.745   7.601   1.517  0.9169 -0.4248  0.1247
   20MOL    H75 5053   7.830   7.439   1.468 -1.2608 -2.1578 -0.6156
   20MOL    H76 5054   0.092   7.576   1.283 -0.2325  0.2171 -0.4366
   20MOL    H77 5055   7.825   7.715   1.340 -3.2413 -0.8543  2.1201
   20MOL    H78 5056   7.577   7.262   1.204 -0.1640  0.0988 -1.1286
   20MOL    H79 5057   7.653   7.325   1.354 -1.6282  1.2835  0.0547
   20MOL    C80 5058   7.776   7.189   1.239  0.2698 -0.2754  0.3264
   20MOL    C81 5059   0.063   7.220   1.313 -0.0611  0.2556  0.3225
   20MOL    C82 5060   0.156   7.102   1.346  0.4468 -0.0097  0.0500
   20MOL    C83 5061   0.089   7.184   1.461 -0.8430  0.0808 -0.5205
   20MOL    C84 5062   7.807   7.156   1.090 -0.7426 -0.0830 -0.2210
   20MOL    H85 5063   7.737   7.097   1.282  0.3616  0.3610  1.7946
   20MOL    H86 5064   0.109   7.309   1.270  0.1609 -0.1011 -0.1821
   20MOL    H87 5065   0.262   7.125   1.340  0.3626  0.3424 -0.1041
   20MOL    H88 5066   0.132   6.998   1.330  1.8610  0.0068 -2.2961
   20MOL    H89 5067   0.002   7.152   1.518 -0.7521  0.1659 -0.3360
   20MOL    H90 5068   0.157   7.249   1.515  0.9988 -1.8367 -0.4861
   20MOL    H91 5069   0.001   7.244   1.035 -0.0149  0.8472  1.6572
   20MOL    H92 5070   0.059   7.098   1.087 -1.2452 -0.9633  1.0038
   20MOL    C93 5071   7.685   7.095   1.012 -0.1226 -0.1657 -0.5831
   20MOL    C94 5072   7.721   7.095   0.860 -0.7876  0.1446  0.6768
   20MOL    C95 5073   7.632   7.132   0.741  0.1557 -0.4072 -0.4073
   20MOL    C96 5074   7.746   7.222   0.779  0.0003 -0.1947 -0.0877
   20MOL    C97 5075   7.660   6.943   1.058  0.7283  0.5478 -0.1363
   20MOL    H98 5076   7.598   7.158   1.031 -0.5791 -1.4957  1.9393
   20MOL    H99 5077   7.791   7.017   0.830  0.3031  1.1020  0.7029
   20MOL   H100 5078   7.628   7.069   0.653  1.5807 -0.6122 -0.3265
   20MOL   H101 5079   7.528   7.163   0.754 -1.1164 -3.9143 -1.6753
   20MOL   H102 5080   7.812   7.246   0.695 -2.3442  2.7912 -1.1738
   20MOL   H103 5081   7.710   7.305   0.839 -1.5691 -1.5516  0.8857
   20MOL   H104 5082   7.639   6.952   1.164 -0.5161  2.5329 -0.5243
   20MOL   H105 5083   7.752   6.886   1.064  0.9198  0.8092 -0.5478
   20MOL   C106 5084   7.548   6.876   0.973  0.9735  0.3608 -0.0934
   20MOL   C107 5085   7.559   6.730   0.975 -0.3283  0.3998  0.7734
   20MOL   C108 5086   7.572   6.641   0.857 -0.2944  1.0345 -0.1377
   20MOL   C109 5087   7.698   6.680   0.932 -0.3421  0.5446 -0.2179
   20MOL   C110 5088   7.402   6.927   1.015  0.4272 -0.2037  0.3888
   20MOL   H111 5089   7.553   6.901   0.867 -2.1513 -2.3325 -0.9577
   20MOL   H112 5090   7.521   6.681   1.064 -3.1121 -1.8618 -1.5480
   20MOL   H113 5091   7.544   6.537   0.876  0.2198  1.1683  1.4578
   20MOL   H114 5092   7.556   6.688   0.760 -1.6819  1.8213  0.4662
   20MOL   H115 5093   7.759   6.745   0.870 -0.8042  1.5114  0.3396
   20MOL   H116 5094   7.752   6.599   0.981 -1.9682  0.4167  1.4053
   20MOL   H117 5095   7.356   6.837   1.056 -0.7468 -0.9193 -2.3367
   20MOL   H118 5096   7.419   6.998   1.096 -0.2530  2.3326 -1.6391
   20MOL   C119 5097   7.297   6.971   0.900  0.4669 -0.1376 -0.2462
   20MOL   C120 5098   7.219   6.852   0.845  0.5889  0.3400  0.3574
   20MOL   C121 5099   7.280   6.772   0.732  0.3069 -0.0796  1.2431
   20MOL   C122 5100   7.161   6.868   0.708 -0.8064  0.6628  0.7564
   20MOL   C123 5101   7.188   7.065   0.962 -0.0203  1.0200  0.2382
   20MOL   H124 5102   7.341   7.021   0.813 -1.6295  0.8151 -0.7878
   20MOL   H125 5103   7.169   6.794   0.922  1.0441  0.3637  0.6754
   20MOL   H126 5104   7.263   6.665   0.725  5.0036 -0.9596  1.8788
   20MOL   H127 5105   7.374   6.809   0.691  0.1528  0.9222  1.7692
   20MOL   H128 5106   7.196   6.953   0.650 -2.0969 -0.6571 -2.1121
   20MOL   H129 5107   7.060   6.829   0.691 -0.3490  0.3432 -1.5032
   20MOL   H130 5108   7.094   7.042   0.913  0.4884  0.9458 -0.7122
   20MOL   H131 5109   7.172   7.028   1.064  2.7792 -1.7408 -0.2469
   20MOL   C132 5110   7.219   7.224   0.957 -0.5433 -0.0110  0.2486
   20MOL   C133 5111   7.270   7.271   1.094 -0.1210  0.5709 -0.2735
   20MOL   C134 5112   7.172   7.257   1.213  0.6516  0.1137  0.4467
   20MOL   C135 5113   7.228   7.393   1.174 -0.5542 -0.0002  0.3605
   20MOL   C136 5114   7.094   7.305   0.900  1.0632  0.5090 -0.4385
   20MOL   H137 5115   7.304   7.248   0.893  0.7552 -0.3791  1.8015
   20MOL   H138 5116   7.373   7.238   1.105  0.8578  3.6642  0.5077
   20MOL   H139 5117   7.072   7.228   1.184  0.4516 -0.9010  2.1020
   20MOL   H140 5118   7.209   7.211   1.305 -1.9153  0.5122  1.7115
   20MOL   H141 5119   7.156   7.459   1.127  0.6963  0.2622 -1.2189
   20MOL   H142 5120   7.296   7.448   1.240 -1.2703 -2.4446  3.2564
   20MOL   H143 5121   7.004   7.274   0.952  1.1857  1.0302  0.0849
   20MOL   H144 5122   7.099   7.412   0.921 -0.1419  0.5908 -0.5116
   20MOL   C145 5123   7.092   7.299   0.747 -0.1886 -0.4745 -0.0543
   20MOL   C146 5124   6.953   7.336   0.702  0.3170 -0.1253 -0.6116
   20MOL   C147 5125   6.879   7.270   0.598 -0.0707  0.1821  0.0249
   20MOL   C148 5126   6.844   7.237   0.738  0.0303  0.0054  0.2017
   20MOL   C149 5127   7.199   7.390   0.677  0.2863 -0.0279  0.1676
   20MOL   H150 5128   7.104   7.196   0.712 -0.3670  0.1522 -1.9631
   20MOL   H151 5129   6.928   7.439   0.726 -1.5591 -0.7439  0.1998
   20MOL   H152 5130   6.801   7.326   0.546  0.6289  1.0510 -0.0911
   20MOL   H153 5131   6.928   7.194   0.536 -0.3872 -0.8972  1.0881
   20MOL   H154 5132   6.883   7.142   0.774 -0.7279 -0.6449 -0.6681
   20MOL   H155 5133   6.752   7.271   0.784 -1.2043 -1.3583 -1.1780
   20MOL   H156 5134   7.180   7.492   0.710 -0.9050  0.3047 -1.4942
   20MOL   H157 5135   7.292   7.374   0.732  0.2505  0.3653  0.3408
   20MOL   C158 5136   7.206   7.387   0.518 -0.0349  0.1858  0.0881
   20MOL   C159 5137   7.300   7.281   0.468 -0.0550  0.0376  0.2020
   20MOL   C160 5138   7.440   7.281   0.519  0.4914 -0.5789  0.2160
   20MOL   C161 5139   7.353   7.162   0.541  0.9311 -1.0162 -0.1481
   20MOL   C162 5140   7.245   7.526   0.463  0.7039  0.2173  0.0335
   20MOL   H163 5141   7.106   7.373   0.476  0.0891  1.8342 -0.8252
   20MOL   H164 5142   7.298   7.267   0.360  1.0216  1.0731  0.0421
   20MOL   H165 5143   7.465   7.337   0.609  1.1547 -1.7365  0.7647
   20MOL   H166 5144   7.525   7.273   0.452 -0.2806 -0.7929 -0.7462
   20MOL   H167 5145   7.383   7.075   0.483  1.9588 -1.2345  0.6877
   20MOL   H168 5146   7.319   7.145   0.643 -1.3878  1.4229 -0.4822
   20MOL   H169 5147   7.327   7.574   0.518  0.8068 -2.2521  2.1238
   20MOL   H170 5148   7.160   7.593   0.479  0.5914  0.5126 -1.7504
   20MOL   C171 5149   7.251   7.542   0.309 -0.3521 -0.2168 -0.4381
   20MOL   C172 5150   7.125   7.498   0.236  0.1938  0.1824 -0.1856
   20MOL   C173 5151   7.119   7.455   0.091 -0.1315 -0.3296 -0.2310
   20MOL   C174 5152   7.088   7.352   0.195 -0.5495 -0.2594 -0.0558
   20MOL   C175 5153   7.291   7.690   0.279  0.2666  0.8856 -0.3401
   20MOL   H176 5154   7.330   7.475   0.274  1.1372  1.6394 -0.6952
   20MOL   H177 5155   7.041   7.564   0.253 -0.5584 -0.6942 -0.4556
   20MOL   H178 5156   7.038   7.485   0.024 -1.1048 -1.2294  0.5288
   20MOL   H179 5157   7.216   7.436   0.046  0.6974  1.0628  0.8857
   20MOL   H180 5158   7.163   7.275   0.205  0.2796  0.4063 -1.0155
   20MOL   H181 5159   6.987   7.319   0.219 -0.4405  0.4950  1.4663
   20MOL   H182 5160   7.344   7.733   0.364 -0.1817  4.6622 -1.8913
   20MOL   H183 5161   7.208   7.760   0.278 -0.5244 -0.0010  1.6113
   20MOL   C184 5162   7.366   7.715   0.139  0.4228 -0.3959 -0.2956
   20MOL   C185 5163   7.514   7.673   0.134  0.6915 -0.1062  0.1643
   20MOL   C186 5164   7.578   7.596   0.246 -0.1466  0.4323  0.7349
   20MOL   C187 5165   7.623   7.739   0.221 -0.3341  0.3022  0.1239
   20MOL   C188 5166   7.367   0.028   0.102 -1.3703 -0.6034  0.2873
   20MOL   H189 5167   7.309   7.662   0.063 -0.2621 -0.0718 -0.0103
   20MOL   H190 5168   7.534   7.627   0.038  2.9836 -1.3958  1.2211
   20MOL   H191 5169   7.639   7.515   0.207 -1.3396 -0.2928  0.3539
   20MOL   H192 5170   7.517   7.563   0.330 -1.8351 -1.8738 -1.3349
   20MOL   H193 5171   7.707   7.765   0.156 -0.8413  0.4034 -0.4901
   20MOL   H194 5172   7.595   7.811   0.298  2.1928  0.0990  1.3094
   20MOL   H195 5173   7.443   0.076   0.163 -1.0228  0.4421 -0.9683
   20MOL   H196 5174   7.279   0.088   0.125 -0.3314  1.0681 -0.0686
   20MOL   C197 5175   7.405   0.057   7.794 -0.1807 -0.1624 -0.6703
   20MOL   C198 5176   7.456   0.204   7.776 -0.1091 -0.4601 -0.6385
   20MOL   C199 5177   7.556   0.224   7.669 -0.4862  0.8632  1.0730
   20MOL   C200 5178   7.600   0.239   7.809 -0.6870 -0.4048 -0.4702
   20MOL   C201 5179   7.289   0.038   7.701  0.1331 -0.5008  0.2040
   20MOL   H202 5180   7.487   7.831   7.766  2.5025  3.4857 -1.6391
   20MOL   H203 5181   7.392   0.289   7.799  0.7469  0.0787 -0.2498
   20MOL   H204 5182   7.596   0.142   7.610 -2.3903  0.4465  0.3424
   20MOL   H205 5183   7.549   0.311   7.603  0.8130 -0.9021 -1.4876
   20MOL   H206 5184   7.658   0.161   0.017  1.1456  0.7704 -0.7434
   20MOL   H207 5185   7.619   0.342   7.837 -0.1053 -0.7102  0.2712
   20MOL   H208 5186   7.197   0.000   7.746  0.6202 -0.1915  1.4642
   20MOL   H209 5187   7.246   0.136   7.687 -0.7465 -0.6511  1.8459
   20MOL   C210 5188   7.304   7.804   7.563  0.1619  0.0139  0.2528
   20MOL   C211 5189   7.344   7.650   7.574  0.1077 -0.9079 -0.1381
   20MOL   C212 5190   7.408   7.566   7.461  0.1979  0.1678  0.3211
   20MOL   C213 5191   7.483   7.605   7.586 -0.3957  0.0534 -0.1186
   20MOL   C214 5192   7.178   7.814   7.479  0.0594  0.3934 -0.5140
   20MOL   H215 5193   7.385   0.020   7.516 -0.6436 -1.1031 -2.5096
   20MOL   H216 5194   7.265   7.594   7.624  0.0469 -1.5805 -0.9957
   20MOL   H217 5195   7.381   7.460   7.455  0.5089  0.1958 -2.3247
   20MOL   H218 5196   7.464   7.598   7.373  1.9523  1.1634  1.7827
   20MOL   H219 5197   7.503   7.534   7.665 -0.9687 -1.8480 -1.6439
   20MOL   H220 5198   7.561   7.680   7.572  1.5028 -1.4878  1.9827
   20MOL   H221 5199   7.109   7.735   7.508 -0.4868  1.8763  2.3910
   20MOL   H222 5200   7.117   0.057   7.516  2.7212  2.0495  0.3055
   20MOL   C223 5201   7.201   7.838   7.330 -0.7755 -0.6014 -0.1344
   20MOL   C224 5202   7.214   0.145   7.302  0.0602 -0.3357 -0.0431
   20MOL   C225 5203   7.351   0.207   7.322 -0.2480 -0.8295  0.2697
   20MOL   C226 5204   7.287   0.194   7.185  0.7407 -0.1100 -0.4499
   20MOL   C227 5205   7.070   7.794   7.252  0.5661 -0.2827  0.1199
   20MOL   H228 5206   7.291   7.786   7.296  0.1687  0.9590 -0.0740
   20MOL   H229 5207   7.130   0.199   7.344  1.1333  0.6649  0.8376
   20MOL   H230 5208   7.448   0.159   7.326 -1.1535 -2.6110  1.6346
   20MOL   H231 5209   7.341   0.297   7.383 -1.3081 -0.6887 -0.0950
   20MOL   H232 5210   7.242   0.286   7.151 -1.1340 -1.1535 -0.8907
   20MOL   H233 5211   7.330   0.127   7.111 -0.7844 -1.4804 -0.1268
   20MOL   H234 5212   6.982   7.798   7.317  0.8730 -1.0635  0.5896
   20MOL   H235 5213   7.043   0.022   7.170 -1.5152 -0.4831  0.6018
   20MOL   C236 5214   7.065   7.654   7.190 -0.0552  0.1466  0.1505
   20MOL   C237 5215   7.134   7.641   7.053  0.9602  0.2567  0.5000
   20MOL   C238 5216   7.273   7.601   7.015 -0.4753  0.2498 -0.5886
   20MOL   C239 5217   7.167   7.496   7.012  0.0784 -0.3712 -0.1056
   20MOL   C240 5218   6.920   7.590   7.185 -0.1462 -0.1312  0.9812
   20MOL   H241 5219   7.121   7.588   7.257 -1.7583 -2.0827 -0.5913
   20MOL   H242 5220   7.099   7.701   6.969  1.2184 -0.3018 -0.0074
   20MOL   H243 5221   7.315   7.627   6.918  1.4904 -1.3534 -0.2117
   20MOL   H244 5222   7.341   7.585   7.098 -1.2610  2.5455  0.5389
   20MOL   H245 5223   7.168   7.426   7.095  2.2099 -0.8734 -0.5178
   20MOL   H246 5224   7.149   7.457   6.912 -1.3763 -2.2060  0.8486
   20MOL   H247 5225   6.854   7.663   7.139  0.1313  0.3778  1.3853
   20MOL   H248 5226   6.933   7.506   7.116  1.8378  0.2324  0.8862
   20MOL   C249 5227   6.871   7.524   7.314 -0.0456  0.9159 -0.5038
   20MOL   C250 5228   6.959   7.402   7.345  0.2099 -0.4418  0.2892
   20MOL   C251 5229   7.069   7.417   7.434 -0.5006 -0.2325 -0.5573
   20MOL   C252 5230   6.947   7.362   7.487  0.5301  0.2022 -0.9718
   20MOL   C253 5231   6.720   7.488   7.297  0.3605 -0.3191 -0.1529
   20MOL   H254 5232   6.883   7.609   7.382  1.0686 -0.0456  0.5481
   20MOL   H255 5233   6.960   7.322   7.271 -1.2183 -0.1440 -0.0672
   20MOL   H256 5234   7.156   7.354   7.414  0.4944  1.5765 -2.1131
   20MOL   H257 5235   7.100   7.515   7.470 -0.2451  0.0125 -1.4306
   20MOL   H258 5236   6.932   7.255   7.496 -1.4731  0.6924  2.2961
   20MOL   H259 5237   6.886   7.413   7.562  0.3217  1.2374 -1.8376
   20MOL   H260 5238   6.669   7.490   7.393 -0.4938  0.6879 -0.6136
   20MOL   H261 5239   6.712   7.385   7.263  1.4277 -0.6970  0.7339
   20MOL   H262 5240   6.667   7.549   7.223 -1.9652  2.0128  3.2759
   21MOL     C1 5241   3.496   7.588   3.414  0.9292 -0.4001  0.4651
   21MOL     C2 5242   3.558   7.492   3.315 -0.4418  0.4689 -0.1452
   21MOL     C3 5243   3.536   7.339   3.318  0.3556 -0.3126  0.8227
   21MOL     C4 5244   3.666   7.406   3.368 -0.3922  0.5164 -0.6849
   21MOL     C5 5245   3.596   7.692   3.469  0.0422 -0.3078  0.0251
   21MOL     H6 5246   3.407   7.629   3.368 -0.4607 -1.5167  2.0732
   21MOL     H7 5247   3.595   7.535   3.223 -1.3905 -0.4747 -0.9791
   21MOL     H8 5248   3.470   7.290   3.390 -1.3450 -0.9830 -1.1285
   21MOL     H9 5249   3.533   7.304   3.214 -0.6439  3.0172 -0.3214
   21MOL    H10 5250   3.756   7.375   3.315  1.1448 -1.0259  2.6572
   21MOL    H11 5251   3.689   7.408   3.474  0.5785  0.1829 -0.8906
   21MOL    H12 5252   3.644   7.741   3.384 -2.3904 -0.3608 -1.4493
   21MOL    H13 5253   3.680   7.642   3.517 -0.0190 -2.5629 -2.1065
   21MOL    H14 5254   3.455   7.537   3.501 -0.0255  0.7579  0.6985
   21MOL    C15 5255   3.539   7.803   3.561  1.0010  0.4539  0.6982
   21MOL    C16 5256   3.476   7.743   3.685 -0.1501  0.4034 -0.1327
   21MOL    C17 5257   3.505   7.781   3.829 -0.5457  0.0630  0.0632
   21MOL    C18 5258   3.570   7.662   3.773 -0.5346  0.2109  0.2894
   21MOL    C19 5259   3.650   0.066   3.604 -0.1557 -0.7581 -0.3649
   21MOL    H20 5260   3.462   0.017   3.506  0.2847 -1.7200 -0.4677
   21MOL    H21 5261   3.379   7.706   3.655 -0.8977  2.0724  0.1780
   21MOL    H22 5262   3.423   7.755   3.895  0.7365 -2.0524  0.8883
   21MOL    H23 5263   3.570   0.019   3.869  0.5756 -0.6525 -0.3543
   21MOL    H24 5264   3.672   7.665   3.734 -1.4158 -1.5007 -2.2918
   21MOL    H25 5265   3.543   7.564   3.813 -1.5056  0.2004 -0.3655
   21MOL    H26 5266   3.731   0.014   3.657 -1.8190 -0.5963  2.4171
   21MOL    H27 5267   3.601   0.116   3.686  2.1124  0.1484  0.4758
   21MOL    C28 5268   3.712   0.154   3.492  0.8225  0.0722 -0.3895
   21MOL    C29 5269   3.823   0.234   3.553 -0.0229  0.5644 -0.2043
   21MOL    C30 5270   3.956   0.186   3.602  0.2360  0.4248 -0.1493
   21MOL    C31 5271   3.953   0.265   3.481 -0.1633 -0.6484 -0.0771
   21MOL    C32 5272   3.608   0.249   3.411 -0.7410 -1.0187 -0.0841
   21MOL    H33 5273   3.751   0.084   3.418 -0.8190 -0.7567 -0.4934
   21MOL    H34 5274   3.781   0.318   3.608  0.2647  0.8816 -0.4669
   21MOL    H35 5275   3.976   0.079   3.602 -1.0932  0.1292  2.5949
   21MOL    H36 5276   4.003   0.238   3.685 -0.9966 -0.4948  1.1486
   21MOL    H37 5277   3.975   0.211   3.389  0.5446  2.4514 -1.7891
   21MOL    H38 5278   3.999   0.363   3.493  0.5103 -1.1561  1.5911
   21MOL    H39 5279   3.586   0.340   3.468 -1.8569 -1.3297 -0.0040
   21MOL    H40 5280   3.511   0.200   3.410 -1.9617  1.2483  1.7896
   21MOL    C41 5281   3.641   0.280   3.266 -0.4957  0.2941  0.1914
   21MOL    C42 5282   3.581   0.411   3.225  0.7033 -0.2582 -0.4809
   21MOL    C43 5283   3.633   0.490   3.103 -0.0328 -0.1948  1.2662
   21MOL    C44 5284   3.663   0.534   3.240 -0.1201  0.4226 -0.9797
   21MOL    C45 5285   3.611   0.172   3.159  0.1376 -0.2256 -0.4847
   21MOL    H46 5286   3.748   0.301   3.260 -0.0257 -1.9018  0.5102
   21MOL    H47 5287   3.474   0.420   3.240  0.9143  2.6078 -0.4981
   21MOL    H48 5288   3.717   0.445   3.050  0.7526  2.4718  0.1882
   21MOL    H49 5289   3.566   0.556   3.049  1.0110  0.1173  0.3418
   21MOL    H50 5290   3.612   0.623   3.276 -2.8014 -1.6653  0.5375
   21MOL    H51 5291   3.760   0.509   3.283 -0.5204  0.0951 -0.2602
   21MOL    H52 5292   3.524   0.207   3.104  0.7215  3.8533  1.0225
   21MOL    H53 5293   3.566   0.093   3.220  0.2667 -1.1776 -1.6012
   21MOL    C54 5294   3.718   0.123   3.058  0.0939 -0.3345 -0.9372
   21MOL    C55 5295   3.849   0.102   3.129  0.0637  0.4483  0.8249
   21MOL    C56 5296   3.964   0.202   3.123  0.1951  0.5063 -0.5082
   21MOL    C57 5297   3.972   0.080   3.040  0.5600  0.9483  0.3949
   21MOL    C58 5298   3.676   7.826   2.993 -0.5629  0.8637 -0.3451
   21MOL    H59 5299   3.737   0.200   2.984 -3.3075  1.5343  0.0514
   21MOL    H60 5300   3.847   0.033   3.213  0.3666 -0.4797  0.0749
   21MOL    H61 5301   3.959   0.289   3.058 -0.5426  0.6032 -0.3296
   21MOL    H62 5302   4.037   0.214   3.202 -1.8854 -2.1868  1.9317
   21MOL    H63 5303   4.056   0.013   3.054 -0.0147 -0.1006 -1.1290
   21MOL    H64 5304   3.955   0.104   2.936 -1.0391 -3.0844 -0.3636
   21MOL    H65 5305   3.761   7.779   2.943 -0.9257  0.1871 -0.3252
   21MOL    H66 5306   3.645   7.752   3.067 -0.8447 -0.1612 -1.4762
   21MOL    C67 5307   3.579   0.001   2.876 -0.6853  0.3317 -1.5836
   21MOL    C68 5308   3.655   0.091   2.775  0.1270 -0.0566 -0.2961
   21MOL    C69 5309   3.571   0.143   2.656  0.2731  0.1856 -0.2069
   21MOL    C70 5310   3.639   0.237   2.749  0.0052  0.3061 -0.2717
   21MOL    C71 5311   3.539   7.695   2.820 -0.5231 -0.5144  0.2613
   21MOL    H72 5312   3.499   0.066   2.909  1.2202  1.6579  0.5137
   21MOL    H73 5313   3.755   0.057   2.749  0.8905  1.9013 -0.0254
   21MOL    H74 5314   3.616   0.129   2.557  1.4047  0.7470  0.2242
   21MOL    H75 5315   3.464   0.133   2.667  0.0177  2.5187 -0.3762
   21MOL    H76 5316   3.579   0.299   2.817  0.3451 -0.2460  0.5365
   21MOL    H77 5317   3.729   0.288   2.716  0.1304 -1.3283 -2.5386
   21MOL    H78 5318   3.627   7.633   2.807 -2.0220 -2.4359 -1.0868
   21MOL    H79 5319   3.491   7.712   2.723  0.9815 -2.3189 -0.8426
   21MOL    C80 5320   3.441   7.617   2.900  0.0406 -0.0300 -0.0339
   21MOL    C81 5321   3.402   7.487   2.831 -0.0962 -0.4196 -0.0014
   21MOL    C82 5322   3.396   7.364   2.919 -0.8120 -0.1304  0.0163
   21MOL    C83 5323   3.503   7.377   2.810 -0.1371 -0.3230 -0.5701
   21MOL    C84 5324   3.311   7.703   2.911 -0.0365  0.7185  0.0158
   21MOL    H85 5325   3.486   7.610   2.998 -1.4540  0.2393  0.6973
   21MOL    H86 5326   3.322   7.490   2.757 -1.5841  1.4983  1.5770
   21MOL    H87 5327   3.319   7.289   2.904 -0.8347  0.0705 -0.8613
   21MOL    H88 5328   3.422   7.377   3.024 -2.1157  2.8972  0.0200
   21MOL    H89 5329   3.598   7.376   2.863 -0.3652 -1.3624 -0.1743
   21MOL    H90 5330   3.504   7.304   2.729  0.9103 -0.8573 -0.0813
   21MOL    H91 5331   3.334   7.809   2.924 -0.6845  0.6199  2.2784
   21MOL    H92 5332   3.251   7.691   2.821 -1.2508  1.2348  0.7358
   21MOL    C93 5333   3.222   7.673   3.039 -1.3538 -0.6168  0.2797
   21MOL    C94 5334   3.152   7.797   3.076  0.1010 -0.0238 -0.2365
   21MOL    C95 5335   3.115   0.000   3.216  0.0413 -1.2961 -0.6888
   21MOL    C96 5336   3.214   0.081   3.125  0.2609  0.6966 -0.4664
   21MOL    C97 5337   3.116   7.560   3.017 -0.2512  0.5986  0.3433
   21MOL    H98 5338   3.291   7.649   3.121 -1.2923  0.5040  0.5625
   21MOL    H99 5339   3.085   7.833   2.997  0.2484  2.4812  0.7207
   21MOL   H100 5340   3.017   0.037   3.242  1.9404  2.2569  1.7949
   21MOL   H101 5341   3.168   7.787   3.295 -0.2005  1.4306  1.3582
   21MOL   H102 5342   3.186   0.168   3.066 -0.3674  0.7570 -0.0837
   21MOL   H103 5343   3.319   0.074   3.154 -0.2352  0.5976  1.3471
   21MOL   H104 5344   3.159   7.472   2.968  0.4895  1.2751 -0.2249
   21MOL   H105 5345   3.057   7.605   2.937  1.2275 -2.2491 -2.5040
   21MOL   C106 5346   3.030   7.524   3.144  0.1932  0.2714  0.6803
   21MOL   C107 5347   2.884   7.482   3.102 -0.9554  0.5410  0.3254
   21MOL   C108 5348   2.749   7.542   3.151  0.0513 -0.7865 -0.2016
   21MOL   C109 5349   2.798   7.577   3.014 -0.2652 -0.0759 -0.1615
   21MOL   C110 5350   3.107   7.415   3.234 -0.6155 -0.5874  0.2223
   21MOL   H111 5351   3.019   7.618   3.199 -1.6120  0.9112 -0.7232
   21MOL   H112 5352   2.879   7.376   3.077 -0.1367  0.5548  0.1000
   21MOL   H113 5353   2.678   7.460   3.161 -2.2295  0.9431 -1.7802
   21MOL   H114 5354   2.736   7.622   3.223  2.4425 -0.2114 -0.3648
   21MOL   H115 5355   2.824   7.683   3.008  1.3515 -0.4532 -0.0958
   21MOL   H116 5356   2.758   7.538   2.921 -0.5941  2.7008 -1.2272
   21MOL   H117 5357   3.103   7.317   3.186 -1.0354 -1.2107  1.5127
   21MOL   H118 5358   3.213   7.439   3.244 -0.7243  0.4373 -0.9440
   21MOL   C119 5359   3.041   7.395   3.369  0.3984  0.4546  0.1821
   21MOL   C120 5360   3.071   7.261   3.433 -0.4239  0.2575  0.1570
   21MOL   C121 5361   2.986   7.144   3.424  0.7150  0.3379  0.5675
   21MOL   C122 5362   3.028   7.192   3.560  0.5827  0.0328  0.0942
   21MOL   C123 5363   3.086   7.511   3.461 -0.0878 -0.1398 -0.4009
   21MOL   H124 5364   2.933   7.394   3.359  0.6002 -2.3887 -2.0715
   21MOL   H125 5365   3.174   7.239   3.407 -0.5094  0.3405 -0.2432
   21MOL   H126 5366   3.041   7.062   3.377  1.9816  1.7393 -0.4642
   21MOL   H127 5367   2.879   7.138   3.407  1.1272 -0.9297 -1.8751
   21MOL   H128 5368   2.962   7.253   3.621  1.2082 -1.3221  2.1815
   21MOL   H129 5369   3.087   7.118   3.614 -0.4638  0.3052  1.6306
   21MOL   H130 5370   3.191   7.499   3.488  0.3144  0.7659 -1.5365
   21MOL   H131 5371   3.088   7.607   3.410 -4.2293 -0.8772 -2.1417
   21MOL   C132 5372   2.993   7.555   3.580 -0.7795  0.0779  0.0672
   21MOL   C133 5373   2.847   7.596   3.537  0.4275 -0.1018 -0.6738
   21MOL   C134 5374   2.733   7.618   3.633  0.1539  0.2579 -0.4536
   21MOL   C135 5375   2.736   7.499   3.548  0.1341  0.3084  0.9940
   21MOL   C136 5376   3.063   7.679   3.644 -0.0352 -0.9830  0.5825
   21MOL   H137 5377   2.980   7.482   3.660  0.0393  0.1160  0.2340
   21MOL   H138 5378   2.850   7.658   3.448 -0.5727  1.0472  0.0773
   21MOL   H139 5379   2.752   7.602   3.739 -2.6711  1.6254  0.2912
   21MOL   H140 5380   2.680   7.708   3.601  1.7836  1.6025  0.5477
   21MOL   H141 5381   2.748   7.404   3.600 -0.4980 -0.0234  0.5458
   21MOL   H142 5382   2.680   7.498   3.454  0.5937 -0.0458  0.7205
   21MOL   H143 5383   3.170   7.660   3.649  0.4535  0.6656 -2.3195
   21MOL   H144 5384   3.060   7.759   3.570  0.6148 -0.2214  1.3710
   21MOL   C145 5385   3.022   7.740   3.780  0.2279 -0.2983 -0.7895
   21MOL   C146 5386   3.060   7.654   3.894  0.9070  0.0137 -0.4088
   21MOL   C147 5387   2.980   7.657   4.022 -0.6199  0.3081  0.5097
   21MOL   C148 5388   2.979   7.535   3.934 -0.0786  0.1012  0.1792
   21MOL   C149 5389   3.082   0.041   3.794 -0.4761  0.0385 -0.0756
   21MOL   H150 5390   2.914   7.758   3.779  0.4336  1.5598  2.9462
   21MOL   H151 5391   3.167   7.655   3.911  1.2470 -2.0481 -2.1420
   21MOL   H152 5392   3.037   7.650   4.115  2.1179 -2.8322 -1.2946
   21MOL   H153 5393   2.896   7.726   4.022 -1.5012 -0.7103  2.4789
   21MOL   H154 5394   2.882   7.517   3.888  0.0174  0.0908 -0.0189
   21MOL   H155 5395   3.032   7.450   3.977  1.4761  1.3524  0.8036
   21MOL   H156 5396   3.079   0.057   3.902 -2.0722 -0.8343  0.0280
   21MOL   H157 5397   3.187   0.033   3.768  0.2027 -1.2431  2.8343
   21MOL   C158 5398   3.029   0.163   3.713 -0.2703 -0.2859  0.3031
   21MOL   C159 5399   3.146   0.261   3.686 -0.3287 -0.0250  0.2401
   21MOL   C160 5400   3.250   0.233   3.581  1.0401  0.1406 -0.4256
   21MOL   C161 5401   3.149   0.339   3.555 -0.3992  1.1447  0.1777
   21MOL   C162 5402   2.919   0.221   3.801 -0.4331  0.8385  0.1010
   21MOL   H163 5403   2.986   0.128   3.619 -1.8941 -0.8358  1.2304
   21MOL   H164 5404   3.188   0.309   3.774  2.2739  0.6032 -1.3113
   21MOL   H165 5405   3.240   0.146   3.517 -2.0044  1.8384 -2.3518
   21MOL   H166 5406   3.353   0.259   3.606  1.3204 -2.7348  1.6377
   21MOL   H167 5407   3.177   0.443   3.572 -2.2132  1.6845  0.0267
   21MOL   H168 5408   3.071   0.320   3.482 -0.1265  0.0796  0.1520
   21MOL   H169 5409   2.969   0.272   3.883 -0.2940 -0.8582  1.0921
   21MOL   H170 5410   2.860   0.144   3.851  2.9338 -0.9758  1.5090
   21MOL   C171 5411   2.830   0.310   3.717 -0.5773 -0.6642  0.3960
   21MOL   C172 5412   2.748   0.244   3.609 -0.2534 -0.2012  0.4735
   21MOL   C173 5413   2.716   0.315   3.481  0.2823 -0.0507  0.0929
   21MOL   C174 5414   2.802   0.194   3.473 -0.0729 -0.0852  0.7844
   21MOL   C175 5415   2.717   0.384   3.803 -0.8794  0.7645 -0.0127
   21MOL   H176 5416   2.891   0.391   3.678 -0.4693 -0.5796  0.7355
   21MOL   H177 5417   2.679   0.167   3.643  0.5317 -1.1418 -0.0363
   21MOL   H178 5418   2.619   0.300   3.435 -0.1511 -1.7103  1.4945
   21MOL   H179 5419   2.758   0.415   3.490  1.3916 -0.4339 -0.6376
   21MOL   H180 5420   2.904   0.215   3.441  0.0195  1.4888  2.0072
   21MOL   H181 5421   2.767   0.099   3.434 -2.1333  2.3147 -3.5152
   21MOL   H182 5422   2.698   0.316   3.886  3.2247 -0.4879  0.0096
   21MOL   H183 5423   2.625   0.394   3.746 -0.3243 -1.2413 -1.3159
   21MOL   C184 5424   2.748   0.532   3.850  0.2093  0.2306  0.2118
   21MOL   C185 5425   2.870   0.549   3.940 -0.5679  0.1721 -0.2977
   21MOL   C186 5426   2.927   0.689   3.966 -0.4669  0.5529 -0.0677
   21MOL   C187 5427   3.011   0.573   3.895 -0.4364  0.5941  0.0755
   21MOL   C188 5428   2.619   0.604   3.899 -0.8731  0.8681  0.0739
   21MOL   H189 5429   2.773   0.574   3.753  0.9065 -1.6043 -0.4280
   21MOL   H190 5430   2.860   0.471   4.016  1.3355  0.9630  0.7966
   21MOL   H191 5431   2.956   0.719   4.066 -1.1185  0.5481  0.1277
   21MOL   H192 5432   2.880   0.773   3.916 -3.2058 -0.2299  1.0546
   21MOL   H193 5433   3.090   0.533   3.958 -0.0630 -0.2693 -0.9251
   21MOL   H194 5434   3.030   0.571   3.788 -0.6579 -0.8047  0.0601
   21MOL   H195 5435   2.537   0.582   3.831 -0.8007  0.3616  0.1497
   21MOL   H196 5436   2.634   0.710   3.879  2.0016  0.5970  0.4381
   21MOL   C197 5437   2.565   0.591   4.044 -0.0707 -0.1812  0.3501
   21MOL   C198 5438   2.548   0.443   4.075 -0.2789 -0.7986  0.0476
   21MOL   C199 5439   2.539   0.385   4.214 -0.1539 -0.0406 -0.2137
   21MOL   C200 5440   2.655   0.355   4.128 -0.1992  0.1344  0.2199
   21MOL   C201 5441   2.440   0.671   4.071 -0.1278  0.2690  0.1353
   21MOL   H202 5442   2.642   0.618   4.117  1.2765 -1.8906 -0.4149
   21MOL   H203 5443   2.481   0.389   4.009  0.3137  0.0007 -1.2239
   21MOL   H204 5444   2.569   0.429   4.309 -2.0078  1.0030 -0.0825
   21MOL   H205 5445   2.460   0.311   4.228  0.1482 -0.7102 -1.9416
   21MOL   H206 5446   2.749   0.393   4.168 -0.4870  3.3943 -2.0560
   21MOL   H207 5447   2.662   0.254   4.088  3.0384  0.6970 -0.7947
   21MOL   H208 5448   2.379   0.658   3.982  0.2089 -0.7148  0.0379
   21MOL   H209 5449   2.382   0.617   4.146  1.4108 -1.0166  0.4226
   21MOL   C210 5450   2.446   0.818   4.124 -1.1234  0.3985  0.0813
   21MOL   C211 5451   2.535   0.826   4.245  0.4089 -0.0016  0.2999
   21MOL   C212 5452   2.496   0.920   4.358  0.1805  0.4086  0.8183
   21MOL   C213 5453   2.492   0.771   4.378  0.5453 -0.3271  0.3121
   21MOL   C214 5454   2.485   0.928   4.017 -1.3591  0.7366  0.0671
   21MOL   H215 5455   2.346   0.855   4.150 -0.6022  1.3053  0.8272
   21MOL   H216 5456   2.642   0.825   4.226  0.3174  2.3378 -0.5212
   21MOL   H217 5457   2.581   0.974   4.398  0.1530  1.4197 -0.4642
   21MOL   H218 5458   2.412   0.987   4.342 -1.2803 -1.5250  0.1552
   21MOL   H219 5459   2.564   0.737   4.452 -0.8422 -1.3815  1.2240
   21MOL   H220 5460   2.393   0.727   4.388 -0.0960  0.9513 -0.2707
   21MOL   H221 5461   2.497   1.023   4.068 -3.5590  0.4506  1.1688
   21MOL   H222 5462   2.582   0.901   3.976 -0.3883  3.1381  0.7508
   21MOL   C223 5463   2.392   0.951   3.889 -0.2154  0.5120  0.0158
   21MOL   C224 5464   2.467   1.011   3.768 -0.1525  0.5921 -0.7420
   21MOL   C225 5465   2.557   0.924   3.690  0.5135 -0.2056 -0.5716
   21MOL   C226 5466   2.420   0.967   3.630  0.0143  0.8089 -0.8867
   21MOL   C227 5467   2.275   1.036   3.929  0.3329 -0.4287  0.4387
   21MOL   H228 5468   2.352   0.856   3.853 -1.9242  1.4948 -0.7676
   21MOL   H229 5469   2.487   1.115   3.791  0.2994  0.1687  0.8142
   21MOL   H230 5470   2.556   0.819   3.715 -0.8318  0.5699  3.0246
   21MOL   H231 5471   2.652   0.978   3.686 -0.7612  2.3446  1.5391
   21MOL   H232 5472   2.423   1.029   3.541  0.6044  0.9675 -0.7537
   21MOL   H233 5473   2.336   0.897   3.635  2.0706 -1.6852  0.0114
   21MOL   H234 5474   2.224   0.986   4.012  1.7375 -0.1761  1.4846
   21MOL   H235 5475   2.317   1.120   3.985 -1.4297  2.1618 -2.0359
   21MOL   C236 5476   2.175   1.101   3.832  0.5972 -0.1134 -0.3042
   21MOL   C237 5477   2.135   1.243   3.866 -0.6033  0.5827 -0.4402
   21MOL   C238 5478   2.204   1.365   3.821 -0.1012  0.2356 -0.2931
   21MOL   C239 5479   2.070   1.332   3.764  0.6044  0.9044  0.1463
   21MOL   C240 5480   2.052   1.010   3.810 -0.4671 -0.3897  0.4983
   21MOL   H241 5481   2.233   1.104   3.740  1.7707 -5.1400  0.1071
   21MOL   H242 5482   2.087   1.243   3.964  0.1235 -0.7996 -0.0723
   21MOL   H243 5483   2.206   1.448   3.892 -0.1173 -1.1968  1.4039
   21MOL   H244 5484   2.288   1.374   3.752  2.5442  0.4035  2.7693
   21MOL   H245 5485   2.080   1.318   3.656  0.8802 -4.0643  0.7341
   21MOL   H246 5486   1.981   1.381   3.802 -1.5032 -1.2877 -1.8113
   21MOL   H247 5487   2.074   0.904   3.826 -2.9126 -0.8011  1.3553
   21MOL   H248 5488   1.977   1.029   3.886 -0.8153  1.8128 -0.3470
   21MOL   C249 5489   1.965   1.024   3.682 -0.4770 -0.8375 -0.0499
   21MOL   C250 5490   1.849   0.921   3.686  0.3276  0.1755 -0.0302
   21MOL   C251 5491   1.705   0.970   3.703 -1.3280 -0.0000  0.1553
   21MOL   C252 5492   1.753   0.913   3.573  0.9283 -0.5092 -0.3854
   21MOL   C253 5493   2.048   1.001   3.551 -0.5723  0.0690  0.7425
   21MOL   H254 5494   1.926   1.126   3.681 -1.6737 -1.2454  2.5366
   21MOL   H255 5495   1.874   0.820   3.716 -1.2246  0.2303  1.5223
   21MOL   H256 5496   1.645   0.920   3.779 -1.5658  1.1811  0.7496
   21MOL   H257 5497   1.689   1.077   3.712 -1.1560 -0.0055  0.5412
   21MOL   H258 5498   1.701   0.821   3.547  1.6776 -0.9423 -0.3595
   21MOL   H259 5499   1.765   0.992   3.499 -1.3411  0.9142  0.7230
   21MOL   H260 5500   2.116   1.085   3.544 -0.1530 -0.1217  2.2802
   21MOL   H261 5501   1.981   1.004   3.465 -1.4287 -1.9408  1.3003
   21MOL   H262 5502   2.114   0.914   3.547 -1.5146 -0.6092 -1.1146
   22MOL     C1 5503   1.759   6.036   2.807 -0.1248 -0.0616 -0.5887
   22MOL     C2 5504   1.836   6.041   2.941  0.8731 -0.1482  0.4731
   22MOL     C3 5505   1.866   6.178   3.002 -0.0911 -0.3205  0.7613
   22MOL     C4 5506   1.979   6.085   2.957 -0.2993  0.6481  0.3266
   22MOL     C5 5507   1.600   6.061   2.829  1.2054 -0.3770 -0.1396
   22MOL     H6 5508   1.793   6.115   2.740 -0.5286  1.1808  0.6617
   22MOL     H7 5509   1.811   5.966   3.016 -1.6008  0.2635  0.0928
   22MOL     H8 5510   1.866   6.272   2.947 -2.7984 -0.3306  0.6957
   22MOL     H9 5511   1.866   6.187   3.110  0.3112 -0.5274  0.7783
   22MOL    H10 5512   2.043   6.041   3.033  1.6587  1.1500 -1.0030
   22MOL    H11 5513   2.027   6.109   2.863 -2.1579 -2.0583 -1.3936
   22MOL    H12 5514   1.594   6.169   2.845  0.3075 -0.2013 -1.5605
   22MOL    H13 5515   1.559   6.024   2.923 -1.8765  0.6136 -1.0489
   22MOL    H14 5516   1.792   5.940   2.766 -2.4125 -1.2081  0.1431
   22MOL    C15 5517   1.498   6.015   2.722  0.0646 -0.0223 -0.6645
   22MOL    C16 5518   1.517   5.858   2.695  0.1095 -0.4085 -0.0414
   22MOL    C17 5519   1.635   5.800   2.615 -0.0456 -0.1155  0.6071
   22MOL    C18 5520   1.497   5.807   2.555 -0.7436  0.2140  0.7705
   22MOL    C19 5521   1.357   6.043   2.772 -0.3503  0.9092  0.5914
   22MOL    H20 5522   1.528   6.062   2.628  0.1135  0.2585 -0.5104
   22MOL    H21 5523   1.468   5.799   2.772 -3.2748  0.2440 -1.5775
   22MOL    H22 5524   1.679   5.712   2.661  1.6039  1.5664  2.3655
   22MOL    H23 5525   1.719   5.857   2.575 -0.5039  0.4405  0.4301
   22MOL    H24 5526   1.490   5.877   2.471 -0.0384 -1.3438 -0.6258
   22MOL    H25 5527   1.429   5.723   2.545 -1.5067  0.8767  0.3949
   22MOL    H26 5528   1.341   5.971   2.853 -0.3047 -0.5059 -0.6350
   22MOL    H27 5529   1.286   6.008   2.697  0.2408  1.4815 -0.2462
   22MOL    C28 5530   1.309   6.180   2.813  0.7138 -0.0257 -0.5830
   22MOL    C29 5531   1.163   6.183   2.864 -0.0387 -0.5918 -0.5367
   22MOL    C30 5532   1.133   6.096   2.987 -0.3238 -0.3559  0.5406
   22MOL    C31 5533   1.118   6.251   2.997  0.1919  0.3283 -0.0557
   22MOL    C32 5534   1.309   6.285   2.694 -0.2823 -0.2725  0.2525
   22MOL    H33 5535   1.375   6.230   2.884 -0.3420 -0.5205  0.7585
   22MOL    H34 5536   1.085   6.190   2.789 -0.5177  3.4289  0.2034
   22MOL    H35 5537   1.219   6.049   3.033  0.4309  1.5243  1.1001
   22MOL    H36 5538   1.041   6.038   2.985  0.3961 -1.5109 -2.4054
   22MOL    H37 5539   1.194   6.291   3.063  0.3296  2.7435 -1.6314
   22MOL    H38 5540   1.013   6.273   3.014 -0.1947  0.2882 -2.2223
   22MOL    H39 5541   1.233   6.257   2.621  0.6845 -0.7228 -0.5859
   22MOL    H40 5542   1.406   6.283   2.646 -1.2002 -1.0468 -1.6212
   22MOL    C41 5543   1.275   6.425   2.747 -0.0517 -1.0047 -0.1865
   22MOL    C42 5544   1.192   6.480   2.635  0.8213 -0.7283  0.6671
   22MOL    C43 5545   1.092   6.587   2.655  0.1425  0.0347 -0.2493
   22MOL    C44 5546   1.046   6.450   2.613  0.3811 -0.3766 -0.0678
   22MOL    C45 5547   1.408   6.505   2.774 -0.0110 -0.0653 -0.3748
   22MOL    H46 5548   1.204   6.440   2.829  0.1384  1.0210 -0.3560
   22MOL    H47 5549   1.250   6.516   2.551 -2.0177 -1.5392 -1.7434
   22MOL    H48 5550   1.071   6.609   2.759  1.6056 -1.1817  0.3240
   22MOL    H49 5551   1.085   6.663   2.577  1.3377  0.3013 -0.0960
   22MOL    H50 5552   1.006   6.450   2.512 -1.0985 -0.8610  0.4949
   22MOL    H51 5553   1.006   6.377   2.684 -1.3536 -0.1624 -0.7765
   22MOL    H52 5554   1.473   6.483   2.690 -0.8135  4.2631 -2.2357
   22MOL    H53 5555   1.461   6.452   2.854 -1.8731  1.2367  1.7857
   22MOL    C54 5556   1.393   6.661   2.811 -0.0594  0.1298 -0.7358
   22MOL    C55 5557   1.471   6.683   2.934  1.1146 -0.3245  0.8652
   22MOL    C56 5558   1.409   6.678   3.076 -1.0877 -0.1212 -0.6373
   22MOL    C57 5559   1.441   6.811   3.010  0.3494  0.5471  0.2255
   22MOL    C58 5560   1.439   6.746   2.691 -0.4486  0.1368 -0.0101
   22MOL    H59 5561   1.287   6.673   2.831  0.0526 -0.0721 -0.0308
   22MOL    H60 5562   1.573   6.652   2.912  0.1754 -0.6007 -3.7803
   22MOL    H61 5563   1.307   6.642   3.073 -1.0019 -0.4786  0.3820
   22MOL    H62 5564   1.466   6.643   3.163  0.5218  0.5385 -1.3964
   22MOL    H63 5565   1.523   6.866   3.056 -1.7643  2.8701  1.3289
   22MOL    H64 5566   1.354   6.868   2.979  1.2224  0.9281 -1.5823
   22MOL    H65 5567   1.545   6.729   2.675 -0.0326  1.9735  0.7246
   22MOL    H66 5568   1.390   6.712   2.600  2.3631  0.6774 -1.7833
   22MOL    C67 5569   1.402   6.895   2.691  0.2075  0.2591 -0.3357
   22MOL    C68 5570   1.433   6.950   2.553 -0.4979 -0.4044  0.7677
   22MOL    C69 5571   1.477   7.089   2.524 -0.8483  0.1688 -0.3063
   22MOL    C70 5572   1.577   6.981   2.513  0.1743 -0.4527  0.8351
   22MOL    C71 5573   1.249   6.915   2.721  0.2471  0.6275  0.5722
   22MOL    H72 5574   1.458   6.946   2.769 -1.1837 -1.1983  1.6646
   22MOL    H73 5575   1.365   6.934   2.470 -0.2514  1.2156  0.2395
   22MOL    H74 5576   1.433   7.151   2.446 -1.8628  0.0243  0.1438
   22MOL    H75 5577   1.503   7.154   2.607  0.5838 -2.0285  1.0066
   22MOL    H76 5578   1.655   6.970   2.588  1.1309 -0.2607 -0.1195
   22MOL    H77 5579   1.604   6.931   2.420  0.2747 -0.4876  0.8825
   22MOL    H78 5580   1.208   6.852   2.800  1.6220 -3.0122 -1.4609
   22MOL    H79 5581   1.188   6.884   2.636 -0.0030  0.8981  0.6516
   22MOL    C80 5582   1.199   7.064   2.746  0.2039  0.2038 -0.5742
   22MOL    C81 5583   1.258   7.115   2.874  0.4046 -0.3188 -0.7080
   22MOL    C82 5584   1.274   7.260   2.912 -0.9286 -0.2032 -0.3135
   22MOL    C83 5585   1.391   7.173   2.884  0.5530  0.2480 -0.0595
   22MOL    C84 5586   1.046   7.074   2.741  0.2406  0.3481  1.2166
   22MOL    H85 5587   1.232   7.127   2.663 -1.5503 -0.3582 -1.7268
   22MOL    H86 5588   1.241   7.043   2.953  0.3958 -2.3999 -2.5552
   22MOL    H87 5589   1.265   7.293   3.015  3.9548  2.7469 -0.6488
   22MOL    H88 5590   1.238   7.331   2.838 -1.4785 -0.8509 -0.6754
   22MOL    H89 5591   1.443   7.190   2.790  1.3115  0.2071  0.3484
   22MOL    H90 5592   1.456   7.147   2.967 -0.4710 -2.4278 -0.0282
   22MOL    H91 5593   1.010   6.994   2.807  0.9394  0.9596  2.3712
   22MOL    H92 5594   1.006   7.162   2.793  1.2204  0.6856  1.4012
   22MOL    C93 5595   0.995   7.092   2.593  0.5191  0.2928  0.1906
   22MOL    C94 5596   0.859   7.031   2.576  0.1060  0.6740 -0.5424
   22MOL    C95 5597   0.830   6.942   2.457 -0.4474  0.3959 -0.0983
   22MOL    C96 5598   0.833   6.879   2.591 -0.0179  0.1572 -0.3406
   22MOL    C97 5599   1.008   7.237   2.542  0.3449  0.0994 -0.4113
   22MOL    H98 5600   1.064   7.031   2.535  0.6873  0.3496  0.3320
   22MOL    H99 5601   0.784   7.098   2.617  0.7812  1.6812 -0.9371
   22MOL   H100 5602   0.733   6.968   2.414  1.0294  0.0082 -3.8940
   22MOL   H101 5603   0.908   6.914   2.386 -0.6508  0.4973 -0.3637
   22MOL   H102 5604   0.741   6.831   2.622  1.1787 -1.9114  0.1196
   22MOL   H103 5605   0.924   6.841   2.637  0.3149 -1.5006 -2.3217
   22MOL   H104 5606   1.108   7.269   2.571  0.2454 -0.5940  0.7404
   22MOL   H105 5607   0.938   7.305   2.590  0.0040  0.0456 -0.8301
   22MOL   C106 5608   0.996   7.260   2.389  0.2595  0.1815 -0.1963
   22MOL   C107 5609   0.941   7.393   2.336 -0.3636 -0.0867  0.6337
   22MOL   C108 5610   0.809   7.391   2.254 -0.0968 -0.5564 -0.3396
   22MOL   C109 5611   0.817   7.455   2.390  0.7881  0.1808  0.1829
   22MOL   C110 5612   1.119   7.204   2.312 -0.2094 -0.1039 -0.0947
   22MOL   H111 5613   0.917   7.187   2.367 -2.0458  1.6923  2.7738
   22MOL   H112 5614   1.026   7.454   2.305 -0.2030  0.4127  2.0083
   22MOL   H113 5615   0.816   7.444   2.159  2.5316 -0.2921 -0.0063
   22MOL   H114 5616   0.755   7.297   2.265 -1.0665  0.1294  0.8590
   22MOL   H115 5617   0.782   7.402   2.479  0.9295 -1.3739 -0.6652
   22MOL   H116 5618   0.808   7.563   2.383  0.3571  0.1572  0.3236
   22MOL   H117 5619   1.201   7.274   2.328  1.4186 -1.7575 -1.0332
   22MOL   H118 5620   1.148   7.111   2.360  0.8280 -0.5308 -1.5196
   22MOL   C119 5621   1.097   7.183   2.162 -0.5309 -0.1312 -0.0031
   22MOL   C120 5622   1.219   7.124   2.096 -0.1614  0.1501  0.7826
   22MOL   C121 5623   1.290   6.996   2.145 -0.2475 -0.0334  0.2954
   22MOL   C122 5624   1.367   7.124   2.152  0.4776 -0.5168  0.2904
   22MOL   C123 5625   0.979   7.090   2.126 -0.0031  0.3191  0.3628
   22MOL   H124 5626   1.078   7.281   2.118 -0.8865  0.8538  2.2778
   22MOL   H125 5627   1.209   7.126   1.988  1.4139  1.2407  0.6400
   22MOL   H126 5628   1.311   6.924   2.067  1.2584 -1.0278  1.5918
   22MOL   H127 5629   1.243   6.953   2.233  2.8204 -2.6228  0.7516
   22MOL   H128 5630   1.388   7.168   2.249 -3.2671  1.6478  0.2181
   22MOL   H129 5631   1.446   7.127   2.078 -0.3368 -0.1476 -0.5821
   22MOL   H130 5632   0.999   6.991   2.168 -2.4622  0.3534  1.7371
   22MOL   H131 5633   0.886   7.118   2.176 -0.5637 -0.4483 -0.2373
   22MOL   C132 5634   0.936   7.073   1.975  0.2613 -0.8171 -0.0296
   22MOL   C133 5635   0.921   7.209   1.905 -0.1496  0.5156  0.5817
   22MOL   C134 5636   0.922   7.206   1.757  0.4005  0.4370 -0.2016
   22MOL   C135 5637   1.038   7.274   1.833  0.1704  0.7958 -0.5786
   22MOL   C136 5638   0.811   6.981   1.961  0.0169 -0.4297  0.3946
   22MOL   H137 5639   1.027   7.031   1.933 -0.0522 -0.8475 -0.6951
   22MOL   H138 5640   0.854   7.280   1.954 -1.8215  0.0530 -1.0137
   22MOL   H139 5641   0.932   7.110   1.708  2.8845  0.0254  1.0373
   22MOL   H140 5642   0.867   7.277   1.695  0.5060  1.7252  1.1583
   22MOL   H141 5643   1.137   7.232   1.821  0.5512  1.4037  0.3581
   22MOL   H142 5644   1.048   7.382   1.824  2.1522  0.5893 -0.9114
   22MOL   H143 5645   0.728   7.036   2.005 -0.4928  0.3595 -1.5056
   22MOL   H144 5646   0.788   6.992   1.855  0.4243 -0.3702  0.3103
   22MOL   C145 5647   0.820   6.832   2.012  0.4831 -0.2439  0.5185
   22MOL   C146 5648   0.678   6.775   2.035  0.5505  0.5397 -0.4596
   22MOL   C147 5649   0.639   6.706   2.164 -0.2200 -0.3850  0.4739
   22MOL   C148 5650   0.596   6.842   2.141  0.5539  0.8062  0.1657
   22MOL   C149 5651   0.905   6.751   1.917  0.6632 -0.1325 -0.5558
   22MOL   H150 5652   0.864   6.840   2.111 -0.1729  1.2150  0.7109
   22MOL   H151 5653   0.629   6.721   1.954 -1.4176 -1.3730  1.9292
   22MOL   H152 5654   0.567   6.624   2.157 -1.4065  0.7493 -0.9328
   22MOL   H153 5655   0.719   6.689   2.235 -0.3119 -0.5168  0.5465
   22MOL   H154 5656   0.642   6.928   2.188  2.1663  0.2316 -0.3293
   22MOL   H155 5657   0.491   6.864   2.123  0.0747 -2.0088 -0.7797
   22MOL   H156 5658   0.844   6.745   1.826 -0.7462 -0.6596  0.4034
   22MOL   H157 5659   0.995   6.805   1.887  0.4641  1.2039  1.2320
   22MOL   C158 5660   0.964   6.618   1.959 -0.7809  0.4630  0.1114
   22MOL   C159 5661   1.050   6.636   2.089 -0.5496  0.2732 -0.4119
   22MOL   C160 5662   0.993   6.614   2.229 -0.0444 -0.2352 -0.3757
   22MOL   C161 5663   1.104   6.523   2.174  0.4178  0.4988  0.0122
   22MOL   C162 5664   1.042   6.534   1.850 -0.3862  0.1035  0.6473
   22MOL   H163 5665   0.878   6.556   1.984  0.8406 -0.9961  2.2751
   22MOL   H164 5666   1.120   6.719   2.082  1.6269 -1.5047 -0.2226
   22MOL   H165 5667   0.890   6.581   2.243 -0.3307 -0.4538 -2.9118
   22MOL   H166 5668   1.020   6.697   2.295 -0.7919  0.2108 -0.6261
   22MOL   H167 5669   1.196   6.531   2.232 -0.3177 -2.4928  1.7236
   22MOL   H168 5670   1.066   6.423   2.153 -2.5130  1.7538 -0.7714
   22MOL   H169 5671   1.058   6.432   1.884 -0.7870 -0.0341  0.4346
   22MOL   H170 5672   1.135   6.587   1.831 -2.0727  2.4667 -1.2907
   22MOL   C171 5673   0.963   6.521   1.715 -0.6955 -0.0118 -0.4112
   22MOL   C172 5674   1.055   6.466   1.608 -0.1294 -0.0774  0.7817
   22MOL   C173 5675   1.067   6.527   1.471  0.2820  0.0347 -0.7484
   22MOL   C174 5676   1.179   6.549   1.566 -0.4226  0.5870 -0.1384
   22MOL   C175 5677   0.828   6.450   1.717 -0.0668 -0.4767 -0.4545
   22MOL   H176 5678   0.943   6.626   1.696  1.3677  0.6474  0.9043
   22MOL   H177 5679   1.074   6.360   1.623 -0.2611 -0.6053 -2.5403
   22MOL   H178 5680   1.090   6.457   1.391  1.9102 -0.8617  0.4659
   22MOL   H179 5681   1.016   6.619   1.447  1.5046  0.6504 -1.0324
   22MOL   H180 5682   1.191   6.635   1.631  1.6995  1.4636 -1.6519
   22MOL   H181 5683   1.272   6.499   1.538  0.4409  0.4352  2.8813
   22MOL   H182 5684   0.756   6.480   1.792 -0.2709  0.1613 -0.9002
   22MOL   H183 5685   0.836   6.341   1.725  3.9972 -0.2620 -0.2836
   22MOL   C184 5686   0.753   6.473   1.587 -0.9001 -0.0104 -0.5080
   22MOL   C185 5687   0.692   6.620   1.597  0.1664  0.6027  0.9504
   22MOL   C186 5688   0.650   6.674   1.461  0.1327 -0.5379 -0.4454
   22MOL   C187 5689   0.752   6.745   1.544 -0.4111 -0.5140 -0.4255
   22MOL   C188 5690   0.629   6.384   1.562 -0.1769 -0.1256  0.3683
   22MOL   H189 5691   0.818   6.471   1.501 -0.1736  0.6560  0.0156
   22MOL   H190 5692   0.619   6.633   1.676 -1.0665  2.6849 -0.4689
   22MOL   H191 5693   0.555   6.727   1.455 -0.7445 -1.9718  0.4558
   22MOL   H192 5694   0.665   6.609   1.375 -2.8621  0.1429 -1.5430
   22MOL   H193 5695   0.731   6.844   1.585  1.3677 -0.4503  0.3989
   22MOL   H194 5696   0.857   6.726   1.525 -0.3150 -1.6109  1.0773
   22MOL   H195 5697   0.564   6.425   1.485  0.0109 -1.4346 -0.4964
   22MOL   H196 5698   0.570   6.384   1.653  0.1627 -0.2409  0.5913
   22MOL   C197 5699   0.663   6.246   1.497 -0.0698  0.3647 -0.2106
   22MOL   C198 5700   0.689   6.260   1.354 -0.5642 -0.0839 -0.1862
   22MOL   C199 5701   0.769   6.152   1.277 -0.6762 -0.0586  0.0923
   22MOL   C200 5702   0.832   6.286   1.312  0.0893 -0.3918 -0.3012
   22MOL   C201 5703   0.541   6.145   1.520  0.1606 -0.2976  0.4702
   22MOL   H202 5704   0.751   6.212   1.552 -1.0365 -0.1008  1.0766
   22MOL   H203 5705   0.619   6.319   1.295  0.0546 -1.8357 -2.7774
   22MOL   H204 5706   0.833   6.074   1.319  0.2232  1.7331  2.1319
   22MOL   H205 5707   0.746   6.138   1.171 -0.3714  1.8096 -0.2316
   22MOL   H206 5708   0.917   6.292   1.380  0.9644 -3.0131 -1.1042
   22MOL   H207 5709   0.838   6.352   1.226 -2.6584  2.2370  1.4310
   22MOL   H208 5710   0.445   6.184   1.489  0.2923 -1.6142 -1.6553
   22MOL   H209 5711   0.555   6.058   1.457  3.7883  0.0677  0.6363
   22MOL   C210 5712   0.530   6.097   1.671  0.6353  0.1475  0.3182
   22MOL   C211 5713   0.393   6.037   1.693  0.1139  0.5294  0.5428
   22MOL   C212 5714   0.317   6.057   1.825 -0.4541  0.0105 -0.0668
   22MOL   C213 5715   0.266   6.125   1.696 -0.3859 -0.4800  0.7954
   22MOL   C214 5716   0.640   5.998   1.709 -0.4174 -0.5367 -1.1135
   22MOL   H215 5717   0.543   6.187   1.731 -3.9606  1.3988 -0.3368
   22MOL   H216 5718   0.376   5.941   1.644  0.8397  1.4784 -1.6684
   22MOL   H217 5719   0.264   5.973   1.868  1.1455 -0.4931  0.9715
   22MOL   H218 5720   0.366   6.121   1.898  0.3921 -1.1314  0.3863
   22MOL   H219 5721   0.192   6.084   1.628  1.4630 -0.2828 -1.3949
   22MOL   H220 5722   0.283   6.232   1.684  0.2333 -0.7381 -0.6961
   22MOL   H221 5723   0.599   5.897   1.703 -1.2937 -0.2324 -0.3599
   22MOL   H222 5724   0.723   5.992   1.638  1.2538 -3.2208  0.9519
   22MOL   C223 5725   0.714   6.029   1.841 -0.0191 -0.0908  0.6855
   22MOL   C224 5726   0.855   5.974   1.834  0.1915  0.3923 -0.2455
   22MOL   C225 5727   0.967   6.038   1.756 -0.2939 -0.2981 -0.2587
   22MOL   C226 5728   0.969   6.045   1.906 -0.0386  0.4588 -0.5495
   22MOL   C227 5729   0.636   5.962   1.954 -0.2765 -0.3283 -0.2506
   22MOL   H228 5730   0.708   6.136   1.858  1.0275 -0.1782  1.6323
   22MOL   H229 5731   0.857   5.866   1.846  0.2207  0.4309  0.1195
   22MOL   H230 5732   0.940   6.133   1.710 -0.2741 -0.4156 -0.5083
   22MOL   H231 5733   1.036   5.974   1.701  1.5457 -0.2079  1.8444
   22MOL   H232 5734   1.036   5.990   1.972 -1.2435  2.1712  2.2129
   22MOL   H233 5735   0.939   6.141   1.949  0.6846  0.7369 -0.6627
   22MOL   H234 5736   0.529   5.984   1.949 -0.6770 -2.4341 -1.8682
   22MOL   H235 5737   0.630   5.855   1.934 -0.8661 -0.1827 -0.8667
   22MOL   C236 5738   0.689   5.996   2.101 -0.0685  1.1408 -0.0060
   22MOL   C237 5739   0.637   5.897   2.204 -0.6474  0.0603  0.3640
   22MOL   C238 5740   0.673   5.746   2.205  0.7178  0.5268 -0.8089
   22MOL   C239 5741   0.737   5.844   2.308  0.1141 -0.0166  0.3408
   22MOL   C240 5742   0.650   6.138   2.133  1.0413  0.4637  0.4376
   22MOL   H241 5743   0.798   5.994   2.104 -0.0767 -2.1901 -0.2550
   22MOL   H242 5744   0.545   5.936   2.247 -0.5378 -0.2183  0.8479
   22MOL   H243 5745   0.584   5.691   2.233  1.2439  0.6863  1.2039
   22MOL   H244 5746   0.743   5.711   2.129  1.0462 -0.9152  0.1473
   22MOL   H245 5747   0.840   5.870   2.289  0.1728 -0.7003 -0.2989
   22MOL   H246 5748   0.710   5.839   2.413 -1.2108 -1.1099 -0.0309
   22MOL   H247 5749   0.694   6.209   2.063  0.6473 -1.5960 -1.9431
   22MOL   H248 5750   0.542   6.151   2.133  0.9016 -0.5095  2.3728
   22MOL   C249 5751   0.704   6.190   2.272  0.0950  0.1082 -0.7934
   22MOL   C250 5752   0.612   6.309   2.322  0.3550 -0.6670 -0.5909
   22MOL   C251 5753   0.489   6.275   2.406 -0.2154 -0.2119  0.2180
   22MOL   C252 5754   0.599   6.356   2.466 -0.4972  0.0272 -0.1608
   22MOL   C253 5755   0.847   6.248   2.275  0.4334  0.1834 -0.7415
   22MOL   H254 5756   0.699   6.111   2.347 -4.0739  1.2239  0.2642
   22MOL   H255 5757   0.601   6.385   2.245  1.1413 -0.6687 -0.7139
   22MOL   H256 5758   0.397   6.323   2.373  1.2251  0.7059 -2.6214
   22MOL   H257 5759   0.480   6.177   2.452 -0.0063  0.2541  1.2801
   22MOL   H258 5760   0.573   6.462   2.470  0.5990  0.2872  0.3778
   22MOL   H259 5761   0.653   6.316   2.551 -0.6574 -0.2062 -0.1712
   22MOL   H260 5762   0.922   6.177   2.241 -0.1906 -0.1759 -1.3714
   22MOL   H261 5763   0.872   6.276   2.377 -2.7303 -1.6136  0.5948
   22MOL   H262 5764   0.847   6.332   2.205  1.7875 -0.0216 -0.9950
   23MOL     C1 5765   6.098   7.089   0.938 -0.0695  0.6098  0.2405
   23MOL     C2 5766   6.111   6.931   0.960 -0.5075  0.7663 -0.0995
   23MOL     C3 5767   6.232   6.863   0.908 -0.2168  0.8852  0.4503
   23MOL     C4 5768   6.100   6.831   0.841  0.0487 -0.4660  0.1303
   23MOL     C5 5769   6.190   7.164   1.038  0.6285  0.6626 -0.1392
   23MOL     H6 5770   6.133   7.094   0.835  1.1138 -2.8432  0.4190
   23MOL     H7 5771   6.076   6.914   1.061 -0.0454 -0.9489 -0.2088
   23MOL     H8 5772   6.305   6.907   0.841 -1.0790  3.3747  1.0951
   23MOL     H9 5773   6.267   6.779   0.968 -1.6971 -0.1250 -0.0651
   23MOL    H10 5774   6.052   6.734   0.854 -1.7931  0.5120  0.8007
   23MOL    H11 5775   6.072   6.881   0.749 -0.0282  0.0724  0.4459
   23MOL    H12 5776   6.291   7.160   0.998  1.2951 -2.7955  1.6422
   23MOL    H13 5777   6.186   7.108   1.131  0.1522 -0.2029 -0.6709
   23MOL    H14 5778   5.996   7.127   0.947  1.4135  4.9266  0.0251
   23MOL    C15 5779   6.139   7.308   1.061 -0.7025 -0.9162 -0.8086
   23MOL    C16 5780   6.195   7.377   1.183  0.7941  0.1577 -0.8022
   23MOL    C17 5781   6.161   7.333   1.322 -0.2588  0.0696  0.1558
   23MOL    C18 5782   6.106   7.471   1.270 -0.1254 -0.0765  0.2910
   23MOL    C19 5783   6.144   7.396   0.933 -0.1348 -0.0593  0.1821
   23MOL    H20 5784   6.034   7.296   1.085 -0.3197 -2.5363  0.1512
   23MOL    H21 5785   6.297   7.410   1.168  1.4549 -1.4681 -0.0229
   23MOL    H22 5786   6.234   7.352   1.401  1.2612  1.7248 -1.5912
   23MOL    H23 5787   6.095   7.247   1.326 -2.4705  1.7095  0.3356
   23MOL    H24 5788   6.001   7.477   1.244  0.3529 -1.1582 -1.9923
   23MOL    H25 5789   6.162   7.553   1.313 -0.1024 -0.3861  0.8670
   23MOL    H26 5790   6.134   7.343   0.839 -0.3734  2.6809 -1.4004
   23MOL    H27 5791   6.249   7.427   0.924 -0.1447  0.8724  2.6863
   23MOL    C28 5792   6.053   7.515   0.942  0.3900  0.3193 -0.3866
   23MOL    C29 5793   5.974   7.535   0.806 -0.0601 -0.2078  0.7770
   23MOL    C30 5794   5.894   7.414   0.758  0.4185 -0.0794  0.1408
   23MOL    C31 5795   5.827   7.536   0.804  0.1118  0.9466 -0.1216
   23MOL    C32 5796   6.133   7.646   0.971  0.2983 -0.0521 -0.0725
   23MOL    H33 5797   5.977   7.499   1.018  0.7703 -2.4487 -0.5438
   23MOL    H34 5798   6.022   7.599   0.733 -2.5637  0.0066 -0.7682
   23MOL    H35 5799   5.874   7.326   0.820  2.2189  1.0155  2.3509
   23MOL    H36 5800   5.905   7.400   0.651  2.5569  4.0473 -0.2477
   23MOL    H37 5801   5.792   7.538   0.907  1.1497 -0.4500  0.2697
   23MOL    H38 5802   5.772   7.602   0.736  0.0018  1.7116  0.6987
   23MOL    H39 5803   6.213   7.655   0.897 -0.9605  0.6485 -1.3632
   23MOL    H40 5804   6.200   7.651   1.057  0.7267  2.2080 -0.5020
   23MOL    C41 5805   6.053   7.775   0.965  0.6251 -0.0873 -0.0167
   23MOL    C42 5806   6.147   0.042   0.917  1.1581  0.6478  0.0458
   23MOL    C43 5807   6.091   0.168   0.860 -0.4514  0.5680 -0.4162
   23MOL    C44 5808   6.170   0.078   0.770  0.0416  1.1138  0.1985
   23MOL    C45 5809   5.992   7.810   1.101  0.2766  0.3923 -0.1961
   23MOL    H46 5810   5.980   7.763   0.885 -0.2430  0.3813  0.6893
   23MOL    H47 5811   6.239   0.059   0.972  0.8622 -1.2316  1.1811
   23MOL    H48 5812   5.983   0.163   0.849 -0.4447 -0.4223 -0.1200
   23MOL    H49 5813   6.136   0.267   0.866 -1.2100  0.8253  1.4889
   23MOL    H50 5814   6.270   0.110   0.741 -0.4654 -0.6654 -3.7766
   23MOL    H51 5815   6.130   0.001   0.704  0.3072  1.0140  0.1539
   23MOL    H52 5816   6.063   0.022   1.166 -2.2738  1.8673  1.5573
   23MOL    H53 5817   5.973   7.711   1.141 -1.9917  0.7880 -0.1982
   23MOL    C54 5818   5.861   0.065   1.110 -0.4377 -0.0666 -0.4196
   23MOL    C55 5819   5.741   7.837   1.175 -0.6875  0.0592 -0.4186
   23MOL    C56 5820   5.677   7.725   1.093  0.3028  0.4792  0.3204
   23MOL    C57 5821   5.593   0.007   1.131 -1.0623 -0.1678  0.0837
   23MOL    C58 5822   5.897   0.192   1.182  0.6266 -0.1949 -1.0669
   23MOL    H59 5823   5.842   0.096   1.007  0.8688 -0.2224 -0.7252
   23MOL    H60 5824   5.750   7.826   1.283 -0.9384 -0.2732 -0.4305
   23MOL    H61 5825   5.705   7.709   0.989 -0.9640  0.5413 -0.0396
   23MOL    H62 5826   5.665   7.632   1.149  1.3387  0.1555  0.0239
   23MOL    H63 5827   5.511   0.003   1.202 -1.6955 -2.6333 -0.7088
   23MOL    H64 5828   5.575   0.070   1.044 -0.6434 -0.3222 -0.1150
   23MOL    H65 5829   5.937   0.163   1.279  0.0218  0.3758 -0.6452
   23MOL    H66 5830   5.986   0.226   1.129  0.5447 -0.3327 -1.2924
   23MOL    C67 5831   5.786   0.307   1.190 -0.1556  0.3438  0.5963
   23MOL    C68 5832   5.827   0.408   1.290  0.8392 -0.8330  0.9243
   23MOL    C69 5833   5.726   0.474   1.383 -0.2251 -0.0344  0.1192
   23MOL    C70 5834   5.824   0.382   1.436  0.8903  0.1838  0.8588
   23MOL    C71 5835   5.767   0.364   1.044 -1.1187 -0.2755  1.1345
   23MOL    H72 5836   5.691   0.263   1.220 -0.0482  1.7547  3.1483
   23MOL    H73 5837   5.908   0.472   1.256  2.1847 -2.1440  1.5774
   23MOL    H74 5838   5.741   0.578   1.411  2.7726 -0.1752 -0.7606
   23MOL    H75 5839   5.624   0.443   1.363  0.1366 -1.0763 -0.1519
   23MOL    H76 5840   5.776   0.289   1.463  0.4203  0.6458  1.6281
   23MOL    H77 5841   5.906   0.421   1.496  2.6358 -1.6974 -0.2536
   23MOL    H78 5842   5.767   0.281   0.973 -2.1149  0.6065  0.0891
   23MOL    H79 5843   5.861   0.414   1.021 -1.4041 -0.1714  0.1942
   23MOL    C80 5844   5.640   0.454   1.017 -0.0602 -0.9126 -0.7434
   23MOL    C81 5845   5.594   0.423   0.874 -0.0007 -0.2937 -0.3082
   23MOL    C82 5846   5.460   0.449   0.805 -0.5516  0.1806 -0.8537
   23MOL    C83 5847   5.498   0.303   0.848 -0.4833  0.3504  0.4046
   23MOL    C84 5848   5.675   0.606   1.030  0.1821  0.2670  0.3188
   23MOL    H85 5849   5.564   0.425   1.089 -0.4883  3.3546  0.6355
   23MOL    H86 5850   5.677   0.432   0.805 -1.6159 -0.9532 -2.4299
   23MOL    H87 5851   5.460   0.476   0.700 -1.3460  2.6709 -0.2543
   23MOL    H88 5852   5.369   0.487   0.853 -0.6388 -0.9006 -0.1454
   23MOL    H89 5853   5.455   0.254   0.935 -1.2483 -1.7166 -1.0969
   23MOL    H90 5854   5.512   0.233   0.765 -1.2829  1.1646 -0.4241
   23MOL    H91 5855   5.736   0.619   1.119  0.7392 -0.5725  0.0620
   23MOL    H92 5856   5.737   0.618   0.941  0.3689  0.9242  0.5355
   23MOL    C93 5857   5.555   0.701   1.039  0.1243 -0.5778  0.0942
   23MOL    C94 5858   5.475   0.666   1.166 -0.4343  0.0533  0.5204
   23MOL    C95 5859   5.333   0.711   1.187  0.0076  0.9953 -0.1504
   23MOL    C96 5860   5.356   0.564   1.154  0.3131 -0.5286  0.1988
   23MOL    C97 5861   5.607   0.850   1.050 -0.5333  0.2514 -0.2335
   23MOL    H98 5862   5.492   0.688   0.951 -0.4543 -0.4482  0.4931
   23MOL    H99 5863   5.543   0.644   1.248  1.8829  0.0355 -1.3277
   23MOL   H100 5864   5.319   0.728   1.294 -0.9425 -0.4547 -0.0276
   23MOL   H101 5865   5.285   0.773   1.112  1.9073 -0.9407 -3.0681
   23MOL   H102 5866   5.327   0.494   1.232 -0.4677  0.7971  1.1332
   23MOL   H103 5867   5.311   0.542   1.058  1.6487 -1.1699 -0.2822
   23MOL   H104 5868   5.667   0.858   1.140 -1.6768  0.8635  0.4912
   23MOL   H105 5869   5.515   0.903   1.075 -1.4210 -1.3529  0.0038
   23MOL   C106 5870   5.676   0.918   0.929  0.0123  0.5280  0.8201
   23MOL   C107 5871   5.571   0.956   0.821 -0.6389  0.3707  0.0316
   23MOL   C108 5872   5.603   1.006   0.687 -0.6949 -0.1346 -0.3469
   23MOL   C109 5873   5.534   0.871   0.703 -0.2964 -0.3954  0.5428
   23MOL   C110 5874   5.747   1.047   0.973  0.0298 -0.9962 -0.0056
   23MOL   H111 5875   5.753   0.860   0.879 -0.5101 -2.6065  3.4216
   23MOL   H112 5876   5.486   1.008   0.864 -0.3907  1.2007 -0.4692
   23MOL   H113 5877   5.541   1.093   0.666 -0.5461  0.3217  1.0550
   23MOL   H114 5878   5.699   1.008   0.637 -0.9258  0.6286 -0.7762
   23MOL   H115 5879   5.594   0.783   0.680 -0.5427 -0.7501  1.2410
   23MOL   H116 5880   5.432   0.873   0.665  0.2772  0.7351 -1.0221
   23MOL   H117 5881   5.785   1.106   0.889  0.9343  0.3244  1.3065
   23MOL   H118 5882   5.676   1.109   1.030  1.3045 -1.4323  2.1021
   23MOL   C119 5883   5.874   1.032   1.053  0.6576  0.4249  0.5273
   23MOL   C120 5884   5.987   0.955   0.981  0.2010 -0.6580  0.1086
   23MOL   C121 5885   5.991   0.805   0.990  0.4667  0.3206 -0.4725
   23MOL   C122 5886   6.092   0.895   1.065 -0.8480  0.7374  0.6430
   23MOL   C123 5887   5.921   1.175   1.095  0.4296  0.1795 -0.4409
   23MOL   H124 5888   5.854   0.984   1.149  0.9686  0.1275  0.4438
   23MOL   H125 5889   6.024   0.996   0.888 -0.7055  0.1149  0.0726
   23MOL   H126 5890   6.046   0.742   0.920 -0.0336  0.8338 -1.3386
   23MOL   H127 5891   5.916   0.754   1.050  0.3779  1.8033  0.7028
   23MOL   H128 5892   6.079   0.917   1.171 -1.1169  1.1052  0.5359
   23MOL   H129 5893   6.189   0.901   1.016 -1.1013 -2.5145 -0.3456
   23MOL   H130 5894   6.028   1.181   1.116  0.1065  3.0115  0.6119
   23MOL   H131 5895   5.908   1.245   1.013 -0.3144  1.1585  0.4994
   23MOL   C132 5896   5.842   1.227   1.216  0.2305 -0.2052  0.4720
   23MOL   C133 5897   5.824   1.371   1.212 -0.0094 -1.2914 -0.1173
   23MOL   C134 5898   5.700   1.444   1.274  0.3202  0.3631  0.1869
   23MOL   C135 5899   5.717   1.438   1.123  0.3178  0.0264 -0.1654
   23MOL   C136 5900   5.908   1.180   1.346 -0.5946 -0.7420  0.1572
   23MOL   H137 5901   5.742   1.182   1.212  0.0657  0.0973  1.2233
   23MOL   H138 5902   5.913   1.428   1.237  0.1626 -1.7455  0.3334
   23MOL   H139 5903   5.617   1.387   1.315  0.5968  0.4916  0.9304
   23MOL   H140 5904   5.720   1.537   1.325  0.2342  0.3187  0.3018
   23MOL   H141 5905   5.657   1.367   1.067 -2.0579  1.1137  0.9706
   23MOL   H142 5906   5.733   1.538   1.083 -1.9821  0.5047  0.0472
   23MOL   H143 5907   5.946   1.078   1.342  0.3006 -0.4545  1.2408
   23MOL   H144 5908   5.999   1.239   1.358 -0.8027 -0.4650  0.3754
   23MOL   C145 5909   5.829   1.192   1.476 -0.5868  0.2134  0.4411
   23MOL   C146 5910   5.727   1.077   1.495 -0.6131  0.0899 -0.5493
   23MOL   C147 5911   5.605   1.093   1.586 -0.5456 -0.0838  0.1763
   23MOL   C148 5912   5.589   1.089   1.437  0.0447 -0.4155 -0.0814
   23MOL   C149 5913   5.927   1.180   1.606  0.4178 -0.3609 -0.4490
   23MOL   H150 5914   5.775   1.287   1.479  0.5839  0.8550  2.2789
   23MOL   H151 5915   5.775   0.979   1.489 -0.6976 -0.3174  3.7974
   23MOL   H152 5916   5.568   1.005   1.638  2.1505 -2.2004 -1.3373
   23MOL   H153 5917   5.582   1.191   1.629 -0.2412 -0.1476  0.4885
   23MOL   H154 5918   5.553   1.176   1.382  3.3653  2.1041  1.5789
   23MOL   H155 5919   5.534   1.001   1.403 -0.4774 -0.3076  0.4779
   23MOL   H156 5920   5.941   1.077   1.638  1.8866  0.7624  2.7591
   23MOL   H157 5921   6.028   1.217   1.587  0.7148  0.1407  1.9324
   23MOL   C158 5922   5.885   1.255   1.731  0.3328  0.0018  0.6891
   23MOL   C159 5923   5.879   1.410   1.700 -0.2352  0.3739  0.0771
   23MOL   C160 5924   5.743   1.478   1.676  1.5358  0.2127  0.5257
   23MOL   C161 5925   5.804   1.496   1.809  0.7906  0.1440  0.4360
   23MOL   C162 5926   5.977   1.227   1.853  0.0699  0.3656  0.5293
   23MOL   H163 5927   5.780   1.231   1.748 -0.3994  2.0428 -0.7380
   23MOL   H164 5928   5.964   1.446   1.643 -1.4520  0.4463 -1.7340
   23MOL   H165 5929   5.660   1.408   1.671  0.3240  1.6537  0.4165
   23MOL   H166 5930   5.739   1.570   1.619 -0.1963 -0.3475 -0.2891
   23MOL   H167 5931   5.841   1.596   1.829 -0.4117  0.6156  0.3498
   23MOL   H168 5932   5.745   1.448   1.887  1.2976  1.0507  1.3931
   23MOL   H169 5933   5.975   1.302   1.932  0.1987  1.4282 -0.4690
   23MOL   H170 5934   6.080   1.244   1.819 -0.5772  1.3005 -1.0177
   23MOL   C171 5935   5.977   1.086   1.917  0.0850 -0.2319  0.0820
   23MOL   C172 5936   6.078   1.074   2.027 -0.2500  0.1857 -0.2713
   23MOL   C173 5937   6.168   0.962   2.078 -0.1139  0.3533 -0.1905
   23MOL   C174 5938   6.223   1.082   2.005 -0.4531 -0.2403 -0.1239
   23MOL   C175 5939   5.837   1.038   1.963 -0.8934 -0.1040 -0.2267
   23MOL   H176 5940   6.011   1.021   1.837  0.7184  0.4342 -0.1899
   23MOL   H177 5941   6.053   1.148   2.103 -1.0793  0.5444 -0.8844
   23MOL   H178 5942   6.186   0.954   2.185 -1.8261 -1.5578 -0.0025
   23MOL   H179 5943   6.155   0.868   2.025  0.2760 -0.4482  1.1094
   23MOL   H180 5944   6.272   1.056   1.912 -0.1222 -0.4932  0.1177
   23MOL   H181 5945   6.276   1.156   2.064 -1.3276 -0.3492  0.8154
   23MOL   H182 5946   5.771   1.057   1.878  0.0270  1.2977 -0.6467
   23MOL   H183 5947   5.809   1.112   2.037  0.1168 -1.0528  1.1350
   23MOL   C184 5948   5.819   0.890   2.006  0.0828  0.3140 -0.9628
   23MOL   C185 5949   5.860   0.798   1.894  0.3169 -0.2363  0.2132
   23MOL   C186 5950   5.768   0.770   1.771  0.4484  0.8633 -1.3424
   23MOL   C187 5951   5.810   0.663   1.867 -0.2730  0.4367  0.1107
   23MOL   C188 5952   5.675   0.867   2.064  1.1691  0.0426  0.8182
   23MOL   H189 5953   5.894   0.869   2.083  0.6046  0.5504 -1.4027
   23MOL   H190 5954   5.966   0.798   1.870  0.0284  1.2110 -1.1692
   23MOL   H191 5955   5.817   0.780   1.674  0.0119  2.2256 -1.4341
   23MOL   H192 5956   5.663   0.799   1.771  0.8057  2.2590 -0.1453
   23MOL   H193 5957   5.870   0.587   1.817 -1.9075 -1.0415  0.3240
   23MOL   H194 5958   5.730   0.617   1.925  1.1773  0.1041  1.8938
   23MOL   H195 5959   5.662   0.761   2.083  0.1748 -0.2737 -1.4549
   23MOL   H196 5960   5.598   0.884   1.988  1.7004  1.1693  0.5240
   23MOL   C197 5961   5.631   0.965   2.182  0.1194 -0.0743  0.4039
   23MOL   C198 5962   5.717   0.936   2.300 -0.3232 -0.9576 -0.2740
   23MOL   C199 5963   5.736   1.033   2.410 -1.4558 -0.3858 -0.3993
   23MOL   C200 5964   5.852   0.998   2.323 -0.8313 -1.0844  0.3323
   23MOL   C201 5965   5.489   0.919   2.218  0.2727  0.3904 -0.0818
   23MOL   H202 5966   5.651   1.071   2.167 -2.3521  0.3972  0.2095
   23MOL   H203 5967   5.696   0.836   2.338  2.1603  0.0842  4.1921
   23MOL   H204 5968   5.680   1.125   2.392 -3.5514 -2.2541 -3.9333
   23MOL   H205 5969   5.739   1.003   2.514  0.4318  2.2571  0.3739
   23MOL   H206 5970   5.896   1.072   2.258 -1.9028 -0.4488  0.3188
   23MOL   H207 5971   5.923   0.932   2.374 -0.5568 -0.0106  1.3745
   23MOL   H208 5972   5.471   0.821   2.174 -1.6399 -0.3699  2.2274
   23MOL   H209 5973   5.476   0.896   2.324  0.1337 -0.2403 -0.2326
   23MOL   C210 5974   5.370   1.015   2.172 -0.5605  0.4919  0.1066
   23MOL   C211 5975   5.327   0.984   2.025 -0.0206 -0.2236 -0.3019
   23MOL   C212 5976   5.258   1.098   1.952 -0.4397  0.0982 -0.4874
   23MOL   C213 5977   5.403   1.060   1.920  0.1545 -0.1832 -0.3193
   23MOL   C214 5978   5.242   0.992   2.256  0.2018  0.4005 -0.1888
   23MOL   H215 5979   5.403   1.118   2.186 -2.4635  1.2131 -0.5182
   23MOL   H216 5980   5.298   0.882   2.000 -3.0213  1.0369 -2.3374
   23MOL   H217 5981   5.172   1.067   1.893  0.4855  0.1751 -1.8917
   23MOL   H218 5982   5.233   1.189   2.007  1.9451 -0.2669  1.2906
   23MOL   H219 5983   5.420   1.021   1.820 -0.4883  1.0399 -0.9114
   23MOL   H220 5984   5.490   1.103   1.968  1.0438 -2.1577 -0.1083
   23MOL   H221 5985   5.147   1.021   2.210 -1.0960 -0.6660  1.7480
   23MOL   H222 5986   5.233   0.883   2.257 -0.4237  0.4522  0.1217
   23MOL   C223 5987   5.244   1.055   2.400  0.3048  0.2920  0.3270
   23MOL   C224 5988   5.129   0.994   2.479 -0.3588  0.1020  0.9945
   23MOL   C225 5989   5.139   0.856   2.527  0.2416  0.1212  0.0122
   23MOL   C226 5990   5.143   0.978   2.627 -1.0987 -0.2744  0.5129
   23MOL   C227 5991   5.230   1.212   2.387  0.4221  0.1671  0.0335
   23MOL   H228 5992   5.336   1.022   2.448  0.6149 -1.0545 -1.1598
   23MOL   H229 5993   5.032   1.039   2.460  0.3631  1.7647  1.2089
   23MOL   H230 5994   5.232   0.805   2.506  0.2716  0.1715  0.0255
   23MOL   H231 5995   5.043   0.804   2.525  0.0595  0.4488  0.1633
   23MOL   H232 5996   5.060   1.011   2.689 -3.4111  0.2812 -2.7633
   23MOL   H233 5997   5.244   0.987   2.668  1.1345 -1.6819 -4.2664
   23MOL   H234 5998   5.285   1.241   2.298  1.9058  0.2731  0.9617
   23MOL   H235 5999   5.128   1.250   2.378  0.4962  0.7463  1.4876
   23MOL   C236 6000   5.298   1.286   2.510  0.2094  0.6164 -0.2795
   23MOL   C237 6001   5.228   1.423   2.536 -0.3243 -0.5342 -0.8626
   23MOL   C238 6002   5.081   1.425   2.567  0.7044  0.2338 -0.3756
   23MOL   C239 6003   5.181   1.459   2.680  0.3399 -0.1297  0.2320
   23MOL   C240 6004   5.445   1.292   2.483  0.2806 -0.1814 -0.3820
   23MOL   H241 6005   5.279   1.224   2.597  1.5605  1.4059  0.5875
   23MOL   H242 6006   5.266   1.507   2.477 -0.5880  0.4765  0.3762
   23MOL   H243 6007   5.026   1.516   2.545  3.4486  1.5940 -1.8940
   23MOL   H244 6008   5.025   1.332   2.570 -1.0513  1.3222  0.7658
   23MOL   H245 6009   5.199   1.382   2.754  1.1110 -0.0057  0.1794
   23MOL   H246 6010   5.165   1.559   2.720  1.2101  0.5911 -1.1544
   23MOL   H247 6011   5.483   1.192   2.462  0.4512 -0.5797  1.7569
   23MOL   H248 6012   5.435   1.357   2.396  2.3973  1.2103  0.3852
   23MOL   C249 6013   5.532   1.369   2.578 -0.6006 -0.8011  0.2503
   23MOL   C250 6014   5.665   1.396   2.511  0.0091  0.5938 -0.8238
   23MOL   C251 6015   5.673   1.500   2.393 -0.1403  0.0212 -0.0915
   23MOL   C252 6016   5.725   1.534   2.529 -0.3270  0.2879 -0.1689
   23MOL   C253 6017   5.557   1.289   2.707  0.2474  0.1483 -0.6313
   23MOL   H254 6018   5.496   1.465   2.615 -1.1753 -0.8149 -0.2719
   23MOL   H255 6019   5.718   1.304   2.487  0.6013 -0.0906  2.7578
   23MOL   H256 6020   5.736   1.469   2.310  1.1055 -0.0461  0.8682
   23MOL   H257 6021   5.578   1.545   2.366 -1.1367 -0.2867  2.7409
   23MOL   H258 6022   5.833   1.526   2.540 -0.3904  1.1361  1.2094
   23MOL   H259 6023   5.680   1.611   2.592 -0.9968 -0.4295  0.2359
   23MOL   H260 6024   5.626   1.353   2.764  2.0458 -1.1150 -1.3394
   23MOL   H261 6025   5.605   1.193   2.686  2.4964  0.8850  0.8863
   23MOL   H262 6026   5.468   1.276   2.768  0.3186 -0.6999 -0.6961
   24MOL     C1 6027   6.891   1.767   4.246  0.1470  0.3484 -0.1796
   24MOL     C2 6028   6.793   1.667   4.176 -0.0515 -0.2999  1.0441
   24MOL     C3 6029   6.658   1.734   4.127 -0.1646  0.0334  0.2953
   24MOL     C4 6030   6.663   1.621   4.224 -0.1182 -0.1233  0.0224
   24MOL     C5 6031   6.998   1.706   4.338 -0.1028  0.4981 -0.1237
   24MOL     H6 6032   6.936   1.833   4.172  0.4431  1.7451  1.2265
   24MOL     H7 6033   6.847   1.590   4.121  0.0398  0.9290 -0.6230
   24MOL     H8 6034   6.634   1.832   4.169  0.1491 -0.1444  0.8859
   24MOL     H9 6035   6.616   1.716   4.028 -0.7891  0.2557  0.5131
   24MOL    H10 6036   6.643   1.516   4.200  0.8813 -1.2495  3.8064
   24MOL    H11 6037   6.635   1.646   4.326 -0.1709  2.6225 -0.6321
   24MOL    H12 6038   7.064   1.635   4.289  0.9858 -0.6269  2.8425
   24MOL    H13 6039   6.947   1.647   4.414  2.0412 -0.0335  0.9393
   24MOL    H14 6040   6.837   1.845   4.299 -1.7374 -2.4198  2.1262
   24MOL    C15 6041   7.081   1.816   4.406 -0.1131 -0.0736  0.5788
   24MOL    C16 6042   7.147   1.754   4.527 -0.1755  0.1676  0.0592
   24MOL    C17 6043   7.066   1.750   4.656 -0.8692  0.1776  0.3039
   24MOL    C18 6044   7.188   1.844   4.648 -0.5539  0.1407 -0.0843
   24MOL    C19 6045   7.193   1.862   4.314 -0.3666 -0.1669 -0.0141
   24MOL    H20 6046   7.018   1.896   4.446 -1.6776 -0.0332 -1.8840
   24MOL    H21 6047   7.215   1.672   4.504  0.0692  0.6218 -0.8334
   24MOL    H22 6048   7.069   1.657   4.713  2.0591 -0.6533 -1.0947
   24MOL    H23 6049   6.970   1.798   4.669 -1.4651 -0.9393  0.0937
   24MOL    H24 6050   7.162   1.949   4.662 -0.9992  0.0856 -0.4820
   24MOL    H25 6051   7.281   1.820   4.699  0.0256 -1.0432 -1.6526
   24MOL    H26 6052   7.219   1.787   4.241  0.3706 -0.5075  0.5893
   24MOL    H27 6053   7.289   1.885   4.360 -0.1149  0.0782 -0.6633
   24MOL    C28 6054   7.150   2.000   4.247  0.2064  1.1919  0.6796
   24MOL    C29 6055   7.212   2.009   4.112 -0.6368  0.4899  0.2603
   24MOL    C30 6056   7.186   1.926   3.994 -0.0991  0.1166 -0.1641
   24MOL    C31 6057   7.130   2.061   3.999  0.6264  0.2181  1.1685
   24MOL    C32 6058   7.182   2.118   4.336 -0.6465  0.1380 -0.2232
   24MOL    H33 6059   7.044   1.990   4.227  0.1151 -0.0573  1.7499
   24MOL    H34 6060   7.316   2.040   4.112 -0.1402 -1.1351  0.1502
   24MOL    H35 6061   7.111   1.848   4.007 -2.4674  2.2361 -0.7653
   24MOL    H36 6062   7.270   1.901   3.929  0.7726  0.9390  0.6383
   24MOL    H37 6063   7.023   2.074   4.016  0.7116  1.9410  0.4625
   24MOL    H38 6064   7.160   2.132   3.923 -1.9043  1.8111  1.5815
   24MOL    H39 6065   7.287   2.116   4.365 -0.7311 -1.7617 -0.0029
   24MOL    H40 6066   7.131   2.098   4.431 -0.2953  1.5022  0.2655
   24MOL    C41 6067   7.137   2.258   4.285 -0.1356 -0.1407  0.5344
   24MOL    C42 6068   7.205   2.354   4.381  0.5057 -0.4099  0.5413
   24MOL    C43 6069   7.260   2.492   4.336  0.4348 -0.3640  0.6326
   24MOL    C44 6070   7.356   2.374   4.340  0.1661 -0.2533 -0.2566
   24MOL    C45 6071   6.989   2.285   4.288 -0.4726 -0.5598  0.5942
   24MOL    H46 6072   7.165   2.288   4.184  0.3143  2.3517  1.3555
   24MOL    H47 6073   7.185   2.335   4.486 -1.6198 -0.2273  0.1913
   24MOL    H48 6074   7.233   2.515   4.233  0.2792 -0.9288  0.5491
   24MOL    H49 6075   7.254   2.571   4.411 -0.4462  3.1488 -2.9967
   24MOL    H50 6076   7.421   2.358   4.426 -0.9900  2.2931  1.1591
   24MOL    H51 6077   7.391   2.341   4.242 -1.7256  0.2181 -1.1111
   24MOL    H52 6078   6.956   2.272   4.391 -1.3973 -0.6716  0.2872
   24MOL    H53 6079   6.943   2.202   4.236  0.7902 -0.5989 -0.4933
   24MOL    C54 6080   6.935   2.408   4.216 -0.2427  0.6526 -0.0286
   24MOL    C55 6081   6.903   2.390   4.069  0.3289 -0.6217  0.0732
   24MOL    C56 6082   7.023   2.395   3.975 -0.3974 -0.3014 -0.0457
   24MOL    C57 6083   6.914   2.508   3.976 -0.2722  0.6186  0.5003
   24MOL    C58 6084   6.794   2.444   4.279  0.4058  0.2138  0.5857
   24MOL    H59 6085   7.001   2.494   4.218  1.0236 -0.3203  3.1577
   24MOL    H60 6086   6.824   2.318   4.048  1.6010 -2.3708  1.1327
   24MOL    H61 6087   7.121   2.427   4.006 -0.9202  0.9627  0.3271
   24MOL    H62 6088   7.020   2.315   3.900  1.7390 -0.5050  0.0774
   24MOL    H63 6089   6.841   2.511   3.895  0.3665 -1.2043 -0.1737
   24MOL    H64 6090   6.948   2.603   4.018  0.4710 -0.1858  1.7404
   24MOL    H65 6091   6.731   2.488   4.202 -0.5342 -2.8473 -0.4930
   24MOL    H66 6092   6.744   2.350   4.301  0.4816  0.1570  0.5152
   24MOL    C67 6093   6.796   2.535   4.408 -0.5419  0.1233  0.2232
   24MOL    C68 6094   6.827   2.683   4.359  1.0319  0.6571  0.3754
   24MOL    C69 6095   6.859   2.792   4.459 -0.0867 -0.6612  0.3250
   24MOL    C70 6096   6.972   2.738   4.374 -0.1704 -0.2233 -0.1321
   24MOL    C71 6097   6.663   2.530   4.495  0.4412 -0.1397 -0.5693
   24MOL    H72 6098   6.878   2.502   4.472 -0.4657 -1.0693 -0.4718
   24MOL    H73 6099   6.759   2.723   4.284  1.0311  1.6585  0.9044
   24MOL    H74 6100   6.823   2.892   4.434  0.4968 -0.2214  1.2306
   24MOL    H75 6101   6.855   2.762   4.563  0.3375 -0.2788  0.4519
   24MOL    H76 6102   7.052   2.690   4.430 -0.9790 -1.7709 -0.2850
   24MOL    H77 6103   7.019   2.797   4.296  0.7273 -0.3289  0.3200
   24MOL    H78 6104   6.578   2.565   4.435 -0.9366 -1.5169  0.5451
   24MOL    H79 6105   6.665   2.609   4.570 -2.2068 -0.8896  0.3453
   24MOL    C80 6106   6.615   2.396   4.565 -0.7779  0.3107  0.5448
   24MOL    C81 6107   6.477   2.413   4.635 -0.1626 -0.1932  0.2967
   24MOL    C82 6108   6.372   2.306   4.643 -0.0033 -0.4323 -0.8209
   24MOL    C83 6109   6.356   2.429   4.551  1.0542  0.1997  0.6305
   24MOL    C84 6110   6.727   2.330   4.654  0.5651  0.2148  0.3926
   24MOL    H85 6111   6.596   2.328   4.481 -3.2372  3.4037 -1.5150
   24MOL    H86 6112   6.490   2.488   4.712  1.3220  0.0443 -0.1721
   24MOL    H87 6113   6.319   2.304   4.737  0.7315  2.3176 -0.3175
   24MOL    H88 6114   6.379   2.206   4.599  0.9816 -1.5874  1.8649
   24MOL    H89 6115   6.353   2.395   4.448 -0.3735  1.1848  0.3256
   24MOL    H90 6116   6.311   2.526   4.574 -3.1915 -1.8306  1.2964
   24MOL    H91 6117   6.824   2.327   4.605  0.0785  2.2374 -0.7765
   24MOL    H92 6118   6.739   2.404   4.733 -0.1047 -1.5514  2.1828
   24MOL    C93 6119   6.707   2.190   4.711  0.1736  0.3409 -0.3534
   24MOL    C94 6120   6.761   2.090   4.609  0.2325  0.1791  0.0922
   24MOL    C95 6121   6.698   1.952   4.600 -0.0279  0.2928 -0.5311
   24MOL    C96 6122   6.677   2.052   4.492 -0.1445  0.9623 -0.5285
   24MOL    C97 6123   6.797   2.166   4.835 -0.4164  0.2188 -0.6221
   24MOL    H98 6124   6.603   2.168   4.737  0.5810  0.8228  1.7274
   24MOL    H99 6125   6.869   2.089   4.590  0.1370  2.5046 -0.7189
   24MOL   H100 6126   6.766   1.872   4.572  0.5754  0.9701 -1.0304
   24MOL   H101 6127   6.619   1.915   4.664 -0.2149  2.0013  0.2705
   24MOL   H102 6128   6.734   2.045   4.400 -0.9335 -2.9570 -0.8211
   24MOL   H103 6129   6.578   2.098   4.485 -1.3818 -1.3774  0.6911
   24MOL   H104 6130   6.891   2.220   4.823 -0.4437  0.5635  0.5601
   24MOL   H105 6131   6.827   2.062   4.846  2.2853  1.1780  1.8284
   24MOL   C106 6132   6.733   2.209   4.975  0.1079 -0.0888  0.9061
   24MOL   C107 6133   6.688   2.078   5.047  0.1706  0.5994  0.0255
   24MOL   C108 6134   6.567   2.068   5.133 -0.2197  0.0979 -0.3714
   24MOL   C109 6135   6.575   1.998   4.995  0.0227 -0.5360  0.0469
   24MOL   C110 6136   6.830   2.293   5.069  0.0960 -0.4313  0.2339
   24MOL   H111 6137   6.644   2.265   4.948  0.1422  0.1505  1.2876
   24MOL   H112 6138   6.767   2.013   5.084  0.3727 -0.5186 -2.2440
   24MOL   H113 6139   6.604   2.025   5.226 -0.9433  0.3215  0.0225
   24MOL   H114 6140   6.508   2.158   5.149  1.9638  1.2775  1.3757
   24MOL   H115 6141   6.526   2.046   4.910  1.6994 -0.0146 -0.6511
   24MOL   H116 6142   6.601   1.893   4.986 -0.8596 -0.8549  1.2170
   24MOL   H117 6143   6.774   2.303   5.162 -1.7679 -1.0165 -0.7929
   24MOL   H118 6144   6.911   2.231   5.106  0.2647  0.4702  1.3965
   24MOL   C119 6145   6.892   2.418   5.007  0.6474 -0.2006  0.1005
   24MOL   C120 6146   6.821   2.533   5.068 -0.6550 -0.3346  0.0580
   24MOL   C121 6147   6.682   2.561   5.050 -0.0579  0.0887  0.2916
   24MOL   C122 6148   6.780   2.648   4.977 -0.2186  0.4437 -0.3109
   24MOL   C123 6149   7.048   2.421   5.036  0.3267 -0.3491 -0.4345
   24MOL   H124 6150   6.881   2.428   4.899 -1.4055  2.1786  0.4756
   24MOL   H125 6151   6.867   2.565   5.161 -0.3224 -1.8904  0.4367
   24MOL   H126 6152   6.616   2.611   5.120 -1.7697 -0.7316 -0.6986
   24MOL   H127 6153   6.627   2.491   4.987  0.3704 -2.0317  2.1952
   24MOL   H128 6154   6.797   2.642   4.869 -0.4763 -0.0430 -0.3273
   24MOL   H129 6155   6.811   2.746   5.012  0.8798  0.3678 -1.0196
   24MOL   H130 6156   7.058   2.412   5.144  1.1810  0.8757 -0.3945
   24MOL   H131 6157   7.087   2.326   5.001  1.1699 -0.3864  0.5809
   24MOL   C132 6158   7.134   2.531   4.968 -0.8950 -0.4307  0.1004
   24MOL   C133 6159   7.168   2.491   4.822  0.3590  0.3398  0.3734
   24MOL   C134 6160   7.194   2.592   4.704 -0.8459  0.2526 -0.3333
   24MOL   C135 6161   7.070   2.514   4.704 -0.0734 -0.0847 -0.5313
   24MOL   C136 6162   7.250   2.563   5.051 -0.3215 -0.4385  0.7150
   24MOL   H137 6163   7.070   2.618   4.954 -0.8631 -0.6224 -1.3570
   24MOL   H138 6164   7.243   2.414   4.808  1.7135  1.9446 -1.6153
   24MOL   H139 6165   7.191   2.696   4.735 -1.8105  0.5237 -1.2572
   24MOL   H140 6166   7.271   2.572   4.630  0.8553  2.6266  0.7338
   24MOL   H141 6167   6.975   2.564   4.720  0.7907  0.4596  3.5256
   24MOL   H142 6168   7.074   2.432   4.633 -1.0195 -0.2719 -0.3722
   24MOL   H143 6169   7.299   2.472   5.088  0.8139  0.2453  0.9130
   24MOL   H144 6170   7.333   2.615   5.003  0.7415 -0.9660  1.9303
   24MOL   C145 6171   7.208   2.646   5.178 -0.3404  0.0652  0.3430
   24MOL   C146 6172   7.276   2.602   5.304  0.0797  0.3128 -1.3317
   24MOL   C147 6173   7.221   2.601   5.443  0.1292 -0.4850  0.5014
   24MOL   C148 6174   7.236   2.471   5.367 -0.1761  0.0652  0.3870
   24MOL   C149 6175   7.252   2.796   5.149  0.0362  0.6190  0.3485
   24MOL   H150 6176   7.100   2.634   5.180 -0.6765  2.7017 -0.7066
   24MOL   H151 6177   7.382   2.629   5.308  1.2693 -3.9546 -1.5035
   24MOL   H152 6178   7.291   2.628   5.522 -0.2682 -1.7593  1.3167
   24MOL   H153 6179   7.121   2.641   5.463  0.0090 -1.5660  2.2491
   24MOL   H154 6180   7.136   2.434   5.345 -0.4434  1.2273 -0.3841
   24MOL   H155 6181   7.304   2.403   5.418  0.0509  1.3195  1.7777
   24MOL   H156 6182   7.361   2.800   5.145  0.2426 -1.8880  2.7017
   24MOL   H157 6183   7.219   2.830   5.050 -2.0700  1.6211  1.3681
   24MOL   C158 6184   7.192   2.902   5.245 -0.2805 -0.4831  0.9329
   24MOL   C159 6185   7.049   2.932   5.214  0.7015 -0.7197 -0.3513
   24MOL   C160 6186   6.925   2.868   5.267 -0.7621 -0.2375  0.1870
   24MOL   C161 6187   6.960   3.005   5.310  0.3547  0.2684  0.3502
   24MOL   C162 6188   7.277   3.033   5.225 -0.2080 -0.3509 -0.1010
   24MOL   H163 6189   7.197   2.867   5.349 -0.7617 -4.5827 -0.3541
   24MOL   H164 6190   7.035   2.969   5.112 -3.6858  1.0593  0.8097
   24MOL   H165 6191   6.936   2.800   5.352  0.5646 -0.1087  0.1222
   24MOL   H166 6192   6.836   2.863   5.204 -1.2106 -1.6778  0.9077
   24MOL   H167 6193   6.921   3.096   5.266 -2.2595 -1.2333 -0.5359
   24MOL   H168 6194   7.011   3.013   5.406 -1.8914  2.2393  1.4224
   24MOL   H169 6195   7.233   3.099   5.150  1.3003 -4.7042 -5.1055
   24MOL   H170 6196   7.369   3.008   5.173  0.3937  0.3332  0.6087
   24MOL   C171 6197   7.315   3.113   5.347  0.0715 -0.2970 -0.3439
   24MOL   C172 6198   7.386   3.038   5.459  0.4257  0.0339  0.0006
   24MOL   C173 6199   7.438   3.105   5.591 -0.2559  0.1573 -0.6668
   24MOL   C174 6200   7.311   3.008   5.588 -0.2083  0.2705  0.0441
   24MOL   C175 6201   7.390   3.244   5.306 -0.1670 -0.3477  0.2059
   24MOL   H176 6202   7.219   3.141   5.389  0.3159  1.0972 -0.6901
   24MOL   H177 6203   7.451   2.957   5.427  2.0672  0.3619  2.4218
   24MOL   H178 6204   7.525   3.068   5.645 -1.8346  0.3211  2.0948
   24MOL   H179 6205   7.410   3.206   5.621 -1.3903 -0.1403 -0.6885
   24MOL   H180 6206   7.214   3.053   5.605  0.1596  0.9019  0.5061
   24MOL   H181 6207   7.330   2.914   5.640 -2.3267 -0.4510 -0.4495
   24MOL   H182 6208   7.430   3.231   5.205 -0.3409 -0.2385  0.1238
   24MOL   H183 6209   7.480   3.266   5.363  0.2357  1.7874 -1.1803
   24MOL   C184 6210   7.303   3.379   5.322  0.3106 -0.8293  0.6644
   24MOL   C185 6211   7.213   3.400   5.201  0.7891  0.6722  0.6823
   24MOL   C186 6212   7.087   3.482   5.215 -0.6989  0.5541  0.3221
   24MOL   C187 6213   7.074   3.335   5.196  0.5486  0.3080  0.8910
   24MOL   C188 6214   7.395   3.497   5.355  0.5456 -0.1044  0.8086
   24MOL   H189 6215   7.235   3.356   5.405  0.1141  0.9231  1.0017
   24MOL   H190 6216   7.269   3.406   5.108  0.7807  2.5500  0.7845
   24MOL   H191 6217   7.030   3.534   5.137  0.0817 -1.1301 -1.4199
   24MOL   H192 6218   7.069   3.513   5.317 -0.3542  1.2545  0.1681
   24MOL   H193 6219   7.043   3.294   5.100  0.4046  1.5272  0.4055
   24MOL   H194 6220   7.064   3.273   5.285  1.9713  0.0602  0.8955
   24MOL   H195 6221   7.339   3.582   5.316 -1.6254 -2.4299 -1.2966
   24MOL   H196 6222   7.477   3.494   5.283 -1.6160 -1.7983 -1.7171
   24MOL   C197 6223   7.433   3.499   5.505  0.5059 -0.4651 -0.1447
   24MOL   C198 6224   7.313   3.546   5.588 -0.0395  0.0483  0.7163
   24MOL   C199 6225   7.313   3.524   5.738 -0.1237  0.3268  0.9515
   24MOL   C200 6226   7.211   3.457   5.644 -0.2837  0.3197  1.2135
   24MOL   C201 6227   7.555   3.591   5.531  0.7963 -0.5109 -0.2533
   24MOL   H202 6228   7.462   3.399   5.540  0.9722 -0.6114 -0.9271
   24MOL   H203 6229   7.289   3.644   5.547 -0.3735 -1.4483 -2.9468
   24MOL   H204 6230   7.391   3.460   5.779  0.8526  1.0538  0.2928
   24MOL   H205 6231   7.293   3.618   5.790 -0.6797  0.2051  0.9519
   24MOL   H206 6232   7.225   3.352   5.622 -1.2894  0.6125 -0.9628
   24MOL   H207 6233   7.113   3.503   5.639 -0.0428  0.5760 -2.7384
   24MOL   H208 6234   7.529   3.692   5.498  2.6806  0.9898  2.6591
   24MOL   H209 6235   7.567   3.608   5.638 -1.1283  2.2855 -0.4207
   24MOL   C210 6236   7.680   3.542   5.467 -0.1566 -0.1990 -0.2133
   24MOL   C211 6237   7.789   3.641   5.449 -0.4239  0.2908  0.3141
   24MOL   C212 6238   7.786   3.779   5.508 -0.2073 -0.0217 -0.4574
   24MOL   C213 6239   0.029   3.674   5.571  1.0970  0.2274 -0.2318
   24MOL   C214 6240   7.730   3.408   5.521 -0.4723 -0.2279 -0.8362
   24MOL   H215 6241   7.655   3.519   5.363  0.1822  1.0449 -0.5772
   24MOL   H216 6242   0.008   3.624   5.358  0.4994  0.4035  0.8760
   24MOL   H217 6243   7.831   3.838   5.429  0.1021  1.4262  0.7840
   24MOL   H218 6244   7.697   3.814   5.560  0.0656  0.8281 -0.5577
   24MOL   H219 6245   0.137   3.662   5.562  0.9179 -0.8694 -0.9918
   24MOL   H220 6246   7.826   3.637   5.664  0.5571 -1.2468 -1.0483
   24MOL   H221 6247   7.730   3.421   5.629  0.7752  0.6008 -0.9243
   24MOL   H222 6248   7.667   3.320   5.512 -0.6640 -0.1389 -0.3960
   24MOL   C223 6249   0.022   3.348   5.459  0.7848  0.2660 -0.1953
   24MOL   C224 6250   7.837   3.280   5.318 -0.3362 -0.3356  0.5891
   24MOL   C225 6251   7.821   3.354   5.187 -0.3181 -0.0685 -0.0159
   24MOL   C226 6252   0.105   3.264   5.207 -0.0329 -0.2426 -0.6574
   24MOL   C227 6253   0.083   3.234   5.548  0.1662  0.3752 -0.0171
   24MOL   H228 6254   0.094   3.430   5.454  1.9129 -0.7259 -0.5486
   24MOL   H229 6255   7.774   3.192   5.324 -0.7356 -0.1643 -0.8873
   24MOL   H230 6256   7.831   3.462   5.200  0.4293 -0.3541  1.9960
   24MOL   H231 6257   7.733   3.326   5.129 -2.9873  0.1922  3.7030
   24MOL   H232 6258   0.112   3.166   5.159  1.1195 -0.8737  0.7543
   24MOL   H233 6259   0.201   3.313   5.223 -0.5248  0.6873 -0.5421
   24MOL   H234 6260   0.053   3.254   5.651  0.7756  1.6657 -0.0867
   24MOL   H235 6261   0.038   3.137   5.526  1.1786 -0.5714  2.0158
   24MOL   C236 6262   0.235   3.226   5.535  0.7224 -0.7445  0.7135
   24MOL   C237 6263   0.275   3.084   5.547 -0.0129 -0.2974  0.7431
   24MOL   C238 6264   0.280   2.978   5.440 -0.0250 -0.0967  0.0704
   24MOL   C239 6265   0.409   3.035   5.489 -0.0726  0.4986 -0.0129
   24MOL   C240 6266   0.305   3.321   5.635 -0.4706 -0.2351  0.0321
   24MOL   H241 6267   0.251   3.258   5.432  0.7356 -0.0103  0.9466
   24MOL   H242 6268   0.255   3.042   5.645 -0.1597 -0.7441  0.5228
   24MOL   H243 6269   0.256   2.875   5.465  1.9221 -0.3878  0.8414
   24MOL   H244 6270   0.231   3.009   5.348 -1.4323 -0.5155  0.6675
   24MOL   H245 6271   0.456   3.104   5.419 -1.3063  0.0043 -1.3540
   24MOL   H246 6272   0.471   2.975   5.555  0.3501 -1.3552 -2.0206
   24MOL   H247 6273   0.241   3.408   5.655 -2.5325 -1.4257 -1.2122
   24MOL   H248 6274   0.316   3.267   5.729 -0.2608 -0.2891 -0.0244
   24MOL   C249 6275   0.445   3.371   5.583  0.6984  0.1460 -0.1623
   24MOL   C250 6276   0.520   3.447   5.698  0.2467 -0.7169  1.3219
   24MOL   C251 6277   0.569   3.365   5.817 -0.0924  0.1886 -0.1367
   24MOL   C252 6278   0.672   3.438   5.722  0.2241 -0.2697 -0.1278
   24MOL   C253 6279   0.441   3.464   5.453  0.4035  0.2841  0.4904
   24MOL   H254 6280   0.504   3.282   5.562  1.6174  0.7268 -0.0921
   24MOL   H255 6281   0.475   3.545   5.709 -0.3475 -0.8123 -0.2152
   24MOL   H256 6282   0.531   3.404   5.911 -0.4825 -0.2217 -0.1244
   24MOL   H257 6283   0.557   3.257   5.813 -0.1261  0.1592  0.6978
   24MOL   H258 6284   0.712   3.537   5.743 -0.3781 -0.4256  1.8423
   24MOL   H259 6285   0.726   3.373   5.653  1.4130 -1.9072  2.2529
   24MOL   H260 6286   0.542   3.499   5.430  0.1861  1.1724  0.8536
   24MOL   H261 6287   0.375   3.547   5.478 -1.7871 -1.2084 -0.1462
   24MOL   H262 6288   0.403   3.395   5.378  1.4755 -0.0846  0.2706
   25MOL     C1 6289   6.239   6.541   5.506  0.1494  0.3158  0.5414
   25MOL     C2 6290   6.355   6.588   5.422  0.1795 -0.6128 -0.0747
   25MOL     C3 6291   6.486   6.511   5.438  0.4030 -0.4773  0.2477
   25MOL     C4 6292   6.476   6.659   5.488  0.4004  0.4802 -0.0472
   25MOL     C5 6293   6.175   6.410   5.461  0.4964  0.9705 -0.2892
   25MOL     H6 6294   6.277   6.530   5.607 -3.5711 -0.3037  1.9651
   25MOL     H7 6295   6.332   6.616   5.319 -0.6132  1.0761  0.5229
   25MOL     H8 6296   6.493   6.436   5.516 -0.7344 -1.3663 -0.4800
   25MOL     H9 6297   6.528   6.488   5.340 -0.6282 -2.3084  0.2250
   25MOL    H10 6298   6.539   6.723   5.426 -0.6501 -0.6492 -2.3418
   25MOL    H11 6299   6.455   6.690   5.590 -0.9131 -0.8325  0.0879
   25MOL    H12 6300   6.230   6.318   5.480  0.8205  0.7674 -2.1394
   25MOL    H13 6301   6.173   6.419   5.352 -0.2607  0.6465 -0.3010
   25MOL    H14 6302   6.162   6.618   5.506 -0.4910 -0.2433 -2.9664
   25MOL    C15 6303   6.044   6.393   5.525  0.3897  0.0001  0.3784
   25MOL    C16 6304   5.974   6.268   5.467  0.4092  0.5074  0.3270
   25MOL    C17 6305   5.888   6.267   5.346 -0.3421  0.3742  0.0191
   25MOL    C18 6306   5.827   6.253   5.489  0.1807 -0.8482  0.1825
   25MOL    C19 6307   6.043   6.384   5.682  0.2434  0.4938 -0.2359
   25MOL    H20 6308   5.980   6.469   5.480 -0.7065  0.0481  1.9894
   25MOL    H21 6309   6.030   6.177   5.489  0.1919  0.8190  2.2735
   25MOL    H22 6310   5.890   6.181   5.279 -0.4753 -0.6256  1.2669
   25MOL    H23 6311   5.892   6.360   5.290 -3.1464  0.8824  0.5957
   25MOL    H24 6312   5.757   6.329   5.523  0.1326 -1.2354  0.9672
   25MOL    H25 6313   5.795   6.153   5.518 -1.1460 -0.9800 -1.6676
   25MOL    H26 6314   6.142   6.406   5.722  0.7751 -0.7077 -0.8814
   25MOL    H27 6315   6.028   6.283   5.720  3.4074  0.3553  0.7881
   25MOL    C28 6316   5.945   6.483   5.760  0.0786 -0.2864 -0.2542
   25MOL    C29 6317   5.987   6.631   5.723 -0.2509  0.2392  0.4701
   25MOL    C30 6318   5.911   6.695   5.609  0.4537  0.2282 -0.2047
   25MOL    C31 6319   5.905   6.756   5.749 -1.0532 -0.0967  0.7903
   25MOL    C32 6320   5.963   6.461   5.912 -0.0808  0.7450  0.3759
   25MOL    H33 6321   5.841   6.470   5.727 -0.3507  0.1834  0.8991
   25MOL    H34 6322   6.095   6.636   5.713 -0.1047 -2.9652  0.0440
   25MOL    H35 6323   5.822   6.650   5.565 -0.8043  1.9775  0.4810
   25MOL    H36 6324   5.973   6.741   5.533  1.5826  0.0321  0.5828
   25MOL    H37 6325   5.816   6.756   5.812 -2.2147  2.6707 -0.8141
   25MOL    H38 6326   5.967   6.845   5.758  0.7117 -1.0366 -1.4926
   25MOL    H39 6327   6.054   6.511   5.946  0.0928  0.4992  0.2693
   25MOL    H40 6328   5.979   6.356   5.939 -0.5454  1.0880  2.0785
   25MOL    C41 6329   5.854   6.520   6.008  0.1073 -0.4428 -0.6621
   25MOL    C42 6330   5.906   6.499   6.151 -0.2089 -0.2883 -0.1507
   25MOL    C43 6331   5.862   6.570   6.286  0.2061  0.9026  0.6916
   25MOL    C44 6332   5.994   6.593   6.227 -0.1430 -0.0516 -0.0694
   25MOL    C45 6333   5.715   6.452   5.990 -0.8993  0.5690  0.8551
   25MOL    H46 6334   5.849   6.628   5.991  0.2928 -0.1136  1.2066
   25MOL    H47 6335   5.912   6.394   6.177 -0.5750 -0.3738 -0.4146
   25MOL    H48 6336   5.780   6.641   6.277 -0.5553 -0.0851 -0.2952
   25MOL    H49 6337   5.843   6.496   6.363 -2.9347  1.6597  0.7205
   25MOL    H50 6338   6.078   6.549   6.281 -0.3927 -2.2123 -1.3498
   25MOL    H51 6339   6.016   6.689   6.182  1.4103  0.3825  1.5564
   25MOL    H52 6340   5.722   6.349   6.027 -0.8974  0.0838 -0.4423
   25MOL    H53 6341   5.686   6.458   5.885 -4.4557  1.1917  1.8239
   25MOL    C54 6342   5.592   6.507   6.062 -0.6048 -0.2732  0.2707
   25MOL    C55 6343   5.557   6.644   6.006  0.2232  0.0998  0.3813
   25MOL    C56 6344   5.633   6.765   6.057 -0.7786  0.0719  0.5188
   25MOL    C57 6345   5.479   6.754   6.081  0.4545  0.2893 -0.6494
   25MOL    C58 6346   5.479   6.400   6.049 -0.2772 -1.3510  0.3949
   25MOL    H59 6347   5.623   6.523   6.165  0.2952  1.1829 -0.2069
   25MOL    H60 6348   5.536   6.641   5.900  1.3421  1.8837  0.0853
   25MOL    H61 6349   5.706   6.753   6.136 -0.2949  0.3110  0.1052
   25MOL    H62 6350   5.676   6.829   5.980 -0.6728  0.7243  1.1176
   25MOL    H63 6351   5.402   6.810   6.029 -1.0227 -0.9276  0.1806
   25MOL    H64 6352   5.442   6.729   6.180 -1.2240  1.6568 -0.9031
   25MOL    H65 6353   5.384   6.451   6.070  0.3580 -0.5761  1.4194
   25MOL    H66 6354   5.484   6.371   5.944  0.4713  1.6102 -0.4512
   25MOL    C67 6355   5.476   6.282   6.146  0.1474  0.4707 -1.0980
   25MOL    C68 6356   5.427   6.318   6.288  0.2340 -0.4438 -0.6678
   25MOL    C69 6357   5.476   6.250   6.415 -0.4800 -1.3149 -0.5259
   25MOL    C70 6358   5.512   6.394   6.389 -0.2438 -0.6506  0.4721
   25MOL    C71 6359   5.405   6.165   6.087  0.4801 -0.1278  0.3082
   25MOL    H72 6360   5.581   6.260   6.166 -0.0285  0.9502  0.4073
   25MOL    H73 6361   5.320   6.325   6.301  0.4290 -0.0689  0.7423
   25MOL    H74 6362   5.395   6.216   6.479 -1.1301  2.4605  0.8215
   25MOL    H75 6363   5.559   6.180   6.417  0.1724 -0.5715 -1.2485
   25MOL    H76 6364   5.618   6.416   6.374  0.2364 -3.6787 -1.1160
   25MOL    H77 6365   5.465   6.458   6.462  1.2589  0.3338  0.6039
   25MOL    H78 6366   5.315   6.202   6.039 -0.3376 -0.3772  1.6179
   25MOL    H79 6367   5.369   6.104   6.170 -0.0124 -0.2922 -0.0262
   25MOL    C80 6368   5.492   6.083   5.993  0.1655  0.4813  0.5883
   25MOL    C81 6369   5.399   5.985   5.924  0.4863 -0.0394 -0.1906
   25MOL    C82 6370   5.417   5.906   5.792  0.5149  0.0734 -0.0342
   25MOL    C83 6371   5.326   6.026   5.796  0.5106 -0.0267 -0.3490
   25MOL    C84 6372   5.595   6.003   6.079 -0.1327  0.3081 -0.3017
   25MOL    H85 6373   5.539   6.142   5.914 -0.9160  0.7963  0.1807
   25MOL    H86 6374   5.335   5.943   6.002  1.2006  2.3625  1.7539
   25MOL    H87 6375   5.374   5.807   5.783  0.5533  0.1182 -0.6870
   25MOL    H88 6376   5.511   5.913   5.737  0.8823 -0.8693  0.4607
   25MOL    H89 6377   5.349   6.117   5.742 -0.4250  0.4008 -0.0374
   25MOL    H90 6378   5.220   6.002   5.787  0.8600 -0.9911 -2.1866
   25MOL    H91 6379   5.648   6.058   6.156  0.3974  0.0606 -0.4809
   25MOL    H92 6380   5.538   5.937   6.143  0.7530 -0.9686 -0.7986
   25MOL    C93 6381   5.710   5.927   6.000 -0.4903  0.9907  0.1956
   25MOL    C94 6382   5.801   6.024   5.929  0.1376 -0.5017  0.4137
   25MOL    C95 6383   5.865   5.993   5.794  0.1374 -0.5127 -0.4026
   25MOL    C96 6384   5.765   6.107   5.808 -0.5455 -0.1402  0.1496
   25MOL    C97 6385   5.785   5.824   6.096 -0.0342  0.2579 -0.1609
   25MOL    H98 6386   5.677   5.869   5.914  1.2527 -0.8865  0.7466
   25MOL    H99 6387   5.882   6.058   5.993  0.9837  0.8268 -1.3306
   25MOL   H100 6388   5.965   6.026   5.769  0.0421 -0.5066 -0.7801
   25MOL   H101 6389   5.835   5.902   5.742 -1.1188 -0.7631  0.7058
   25MOL   H102 6390   5.806   6.207   5.815 -0.0920 -0.3079 -0.0558
   25MOL   H103 6391   5.672   6.078   5.760 -0.0275 -4.3946  1.4872
   25MOL   H104 6392   5.813   5.867   6.192 -1.3392 -1.1713  0.8811
   25MOL   H105 6393   5.881   5.806   6.048 -0.4470  1.9818 -1.7243
   25MOL   C106 6394   5.713   5.689   6.114  0.6804 -0.2775 -0.2461
   25MOL   C107 6395   5.743   5.584   6.010 -0.2358 -0.0373 -0.6216
   25MOL   C108 6396   5.642   5.475   5.972  0.0677  0.3665  0.2450
   25MOL   C109 6397   5.673   5.590   5.873 -0.5294  0.0592 -0.2762
   25MOL   C110 6398   5.718   5.634   6.259 -0.4128 -0.5505  0.5053
   25MOL   H111 6399   5.605   5.706   6.103  0.7138 -0.8102 -1.3854
   25MOL   H112 6400   5.845   5.546   6.008 -0.8554 -1.8496  0.5843
   25MOL   H113 6401   5.677   5.377   5.940  0.9474 -0.1940  2.7490
   25MOL   H114 6402   5.540   5.468   6.011 -0.6161 -3.1439 -1.9322
   25MOL   H115 6403   5.589   5.655   5.852 -0.3596 -0.2002 -1.8331
   25MOL   H116 6404   5.720   5.552   5.782  0.7989 -0.2759  0.5324
   25MOL   H117 6405   5.654   5.547   6.254  2.2850 -2.4748 -2.2280
   25MOL   H118 6406   5.820   5.596   6.268 -0.7240 -1.1702  1.3928
   25MOL   C119 6407   5.684   5.719   6.384  0.6812  0.3892 -0.2294
   25MOL   C120 6408   5.543   5.701   6.420  0.9051  0.1061 -0.5835
   25MOL   C121 6409   5.436   5.797   6.380 -0.3002 -0.4903  0.0645
   25MOL   C122 6410   5.484   5.793   6.521 -0.2399 -0.4166 -0.7076
   25MOL   C123 6411   5.779   5.687   6.497 -0.0841 -0.4866 -0.1275
   25MOL   H124 6412   5.688   5.827   6.364  0.4289  0.7423  1.5370
   25MOL   H125 6413   5.499   5.602   6.405 -3.5751  2.1110 -1.3180
   25MOL   H126 6414   5.331   5.785   6.356 -0.9659  1.8688  1.6468
   25MOL   H127 6415   5.472   5.889   6.336  2.3963 -1.7023 -0.3844
   25MOL   H128 6416   5.544   5.877   6.556 -2.0346  0.7415 -0.3422
   25MOL   H129 6417   5.416   5.755   6.597 -0.2889  0.7556 -0.1639
   25MOL   H130 6418   5.743   5.736   6.587  1.1211 -1.5284  0.9410
   25MOL   H131 6419   5.791   5.580   6.514  2.4745  0.0784  2.0187
   25MOL   C132 6420   5.914   5.767   6.501  0.5103  0.6867  0.0202
   25MOL   C133 6421   5.995   5.682   6.605 -0.6410  0.1568  0.3863
   25MOL   C134 6422   6.145   5.650   6.597  0.3395 -0.9863 -0.7525
   25MOL   C135 6423   6.041   5.546   6.576 -0.4421  0.1587 -0.7319
   25MOL   C136 6424   5.891   5.913   6.550 -0.0921 -0.2173 -0.0582
   25MOL   H137 6425   5.958   5.765   6.401  0.4743 -0.8083  0.0133
   25MOL   H138 6426   5.974   5.711   6.708  1.4759  1.3791  0.4922
   25MOL   H139 6427   6.207   5.687   6.515  1.9233  0.9745  1.2471
   25MOL   H140 6428   6.208   5.641   6.685  1.8055  0.7697 -1.5675
   25MOL   H141 6429   6.031   5.516   6.472  2.4146 -1.0591 -0.6844
   25MOL   H142 6430   6.048   5.469   6.652 -0.3286  1.7216  0.8607
   25MOL   H143 6431   5.824   5.961   6.479 -0.7954 -2.1895 -0.7765
   25MOL   H144 6432   5.842   5.921   6.647 -0.1078  0.7097 -0.1367
   25MOL   C145 6433   6.015   6.002   6.552  0.4979  0.3881 -0.3416
   25MOL   C146 6434   5.983   6.128   6.471  0.0411  0.2068  0.2612
   25MOL   C147 6435   6.090   6.191   6.380  0.3369  0.0146  0.4361
   25MOL   C148 6436   5.974   6.115   6.320  0.1768  0.1335 -0.1846
   25MOL   C149 6437   6.069   6.032   6.684  0.4516  0.0595  0.1581
   25MOL   H150 6438   6.092   5.940   6.506 -0.9591 -1.5662 -0.2111
   25MOL   H151 6439   5.913   6.190   6.526 -2.4192 -1.7385 -0.5519
   25MOL   H152 6440   6.091   6.297   6.357 -1.6834 -0.6099 -2.7935
   25MOL   H153 6441   6.183   6.136   6.372 -0.5418 -1.3730 -0.5085
   25MOL   H154 6442   6.001   6.012   6.296 -0.7429  0.0602 -0.9423
   25MOL   H155 6443   5.889   6.161   6.269  1.3141  0.1689 -2.1208
   25MOL   H156 6444   5.993   6.103   6.715  0.3806  0.5791 -1.1769
   25MOL   H157 6445   6.060   5.945   6.750 -3.7857 -1.4530 -2.2402
   25MOL   C158 6446   6.208   6.088   6.695 -0.6034 -0.0594 -0.4351
   25MOL   C159 6447   6.310   5.974   6.695 -0.5011  0.7297 -0.0768
   25MOL   C160 6448   6.384   5.921   6.567  1.0108 -0.2638  0.3507
   25MOL   C161 6449   6.452   5.999   6.670 -0.2548  0.0561  0.4927
   25MOL   C162 6450   6.221   6.188   6.815  0.7494  0.1289  0.0200
   25MOL   H163 6451   6.222   6.137   6.599  0.3378  0.9263  0.1865
   25MOL   H164 6452   6.284   5.892   6.762 -4.0142  0.8350 -1.1949
   25MOL   H165 6453   6.347   5.958   6.472 -0.6263 -1.2604  0.5689
   25MOL   H166 6454   6.391   5.813   6.557  0.1240 -0.1033 -2.1964
   25MOL   H167 6455   6.532   5.942   6.717  0.4919  1.6154  1.1537
   25MOL   H168 6456   6.475   6.105   6.656  1.2615 -0.3287 -0.0048
   25MOL   H169 6457   6.324   6.192   6.850  0.4448 -1.6619  1.2087
   25MOL   H170 6458   6.174   6.134   6.897  0.2395 -1.9378 -1.6001
   25MOL   C171 6459   6.158   6.334   6.810  0.1498 -0.2209  0.3543
   25MOL   C172 6460   6.158   6.398   6.951 -0.2138  0.3547  0.0645
   25MOL   C173 6461   6.036   6.438   7.029 -0.5740  0.2140  0.4975
   25MOL   C174 6462   6.121   6.323   7.077  0.1927  0.5592  1.2322
   25MOL   C175 6463   6.226   6.423   6.702 -0.6191 -0.1985  0.7000
   25MOL   H176 6464   6.058   6.316   6.771  0.9449 -0.6281 -1.5450
   25MOL   H177 6465   6.242   6.464   6.967  0.5902 -0.5474 -0.3640
   25MOL   H178 6466   6.040   6.540   7.066 -0.9568  0.0857  0.8973
   25MOL   H179 6467   5.941   6.422   6.979 -0.5121 -1.7430  0.9901
   25MOL   H180 6468   6.060   6.233   7.074  1.8420 -0.5253 -2.1174
   25MOL   H181 6469   6.183   6.342   7.163 -2.0067 -1.2812  3.2942
   25MOL   H182 6470   6.208   6.372   6.607 -1.1640 -1.0069  1.2306
   25MOL   H183 6471   6.334   6.429   6.719 -0.0761  0.3040 -2.5851
   25MOL   C184 6472   6.182   6.570   6.691 -0.3673 -0.4372 -0.5993
   25MOL   C185 6473   6.048   6.586   6.619 -0.3396  0.7164 -0.0708
   25MOL   C186 6474   5.957   6.704   6.628  0.5693 -0.8008  0.1138
   25MOL   C187 6475   5.914   6.575   6.694  0.0010 -0.1577  0.4673
   25MOL   C188 6476   6.274   6.646   6.597  0.0437 -0.2643  0.2188
   25MOL   H189 6477   6.170   6.606   6.793  0.9390  1.2898 -1.0237
   25MOL   H190 6478   6.043   6.527   6.527 -0.3069 -0.4969  0.7005
   25MOL   H191 6479   5.910   6.738   6.536  1.4454  0.8468  0.2523
   25MOL   H192 6480   5.995   6.783   6.692  1.9880 -1.4894  0.1349
   25MOL   H193 6481   5.829   6.530   6.644 -0.3152 -1.7066  2.3512
   25MOL   H194 6482   5.906   6.571   6.802  1.1509 -2.0381  0.5045
   25MOL   H195 6483   6.217   6.729   6.555 -1.6468 -1.1796  0.6592
   25MOL   H196 6484   6.291   6.579   6.513  0.3933 -1.3023  1.1074
   25MOL   C197 6485   6.413   6.685   6.654 -0.2230  0.4674  0.4707
   25MOL   C198 6486   6.396   6.770   6.778  0.6530  0.8047 -0.3463
   25MOL   C199 6487   6.516   6.795   6.861 -0.4859 -0.2690  0.0528
   25MOL   C200 6488   6.403   6.711   6.917 -0.0212 -0.1796  0.8605
   25MOL   C201 6489   6.489   6.767   6.554 -0.0870 -0.2024  0.2497
   25MOL   H202 6490   6.463   6.593   6.682  0.0632  0.6107  0.4277
   25MOL   H203 6491   6.319   6.847   6.772  0.8048  1.1125  1.5219
   25MOL   H204 6492   6.605   6.740   6.832 -0.2692 -0.0271  0.2584
   25MOL   H205 6493   6.537   6.881   6.924 -2.5416  0.0982  0.2568
   25MOL   H206 6494   6.430   6.606   6.924 -1.2210 -0.4897  0.8858
   25MOL   H207 6495   6.342   6.753   6.997 -2.2897  2.7469 -2.2537
   25MOL   H208 6496   6.424   6.814   6.480  1.0328  1.3607  0.2327
   25MOL   H209 6497   6.542   6.840   6.615  1.4176  0.0264 -1.2791
   25MOL   C210 6498   6.596   6.697   6.474  0.4995  0.2417 -0.1219
   25MOL   C211 6499   6.553   6.580   6.386 -0.2778 -0.5705  0.7277
   25MOL   C212 6500   6.651   6.475   6.357  0.4026  0.4015  0.2569
   25MOL   C213 6501   6.538   6.441   6.446 -0.2371  0.0482  0.0413
   25MOL   C214 6502   6.674   6.792   6.379 -0.4175  0.5924 -0.3194
   25MOL   H215 6503   6.665   6.660   6.550 -0.7441 -3.0875 -0.5018
   25MOL   H216 6504   6.484   6.605   6.306 -0.3812  0.6400  1.1890
   25MOL   H217 6505   6.648   6.460   6.249 -1.1191 -0.3299  0.3932
   25MOL   H218 6506   6.747   6.474   6.409  0.2015 -2.3150  0.6824
   25MOL   H219 6507   6.455   6.381   6.408  0.2311  1.0662 -2.6379
   25MOL   H220 6508   6.571   6.417   6.547  0.0595  0.6263  0.0853
   25MOL   H221 6509   6.760   6.733   6.348 -1.5171 -3.0137  2.9697
   25MOL   H222 6510   6.610   6.820   6.295 -2.8926 -0.9511  0.9827
   25MOL   C223 6511   6.722   6.928   6.434  0.0558  0.4400  0.1343
   25MOL   C224 6512   6.769   7.022   6.322 -0.1835  0.9536 -1.1387
   25MOL   C225 6513   6.671   7.096   6.236  0.7755  0.3300 -0.4259
   25MOL   C226 6514   6.754   7.172   6.331 -0.8832  0.3046 -0.6561
   25MOL   C227 6515   6.827   6.896   6.544  0.3666  0.0615 -0.5045
   25MOL   H228 6516   6.637   6.971   6.487  1.0484  1.4479  0.9454
   25MOL   H229 6517   6.857   6.989   6.267  0.7945  1.5903  0.0226
   25MOL   H230 6518   6.567   7.068   6.255  1.5383 -2.7224 -0.3526
   25MOL   H231 6519   6.701   7.094   6.131 -2.2565 -0.6092 -1.3490
   25MOL   H232 6520   6.843   7.228   6.301 -0.1088  0.4026  1.7003
   25MOL   H233 6521   6.709   7.195   6.427 -0.9752 -1.2636 -0.3080
   25MOL   H234 6522   6.791   6.822   6.616  1.3630  2.8090  2.9310
   25MOL   H235 6523   6.913   6.845   6.502  1.2312  1.1292 -0.0371
   25MOL   C236 6524   6.871   7.017   6.626  0.0416  0.6793  0.2869
   25MOL   C237 6525   6.998   6.985   6.703 -0.3094  0.2259 -0.1082
   25MOL   C238 6526   7.124   6.953   6.627 -0.2179 -0.3297 -1.0773
   25MOL   C239 6527   7.108   7.078   6.719  0.3250 -0.1803  0.4687
   25MOL   C240 6528   6.760   7.062   6.723  0.5902  0.3708 -0.1392
   25MOL   H241 6529   6.883   7.092   6.548  0.2003 -0.6112 -0.9531
   25MOL   H242 6530   6.984   6.927   6.794  3.5545 -0.3216  0.2108
   25MOL   H243 6531   7.183   6.866   6.654 -0.0929 -0.0840 -0.5546
   25MOL   H244 6532   7.113   6.966   6.520  2.0564  0.0312 -1.3074
   25MOL   H245 6533   7.103   7.175   6.670  2.1357 -0.6717 -0.7114
   25MOL   H246 6534   7.162   7.084   6.814 -0.3239  0.6339  0.7913
   25MOL   H247 6535   6.665   7.063   6.669  0.0665 -3.1348  0.6016
   25MOL   H248 6536   6.750   6.995   6.809  0.9220  0.0268 -0.3709
   25MOL   C249 6537   6.781   7.208   6.781 -0.6882  0.0791 -0.4846
   25MOL   C250 6538   6.669   7.238   6.878  0.5983  0.3000  0.2258
   25MOL   C251 6539   6.688   7.219   7.032  1.0989  0.0886 -0.2592
   25MOL   C252 6540   6.682   7.356   6.970 -0.0913 -0.1718 -0.0080
   25MOL   C253 6541   6.792   7.312   6.672 -0.1250  0.9135 -0.6976
   25MOL   H254 6542   6.877   7.215   6.833  0.2309 -0.5876 -2.0520
   25MOL   H255 6543   6.568   7.214   6.844  0.8001  0.1000 -0.2388
   25MOL   H256 6544   6.603   7.199   7.097 -0.5207  0.2361 -2.3061
   25MOL   H257 6545   6.786   7.196   7.075  0.3591 -1.6518  0.5527
   25MOL   H258 6546   6.593   7.417   6.983  2.3359  3.1640  1.4889
   25MOL   H259 6547   6.772   7.414   6.953  0.0262 -0.5177 -0.5609
   25MOL   H260 6548   6.788   7.408   6.723  1.6078  2.2096 -2.9277
   25MOL   H261 6549   6.705   7.303   6.606  0.2310 -0.1703 -1.0383
   25MOL   H262 6550   6.883   7.293   6.616 -0.0032 -0.5870 -0.0117
   26MOL     C1 6551   5.184   2.860   1.290 -0.9019  0.2421  0.2943
   26MOL     C2 6552   5.201   2.837   1.146 -0.5209  0.1170  0.1893
   26MOL     C3 6553   5.093   2.893   1.046  0.7646  0.2234  0.0897
   26MOL     C4 6554   5.109   2.747   1.076 -0.5657 -0.1239  0.2481
   26MOL     C5 6555   5.228   3.003   1.325 -0.1568 -0.5970 -1.0543
   26MOL     H6 6556   5.080   2.838   1.315 -1.1289  1.5553  0.5125
   26MOL     H7 6557   5.307   2.836   1.121  0.2915  0.7727  3.3518
   26MOL     H8 6558   5.014   2.946   1.099  1.8267  0.2495  1.6762
   26MOL     H9 6559   5.140   2.942   0.961 -1.1272 -0.9204 -1.6454
   26MOL    H10 6560   5.153   2.677   1.004  1.2558 -1.4469  2.5925
   26MOL    H11 6561   5.021   2.708   1.126 -0.4788 -0.9740 -0.2467
   26MOL    H12 6562   5.185   3.084   1.267  0.6295  0.8283  0.3129
   26MOL    H13 6563   5.336   3.009   1.312  0.0462 -0.0033  0.7188
   26MOL    H14 6564   5.246   2.790   1.346  0.2182  0.9976  0.0166
   26MOL    C15 6565   5.202   3.046   1.473  0.2940  0.1981 -0.8001
   26MOL    C16 6566   5.058   3.100   1.473 -0.0252  0.3611  0.0580
   26MOL    C17 6567   5.015   3.235   1.431 -0.0496 -1.4345 -0.1426
   26MOL    C18 6568   5.016   3.194   1.576  0.0463 -0.1907 -0.1907
   26MOL    C19 6569   5.235   2.937   1.577  0.6224 -0.7466 -0.0266
   26MOL    H20 6570   5.259   3.135   1.499  0.6519 -0.0353 -0.7815
   26MOL    H21 6571   4.986   3.019   1.458 -1.2424  1.5235 -0.4686
   26MOL    H22 6572   4.920   3.234   1.378  0.2894 -1.3839 -0.7528
   26MOL    H23 6573   5.089   3.310   1.403  1.0436 -3.7294 -3.7454
   26MOL    H24 6574   5.103   3.241   1.623 -0.0561 -0.2484  0.0557
   26MOL    H25 6575   4.922   3.169   1.624  0.5986 -1.1123  0.4259
   26MOL    H26 6576   5.179   2.848   1.549 -0.0392 -1.1560  2.4332
   26MOL    H27 6577   5.185   2.967   1.670  0.9044  3.2794 -1.0840
   26MOL    C28 6578   5.381   2.910   1.607 -0.0161  0.3721  0.0498
   26MOL    C29 6579   5.386   2.792   1.705  0.2946  0.0510 -0.1731
   26MOL    C30 6580   5.357   2.646   1.684 -0.7839  0.1885  0.2080
   26MOL    C31 6581   5.498   2.701   1.706 -0.4117 -0.0622 -0.5798
   26MOL    C32 6582   5.458   3.025   1.665 -0.2009 -0.1277  0.0332
   26MOL    H33 6583   5.421   2.867   1.515  0.3551 -0.2835  0.5134
   26MOL    H34 6584   5.362   2.833   1.803  0.2554  0.8155 -0.5021
   26MOL    H35 6585   5.324   2.617   1.584 -0.5241 -0.0568  0.1939
   26MOL    H36 6586   5.301   2.594   1.761 -1.2608 -0.2586 -0.4282
   26MOL    H37 6587   5.565   2.707   1.621  1.5922  0.7715  1.0247
   26MOL    H38 6588   5.547   2.704   1.803 -1.9542  0.7856  0.2071
   26MOL    H39 6589   5.533   2.985   1.733  0.0505 -0.8384 -0.6605
   26MOL    H40 6590   5.392   3.089   1.724 -0.8126  0.2237 -1.0199
   26MOL    C41 6591   5.540   3.117   1.567  0.4553 -0.8496  0.0864
   26MOL    C42 6592   5.663   3.055   1.504  0.2504 -0.1566 -0.2337
   26MOL    C43 6593   5.690   3.081   1.354  0.6462  0.9306 -0.1150
   26MOL    C44 6594   5.660   2.936   1.412  0.1519  0.7524 -0.2990
   26MOL    C45 6595   5.589   3.255   1.637  0.3565  0.4561  0.4491
   26MOL    H46 6596   5.476   3.151   1.487 -0.5053  1.9138  1.9667
   26MOL    H47 6597   5.748   3.043   1.571 -0.8593 -1.5767  0.9710
   26MOL    H48 6598   5.605   3.123   1.300  0.5614  0.5639 -0.2675
   26MOL    H49 6599   5.788   3.109   1.316  1.8182 -3.4562 -0.6068
   26MOL    H50 6600   5.745   2.868   1.418  0.2891  0.9721  0.3654
   26MOL    H51 6601   5.575   2.891   1.362 -1.1376  1.7868  0.8890
   26MOL    H52 6602   5.676   3.243   1.700  0.9056  0.0465 -0.3831
   26MOL    H53 6603   5.502   3.260   1.703  0.0740 -1.2437  0.2482
   26MOL    C54 6604   5.599   3.380   1.545 -0.1301  0.7929  0.1679
   26MOL    C55 6605   5.474   3.463   1.551 -0.3185 -0.6476 -0.3616
   26MOL    C56 6606   5.349   3.429   1.469 -0.0703  1.2217  0.1345
   26MOL    C57 6607   5.431   3.547   1.429  0.2579  0.5373 -0.5130
   26MOL    C58 6608   5.719   3.454   1.599  0.4218  0.1260  0.5466
   26MOL    H59 6609   5.622   3.347   1.443 -0.7084  2.4696 -0.5231
   26MOL    H60 6610   5.455   3.510   1.648 -2.3651 -0.2436 -0.9328
   26MOL    H61 6611   5.359   3.336   1.414  0.1474  0.8351  0.8260
   26MOL    H62 6612   5.249   3.447   1.508 -0.5296 -1.1238  0.0995
   26MOL    H63 6613   5.404   3.652   1.438 -2.6198 -0.1906 -0.1242
   26MOL    H64 6614   5.486   3.546   1.336 -1.4865 -0.2218 -1.5555
   26MOL    H65 6615   5.703   3.479   1.704  0.3415 -2.2926  1.1322
   26MOL    H66 6616   5.799   3.380   1.601  1.1692  0.9525  4.3205
   26MOL    C67 6617   5.774   3.574   1.513 -0.1275 -0.1437 -0.5984
   26MOL    C68 6618   5.895   3.651   1.577  0.0199  0.1589 -0.0947
   26MOL    C69 6619   5.932   3.646   1.730  0.4509  0.2088 -0.1878
   26MOL    C70 6620   6.017   3.581   1.625 -0.5807  0.6120  1.0824
   26MOL    C71 6621   5.807   3.540   1.369  0.2472  0.0111 -0.0450
   26MOL    H72 6622   5.695   3.649   1.506  0.8192  1.3120  3.0428
   26MOL    H73 6623   5.916   3.747   1.530 -0.4169  0.0659 -0.4762
   26MOL    H74 6624   5.980   3.729   1.783  1.1262  0.1085 -0.6397
   26MOL    H75 6625   5.878   3.582   1.798  3.3992 -1.1642  0.9696
   26MOL    H76 6626   6.020   3.473   1.612  0.1098  0.8289 -0.8287
   26MOL    H77 6627   6.111   3.632   1.605  0.0798 -0.6632  0.8802
   26MOL    H78 6628   5.719   3.495   1.322 -1.6098 -0.5157  3.7247
   26MOL    H79 6629   5.879   3.458   1.372  2.1198  1.6627  3.1442
   26MOL    C80 6630   5.855   3.655   1.273  0.0799 -0.1162  0.0642
   26MOL    C81 6631   5.735   3.754   1.263 -0.1557 -0.0698 -0.2000
   26MOL    C82 6632   5.758   3.894   1.214 -0.5026  0.3816  0.2791
   26MOL    C83 6633   5.698   3.870   1.350  0.0136 -0.3962  0.7471
   26MOL    C84 6634   5.884   3.604   1.130  0.4894  0.1509  0.2978
   26MOL    H85 6635   5.947   3.703   1.307  0.6715  0.2081 -1.8899
   26MOL    H86 6636   5.647   3.717   1.209 -0.1104  0.1139 -0.4024
   26MOL    H87 6637   5.704   3.925   1.125  0.6336 -0.8945 -0.8836
   26MOL    H88 6638   5.857   3.939   1.224 -1.5388  2.8049 -0.0265
   26MOL    H89 6639   5.756   3.891   1.440 -2.9132 -1.3032  2.9396
   26MOL    H90 6640   5.592   3.895   1.357  0.1417  0.7791 -1.2823
   26MOL    H91 6641   5.822   3.516   1.110 -1.2896  1.3097  0.5779
   26MOL    H92 6642   5.845   3.676   1.058 -2.1269 -3.0483 -1.6101
   26MOL    C93 6643   6.028   3.576   1.100  0.3166 -0.2930 -0.1986
   26MOL    C94 6644   6.090   3.465   1.188 -0.2365 -0.2013 -0.1110
   26MOL    C95 6645   6.238   3.434   1.191 -0.6702  0.6420 -0.1050
   26MOL    C96 6646   6.166   3.488   1.311 -0.1512 -0.2459  0.7438
   26MOL    C97 6647   6.031   3.517   0.957  0.2865 -0.3511  0.0154
   26MOL    H98 6648   6.089   3.666   1.099  0.8094 -0.6432 -1.9705
   26MOL    H99 6649   6.047   3.366   1.184  0.4204 -0.5404  0.9744
   26MOL   H100 6650   6.271   3.330   1.189  1.0109  1.1576 -0.0842
   26MOL   H101 6651   6.297   3.508   1.138 -1.6921  1.1482 -0.5544
   26MOL   H102 6652   6.133   3.426   1.393 -1.0646  1.4386  1.6777
   26MOL   H103 6653   6.169   3.592   1.343  1.4265  0.9851 -3.1069
   26MOL   H104 6654   5.973   3.425   0.945  1.0031 -0.9736  1.1845
   26MOL   H105 6655   6.135   3.489   0.943 -0.2440 -1.7527 -1.3231
   26MOL   C106 6656   5.989   3.610   0.832  0.3552 -0.1998  0.3121
   26MOL   C107 6657   6.085   3.731   0.819  0.6551  0.4440  0.1260
   26MOL   C108 6658   6.064   3.866   0.755  0.0785 -0.4523 -0.6822
   26MOL   C109 6659   6.060   3.855   0.904  0.7429 -0.0716 -0.2952
   26MOL   C110 6660   6.017   3.535   0.693 -0.1413  0.3404  0.5811
   26MOL   H111 6661   5.886   3.645   0.832  0.1049 -0.6776 -3.5272
   26MOL   H112 6662   6.189   3.701   0.807  0.8324 -0.3981  3.2206
   26MOL   H113 6663   6.141   3.932   0.715 -0.0242 -0.1943 -0.4552
   26MOL   H114 6664   5.974   3.883   0.696 -0.6816  2.4632  1.2098
   26MOL   H115 6665   5.964   3.863   0.954  1.4835 -0.8240  1.2886
   26MOL   H116 6666   6.149   3.876   0.964  0.5380  0.3863 -0.1568
   26MOL   H117 6667   6.005   3.593   0.602  0.5113 -1.1692 -0.4885
   26MOL   H118 6668   6.123   3.509   0.693 -0.1158  0.4464 -0.2453
   26MOL   C119 6669   5.942   3.404   0.665 -0.0512  0.2226 -0.6112
   26MOL   C120 6670   5.797   3.446   0.633 -0.2632  0.0515 -0.2821
   26MOL   C121 6671   5.694   3.483   0.736  0.1375  0.1826 -0.8900
   26MOL   C122 6672   5.680   3.353   0.657 -0.1376  0.4735  0.3425
   26MOL   C123 6673   6.003   3.331   0.549  0.0037 -0.2261 -0.2106
   26MOL   H124 6674   5.946   3.334   0.749 -0.0948 -0.4135 -1.1407
   26MOL   H125 6675   5.795   3.519   0.552 -3.6560  1.1703  0.7462
   26MOL   H126 6676   5.620   3.562   0.725  1.9086  1.8495 -1.0664
   26MOL   H127 6677   5.729   3.468   0.838 -0.8522  1.2106 -0.3862
   26MOL   H128 6678   5.698   3.256   0.705  1.5991  1.4909  1.8183
   26MOL   H129 6679   5.607   3.358   0.577 -0.8626 -0.6742  0.9197
   26MOL   H130 6680   5.937   3.252   0.512  0.2025 -0.0037 -1.0436
   26MOL   H131 6681   6.016   3.411   0.476 -1.3559  0.3397  0.1411
   26MOL   C132 6682   6.121   3.246   0.580 -0.3908  0.2414  0.1327
   26MOL   C133 6683   6.208   3.229   0.457  0.3043 -0.4536 -0.2302
   26MOL   C134 6684   6.272   3.346   0.386  0.0307 -0.0243  0.0508
   26MOL   C135 6685   6.161   3.262   0.320 -0.2646 -0.5856 -0.3634
   26MOL   C136 6686   6.095   3.113   0.655  0.1426 -0.9652  0.2884
   26MOL   H137 6687   6.172   3.309   0.653  0.0152  0.3532 -0.2544
   26MOL   H138 6688   6.283   3.151   0.471  1.3872  0.6845  0.3889
   26MOL   H139 6689   6.258   3.436   0.445 -2.9152 -0.9132  0.8060
   26MOL   H140 6690   6.372   3.334   0.345 -0.4650  2.5933 -2.0461
   26MOL   H141 6691   6.072   3.321   0.300 -0.3112 -0.2908  0.6846
   26MOL   H142 6692   6.189   3.197   0.237  1.0639  2.1927 -2.1495
   26MOL   H143 6693   6.012   3.128   0.724 -1.1140  2.2849 -1.7830
   26MOL   H144 6694   6.065   3.036   0.584  2.6537  1.9000 -4.1784
   26MOL   C145 6695   6.217   3.055   0.736  1.1777 -0.4786 -0.2323
   26MOL   C146 6696   6.251   3.154   0.843 -0.0729  0.1874  0.3570
   26MOL   C147 6697   6.378   3.151   0.925 -0.4547  0.3550 -0.0057
   26MOL   C148 6698   6.363   3.248   0.813  0.1454 -0.2426  0.2629
   26MOL   C149 6699   6.199   2.914   0.805  0.1840  0.1968 -0.9128
   26MOL   H150 6700   6.305   3.045   0.673  0.3636 -0.8265 -1.3452
   26MOL   H151 6701   6.163   3.196   0.891  0.5967  2.2149 -0.1199
   26MOL   H152 6702   6.372   3.199   1.022 -1.5375 -3.2051  1.7594
   26MOL   H153 6703   6.454   3.075   0.915 -2.1425 -1.5806  1.5071
   26MOL   H154 6704   6.428   3.236   0.726 -1.8580 -0.4904 -1.2335
   26MOL   H155 6705   6.340   3.352   0.835 -0.9034 -0.0619 -1.5771
   26MOL   H156 6706   6.194   2.844   0.722 -0.5723 -2.1331  1.0074
   26MOL   H157 6707   6.288   2.883   0.859 -0.3399 -2.1988 -1.3508
   26MOL   C158 6708   6.075   2.909   0.905 -0.6391  0.0111 -0.4591
   26MOL   C159 6709   6.134   2.872   1.040  0.0704  0.4682 -0.7795
   26MOL   C160 6710   6.168   2.987   1.136  0.0957  1.0095  0.7382
   26MOL   C161 6711   6.061   2.881   1.175  1.0159 -0.1608 -0.0964
   26MOL   C162 6712   5.974   2.806   0.857  0.0749  0.0362 -0.4707
   26MOL   H163 6713   6.025   3.004   0.924 -1.0595 -0.3708  0.3513
   26MOL   H164 6714   6.204   2.789   1.031  0.2495  0.6716 -1.2740
   26MOL   H165 6715   6.140   3.082   1.091 -2.1476  0.4201  0.8126
   26MOL   H166 6716   6.266   2.984   1.183 -0.3889 -2.7271  1.7226
   26MOL   H167 6717   6.091   2.807   1.249 -1.2657 -0.1642  0.8683
   26MOL   H168 6718   5.962   2.922   1.194  1.5918  1.2112 -0.0005
   26MOL   H169 6719   6.024   2.710   0.861  2.2325  1.0742 -1.6895
   26MOL   H170 6720   5.951   2.812   0.751 -1.7407  2.1681  0.0097
   26MOL   C171 6721   5.832   2.802   0.922 -0.4540  0.5979 -0.0604
   26MOL   C172 6722   5.754   2.928   0.889 -0.1334  0.0088  0.1316
   26MOL   C173 6723   5.634   2.973   0.965  0.0757  0.3337 -0.9352
   26MOL   C174 6724   5.765   3.057   0.966 -0.1402  0.2893  0.3166
   26MOL   C175 6725   5.758   2.669   0.886 -0.5336 -0.1897  0.4696
   26MOL   H176 6726   5.836   2.810   1.031  1.8544  0.1095 -0.0859
   26MOL   H177 6727   5.747   2.948   0.783 -0.8218 -2.5577 -0.3438
   26MOL   H178 6728   5.556   3.013   0.901  0.7416 -0.0193 -1.9754
   26MOL   H179 6729   5.618   2.932   1.064  0.2252  2.8699  0.1892
   26MOL   H180 6730   5.832   3.063   1.051  1.4571  0.3266 -0.9125
   26MOL   H181 6731   5.769   3.143   0.898  0.7991  0.8506  1.0710
   26MOL   H182 6732   5.842   2.600   0.876 -0.4484  0.0903 -0.8734
   26MOL   H183 6733   5.742   2.679   0.778  0.9608 -0.3581  0.2253
   26MOL   C184 6734   5.639   2.621   0.964  0.6906 -0.4146 -0.6721
   26MOL   C185 6735   5.677   2.569   1.098 -0.3533 -0.4129 -0.2102
   26MOL   C186 6736   5.586   2.576   1.215  0.5187 -0.0771  0.4648
   26MOL   C187 6737   5.715   2.649   1.215  0.2463 -0.6797 -0.5339
   26MOL   C188 6738   5.570   2.501   0.890 -0.6418 -0.0163 -0.7963
   26MOL   H189 6739   5.560   2.694   0.974  0.3562 -0.7687 -0.7038
   26MOL   H190 6740   5.736   2.478   1.082  0.0442 -0.1600 -0.2037
   26MOL   H191 6741   5.574   2.492   1.283 -2.2379  0.0287  0.1932
   26MOL   H192 6742   5.493   2.633   1.217  0.7098  0.2421  0.1105
   26MOL   H193 6743   5.805   2.617   1.268  0.0279  0.8020  0.7938
   26MOL   H194 6744   5.708   2.758   1.220 -0.9299 -0.7951  0.5733
   26MOL   H195 6745   5.501   2.454   0.961 -0.8421  2.7886  0.9525
   26MOL   H196 6746   5.642   2.422   0.869  0.8556  0.8880  0.7729
   26MOL   C197 6747   5.484   2.528   0.768 -0.1374  0.1259  0.2681
   26MOL   C198 6748   5.368   2.631   0.796  0.1512 -0.1563 -0.5380
   26MOL   C199 6749   5.294   2.711   0.697  0.1281  0.4187  0.5806
   26MOL   C200 6750   5.398   2.778   0.781 -0.1976 -1.3217 -0.0823
   26MOL   C201 6751   5.437   2.391   0.709  0.9896 -0.3827 -0.5210
   26MOL   H202 6752   5.554   2.581   0.702 -1.8418  1.7761 -0.2380
   26MOL   H203 6753   5.311   2.599   0.883 -0.0359  2.4404  0.3478
   26MOL   H204 6754   5.191   2.737   0.722  0.2434  2.3260 -0.8378
   26MOL   H205 6755   5.301   2.676   0.594  1.2206  1.3086  0.3420
   26MOL   H206 6756   5.489   2.801   0.726 -0.2198  0.9711  0.7713
   26MOL   H207 6757   5.381   2.844   0.865  1.5552  0.5885 -1.1680
   26MOL   H208 6758   5.519   2.322   0.730 -1.5483 -3.7120 -1.0166
   26MOL   H209 6759   5.351   2.355   0.766  2.4599 -0.9124  1.3946
   26MOL   C210 6760   5.413   2.399   0.555  1.0697  0.1348  0.3073
   26MOL   C211 6761   5.547   2.417   0.492  0.0287  0.4451  0.5978
   26MOL   C212 6762   5.572   2.441   0.348  0.3681 -0.2091  0.1241
   26MOL   C213 6763   5.597   2.558   0.438  0.3692  0.3378  0.1735
   26MOL   C214 6764   5.337   2.287   0.490 -0.2952 -0.0941 -0.4020
   26MOL   H215 6765   5.347   2.477   0.514  0.0996 -0.2479  1.1167
   26MOL   H216 6766   5.617   2.342   0.529 -0.4893 -1.4799 -2.2042
   26MOL   H217 6767   5.659   2.392   0.304  0.5528  0.6061 -0.4453
   26MOL   H218 6768   5.490   2.466   0.282  0.2660 -0.1109  0.2893
   26MOL   H219 6769   5.703   2.583   0.436  0.8301 -1.5634 -0.2968
   26MOL   H220 6770   5.526   2.640   0.451  0.0696 -0.0210  0.8107
   26MOL   H221 6771   5.333   2.307   0.383  0.1372  1.9547 -0.0553
   26MOL   H222 6772   5.401   2.199   0.491  0.0582  0.1520 -0.9365
   26MOL   C223 6773   5.197   2.248   0.555  0.1607 -0.5379 -0.3494
   26MOL   C224 6774   5.148   2.124   0.494 -0.5699  0.1976  0.3493
   26MOL   C225 6775   5.216   1.992   0.509 -0.4149  0.6573  0.7700
   26MOL   C226 6776   5.089   2.014   0.576  0.7375  0.4046  0.0051
   26MOL   C227 6777   5.083   2.358   0.544  0.3533 -0.0617  0.3649
   26MOL   H228 6778   5.214   2.226   0.660  0.1502 -2.3212 -0.6999
   26MOL   H229 6779   5.125   2.132   0.388  2.7632  1.3266 -0.3280
   26MOL   H230 6780   5.305   2.007   0.568 -0.4673 -0.7809  1.2477
   26MOL   H231 6781   5.231   1.938   0.415 -1.0855  0.5052  0.7451
   26MOL   H232 6782   4.994   1.985   0.530  1.2305 -2.6128  0.8067
   26MOL   H233 6783   5.090   2.015   0.685  0.9232  1.0753  0.0015
   26MOL   H234 6784   5.120   2.447   0.596 -0.6269 -0.0886  1.1340
   26MOL   H235 6785   5.044   2.373   0.444  1.1595 -0.5478 -0.0183
   26MOL   C236 6786   4.954   2.311   0.625  0.0967  1.0092 -0.2369
   26MOL   C237 6787   4.835   2.390   0.576 -0.1291  0.8302 -0.4486
   26MOL   C238 6788   4.771   2.363   0.441  0.4216 -1.1748 -0.4332
   26MOL   C239 6789   4.698   2.337   0.577  0.2382  0.0828  0.1731
   26MOL   C240 6790   4.975   2.340   0.782  0.0066  0.9150 -0.1422
   26MOL   H241 6791   4.932   2.207   0.601  2.2488  0.9569 -2.2152
   26MOL   H242 6792   4.849   2.496   0.596 -3.4899  0.9801  1.4503
   26MOL   H243 6793   4.738   2.451   0.387  1.3324 -0.0316  0.8442
   26MOL   H244 6794   4.799   2.275   0.384 -1.8332 -2.3516  0.1861
   26MOL   H245 6795   4.681   2.236   0.616  1.1900  0.0795  0.5989
   26MOL   H246 6796   4.615   2.402   0.606  1.9599  2.4485 -0.1134
   26MOL   H247 6797   5.071   2.306   0.821 -0.5071 -0.8225 -0.3378
   26MOL   H248 6798   4.970   2.448   0.796 -0.5908  1.0463 -1.3368
   26MOL   C249 6799   4.881   2.268   0.884  0.8592 -0.0270  0.4155
   26MOL   C250 6800   4.919   2.305   1.024  0.4362  0.0095 -0.2540
   26MOL   C251 6801   4.850   2.423   1.097  0.4068  0.0517  0.3489
   26MOL   C252 6802   4.835   2.283   1.146 -0.0403 -0.2139 -0.1501
   26MOL   C253 6803   4.875   2.113   0.879  0.2963 -0.8308  0.3239
   26MOL   H254 6804   4.783   2.313   0.866  0.8881  0.2257  0.8624
   26MOL   H255 6805   5.025   2.292   1.049 -0.3420 -1.5193  2.5077
   26MOL   H256 6806   4.916   2.488   1.153 -0.7610  0.7114  0.9636
   26MOL   H257 6807   4.778   2.468   1.029  1.4855  1.1255 -0.1052
   26MOL   H258 6808   4.880   2.265   1.243  0.6229 -0.2694 -0.4674
   26MOL   H259 6809   4.741   2.231   1.128 -1.0377  0.3855  3.0143
   26MOL   H260 6810   4.805   2.070   0.950 -0.5466 -0.0207  0.0016
   26MOL   H261 6811   4.966   2.059   0.905  0.4698 -0.2434  0.9574
   26MOL   H262 6812   4.847   2.075   0.780 -4.6287 -2.1810  2.1105
   27MOL     C1 6813   5.814   7.324   4.794 -0.1891 -0.5289 -0.2325
   27MOL     C2 6814   5.682   7.389   4.839  0.2577  0.0762 -0.5674
   27MOL     C3 6815   5.688   7.515   4.926 -0.0383 -0.5841 -0.3859
   27MOL     C4 6816   5.645   7.388   4.980  0.3757  0.2114 -0.1293
   27MOL     C5 6817   5.796   7.185   4.726  1.0141  0.0243  1.0369
   27MOL     H6 6818   5.861   7.395   4.726  0.3185 -0.8884 -0.2646
   27MOL     H7 6819   5.603   7.390   4.763  0.7122  0.3491 -1.0368
   27MOL     H8 6820   5.787   7.549   4.955 -0.4545 -0.4104  0.8312
   27MOL     H9 6821   5.624   7.597   4.894 -0.2273 -0.1847  1.0047
   27MOL    H10 6822   5.539   7.371   4.999  0.1114  0.3551 -1.4618
   27MOL    H11 6823   5.707   7.330   5.049  1.2276 -1.6538 -2.3953
   27MOL    H12 6824   5.709   7.191   4.662  1.5277 -0.8091  0.2538
   27MOL    H13 6825   5.766   7.119   4.807 -0.8941  1.5920  1.6461
   27MOL    H14 6826   5.872   7.303   4.884  0.7354 -1.8843 -1.1113
   27MOL    C15 6827   5.922   7.138   4.652  0.3003  0.1223 -0.5148
   27MOL    C16 6828   6.035   7.137   4.756  0.2481 -0.0746 -0.4524
   27MOL    C17 6829   6.119   7.008   4.770 -0.8148  0.0744 -0.4104
   27MOL    C18 6830   6.031   7.061   4.886 -0.1303 -0.2058 -0.4229
   27MOL    C19 6831   5.894   6.995   4.592  0.1119 -0.5758 -0.1402
   27MOL    H20 6832   5.949   7.209   4.573  3.0728 -0.2693  0.0250
   27MOL    H21 6833   6.089   7.231   4.753 -0.9737  0.6137 -2.8806
   27MOL    H22 6834   6.225   7.031   4.762 -1.2491  2.5394  0.6629
   27MOL    H23 6835   6.085   6.909   4.740 -1.1024 -0.6099  2.0622
   27MOL    H24 6836   5.934   7.014   4.900 -0.3970  0.2574 -0.6948
   27MOL    H25 6837   6.086   7.099   4.972 -0.2069 -0.0006 -0.4656
   27MOL    H26 6838   5.866   6.926   4.672 -3.1619 -0.8234 -1.4289
   27MOL    H27 6839   5.978   6.960   4.533 -1.2909 -0.4965 -2.2652
   27MOL    C28 6840   5.777   6.984   4.495  0.1977 -0.1489 -0.0538
   27MOL    C29 6841   5.792   6.851   4.413  0.1536  1.1411  0.0521
   27MOL    C30 6842   5.790   6.710   4.479 -0.4464 -0.2479 -0.5279
   27MOL    C31 6843   5.674   6.749   4.384 -0.8741 -0.6986  0.0953
   27MOL    C32 6844   5.768   7.105   4.405 -0.2350  0.5984  0.6356
   27MOL    H33 6845   5.682   6.977   4.549 -0.5185 -3.2392 -1.6245
   27MOL    H34 6846   5.875   6.855   4.343  0.7286 -1.3262  0.5518
   27MOL    H35 6847   5.776   6.717   4.587 -0.9306  0.5062 -0.6358
   27MOL    H36 6848   5.851   6.629   4.438 -1.4498 -0.6621 -1.2223
   27MOL    H37 6849   5.579   6.762   4.435 -0.0168  0.2974  1.4542
   27MOL    H38 6850   5.668   6.705   4.284  0.3957  0.7872 -0.6542
   27MOL    H39 6851   5.868   7.124   4.365  1.3790 -0.9832  3.7029
   27MOL    H40 6852   5.750   7.192   4.467 -0.2918  1.6299 -0.7908
   27MOL    C41 6853   5.656   7.105   4.298  0.2904  0.1537  0.1976
   27MOL    C42 6854   5.692   7.195   4.186 -0.8817 -0.4178 -0.1840
   27MOL    C43 6855   5.685   7.169   4.036 -0.5295 -0.4782 -0.0542
   27MOL    C44 6856   5.818   7.165   4.104 -0.1779 -0.4759 -0.4203
   27MOL    C45 6857   5.516   7.135   4.361  0.2000 -0.5933  0.9221
   27MOL    H46 6858   5.653   7.006   4.252 -2.4586  0.2713  0.0711
   27MOL    H47 6859   5.670   7.298   4.212  1.7638 -0.6042  3.1707
   27MOL    H48 6860   5.650   7.073   3.999  0.4854 -1.4423  1.4215
   27MOL    H49 6861   5.675   7.253   3.968 -1.0197 -0.0240  0.5676
   27MOL    H50 6862   5.875   7.246   4.059  1.0697 -0.7608  0.5979
   27MOL    H51 6863   5.876   7.074   4.117  0.9584  0.4159  0.9767
   27MOL    H52 6864   5.513   7.234   4.409  0.7788  0.0115 -0.2752
   27MOL    H53 6865   5.511   7.073   4.450 -0.4540 -1.1862  0.4718
   27MOL    C54 6866   5.385   7.100   4.277 -0.1825 -0.1361  0.2402
   27MOL    C55 6867   5.366   6.945   4.272 -0.6257 -0.3582 -0.1006
   27MOL    C56 6868   5.430   6.859   4.159 -0.2059  0.1944  0.0065
   27MOL    C57 6869   5.276   6.880   4.183  0.5081  0.1060  0.4332
   27MOL    C58 6870   5.262   7.167   4.341  0.5966 -0.6261  0.3698
   27MOL    H59 6871   5.396   7.133   4.174 -3.1926 -0.2961 -0.1771
   27MOL    H60 6872   5.371   6.904   4.373  0.2444 -0.8211 -0.3243
   27MOL    H61 6873   5.482   6.895   4.070 -0.1108 -0.9520 -0.4152
   27MOL    H62 6874   5.463   6.758   4.181 -0.8820  0.0286  0.2648
   27MOL    H63 6875   5.223   6.791   4.215  1.0394 -0.3325  0.1046
   27MOL    H64 6876   5.226   6.939   4.106  0.4461  1.0735  1.2084
   27MOL    H65 6877   5.166   7.128   4.307 -1.0852  3.2058  0.4101
   27MOL    H66 6878   5.239   7.144   4.445 -1.3842 -0.3709  0.0157
   27MOL    C67 6879   5.269   7.325   4.333  0.1558  0.1889  1.1216
   27MOL    C68 6880   5.262   7.381   4.190  0.0126 -0.1879 -0.3600
   27MOL    C69 6881   5.320   7.517   4.156 -0.3193  0.1572 -0.4656
   27MOL    C70 6882   5.384   7.389   4.105  0.2408 -1.0606  0.4067
   27MOL    C71 6883   5.152   7.387   4.405  0.6281 -0.2806 -0.1182
   27MOL    H72 6884   5.354   7.367   4.386 -1.3674  4.7180  0.2820
   27MOL    H73 6885   5.162   7.362   4.151  0.4702 -1.6275 -0.8719
   27MOL    H74 6886   5.254   7.573   4.091  1.4296  2.2455 -0.4828
   27MOL    H75 6887   5.367   7.568   4.240 -0.6077 -0.4997  0.1087
   27MOL    H76 6888   5.479   7.360   4.149  1.5956  1.8841 -0.4472
   27MOL    H77 6889   5.366   7.380   3.998  0.1222  0.1812  0.3191
   27MOL    H78 6890   5.066   7.319   4.397  0.0191  0.4482  0.1680
   27MOL    H79 6891   5.117   7.471   4.346 -2.2689 -0.4888  1.1716
   27MOL    C80 6892   5.175   7.436   4.551  0.1560  0.5792 -0.7363
   27MOL    C81 6893   5.239   7.333   4.641  0.0019  0.0725 -0.6045
   27MOL    C82 6894   5.318   7.379   4.766 -0.1033 -0.0503 -0.5052
   27MOL    C83 6895   5.390   7.320   4.645  0.7742 -0.5016 -0.2774
   27MOL    C84 6896   5.046   7.496   4.622  0.3629 -0.4839  0.0095
   27MOL    H85 6897   5.254   7.510   4.541  0.0602  0.9823  1.2232
   27MOL    H86 6898   5.190   7.236   4.649  0.1164  0.1368  1.1404
   27MOL    H87 6899   5.306   7.320   4.858  0.9480 -0.7451 -0.8043
   27MOL    H88 6900   5.312   7.485   4.786  1.4849  0.1975 -1.2543
   27MOL    H89 6901   5.454   7.396   4.600  2.7042 -2.0427 -0.2204
   27MOL    H90 6902   5.430   7.219   4.649 -0.7208 -1.2758 -3.3010
   27MOL    H91 6903   4.973   7.421   4.653  1.2243 -0.9307  0.9722
   27MOL    H92 6904   5.067   7.531   4.722  1.8237 -1.6377  0.1160
   27MOL    C93 6905   4.982   7.613   4.541 -0.1908  1.2090 -0.5148
   27MOL    C94 6906   4.857   7.556   4.463 -1.2514 -0.9482 -0.1442
   27MOL    C95 6907   4.767   7.637   4.373 -0.3511  0.3892  1.0078
   27MOL    C96 6908   4.860   7.543   4.308  0.4892 -0.3912 -0.3485
   27MOL    C97 6909   4.943   7.727   4.647  0.6143  0.3826 -0.1393
   27MOL    H98 6910   5.062   7.646   4.474  1.0988  2.4757  1.5982
   27MOL    H99 6911   4.804   7.479   4.519 -2.4588  0.4551  0.7022
   27MOL   H100 6912   4.661   7.614   4.386  0.0809 -1.8211  0.8766
   27MOL   H101 6913   4.779   7.745   4.368 -0.9338  0.5114  2.0743
   27MOL   H102 6914   4.807   7.465   4.253 -0.6429  0.4605 -0.4853
   27MOL   H103 6915   4.949   7.581   4.258  1.2504 -1.0454  0.4847
   27MOL   H104 6916   4.903   7.697   4.744 -1.9009  0.5149 -1.1186
   27MOL   H105 6917   4.859   7.777   4.599 -0.6075 -1.0049  0.5200
   27MOL   C106 6918   5.055   7.824   4.694 -0.3299 -0.9701  0.0979
   27MOL   C107 6919   5.144   0.052   4.588 -0.3822 -0.0849 -0.3778
   27MOL   C108 6920   5.272   0.114   4.639  0.6684 -0.3931 -0.0220
   27MOL   C109 6921   5.275   7.837   4.541  0.1865  0.0092  0.1919
   27MOL   C110 6922   4.999   0.090   4.795 -0.7194  0.2961 -0.3186
   27MOL   H111 6923   5.119   7.758   4.753  0.5974 -0.3078 -0.1483
   27MOL   H112 6924   5.087   0.099   4.508 -2.2150  0.1168  1.0287
   27MOL   H113 6925   5.311   0.205   4.594  3.4966 -0.7643  1.5919
   27MOL   H114 6926   5.316   0.091   4.735  0.2620  1.2331  0.5776
   27MOL   H115 6927   5.297   7.738   4.579 -0.6741 -0.8260 -1.4087
   27MOL   H116 6928   5.323   0.020   4.445 -0.8526 -2.2469 -0.8876
   27MOL   H117 6929   5.045   0.187   4.775 -0.4331  0.3276  0.4520
   27MOL   H118 6930   4.893   0.096   4.772 -0.8963 -2.2632 -0.3419
   27MOL   C119 6931   5.007   0.065   4.945 -0.2371 -0.2692  0.2164
   27MOL   C120 6932   5.152   0.099   4.995  0.3083  0.1703 -0.0655
   27MOL   C121 6933   5.249   7.816   4.998  0.0369 -0.0919 -0.5420
   27MOL   C122 6934   5.218   0.051   5.127 -0.2161  0.2713  0.5494
   27MOL   C123 6935   4.893   0.150   5.029  0.3170  0.4642  0.2243
   27MOL   H124 6936   4.986   7.799   4.963  0.8522 -0.3216  1.2607
   27MOL   H125 6937   5.183   0.200   4.967 -1.9276  0.9181 -0.0071
   27MOL   H126 6938   5.350   7.832   4.961  0.5301 -1.7832  0.0373
   27MOL   H127 6939   5.202   7.718   4.997 -1.9313  0.7969  1.1162
   27MOL   H128 6940   5.171   7.821   5.196 -1.6977  1.0558  0.3339
   27MOL   H129 6941   5.292   0.116   5.173 -0.5261  0.2937  1.0192
   27MOL   H130 6942   4.932   0.224   5.099 -0.3507  2.4037 -1.4082
   27MOL   H131 6943   4.847   0.222   4.961  0.8854 -1.0725 -1.8229
   27MOL   C132 6944   4.797   0.058   5.104  0.1258 -0.7291  0.5375
   27MOL   C133 6945   4.863   7.814   5.208 -0.0585  0.2802  0.3110
   27MOL   C134 6946   4.793   7.772   5.336 -0.1536 -0.0960 -0.2966
   27MOL   C135 6947   4.892   0.047   5.335  1.0260  0.2216  0.3544
   27MOL   C136 6948   4.684   7.820   5.026 -0.0905 -0.0144 -0.5115
   27MOL   H137 6949   4.740   0.129   5.162  1.2594  0.3047  0.4086
   27MOL   H138 6950   4.930   7.735   5.174 -1.8400 -1.0604 -0.1563
   27MOL   H139 6951   4.697   7.808   5.372  0.6403  0.8461  0.8918
   27MOL   H140 6952   4.831   7.691   5.397 -2.5895 -1.6739 -0.8107
   27MOL   H141 6953   4.837   0.140   5.348  1.5076  0.3147  1.8199
   27MOL   H142 6954   4.987   0.036   5.387  0.2146 -0.5306  1.7158
   27MOL   H143 6955   4.720   7.762   4.941 -1.6382  1.0829 -1.9220
   27MOL   H144 6956   4.634   7.746   5.090  0.4589 -1.0907 -1.3035
   27MOL   C145 6957   4.595   0.078   4.956  0.3389  0.6190  0.1820
   27MOL   C146 6958   4.515   7.838   4.851  0.0733 -0.4382 -0.0712
   27MOL   C147 6959   4.417   0.074   4.759 -0.6052  0.1302  0.1538
   27MOL   C148 6960   4.543   0.015   4.704 -0.5289 -0.0290  0.3220
   27MOL   C149 6961   4.494   0.140   5.054  0.3085  0.3046  0.0578
   27MOL   H150 6962   4.643   0.160   4.903 -0.3154  0.6907 -0.3091
   27MOL   H151 6963   4.482   7.741   4.888  0.7858 -0.1824  1.2968
   27MOL   H152 6964   4.321   0.023   4.755 -0.7688  0.3448  1.2622
   27MOL   H153 6965   4.412   0.182   4.744 -0.9070 -0.2159 -2.4917
   27MOL   H154 6966   4.631   0.077   4.686  0.0412 -1.1039 -0.6787
   27MOL   H155 6967   4.542   7.765   4.642  1.4725 -0.4963  0.9117
   27MOL   H156 6968   4.392   0.116   5.024  0.2137 -0.8311  1.2326
   27MOL   H157 6969   4.502   0.104   5.157  3.7527  1.1658  0.1455
   27MOL   C158 6970   4.510   0.292   5.081  0.8200 -0.1918  0.7414
   27MOL   C159 6971   4.433   0.332   5.210 -0.5615 -0.1743 -0.0535
   27MOL   C160 6972   4.489   0.325   5.355  0.0774  0.2130  0.9386
   27MOL   C161 6973   4.446   0.458   5.284  0.2015  0.1302 -0.2862
   27MOL   C162 6974   4.460   0.388   4.968 -0.1182  0.5837  0.5455
   27MOL   H163 6975   4.616   0.306   5.100  1.0376 -1.7324  0.7039
   27MOL   H164 6976   4.330   0.298   5.209 -2.1809  4.2828 -2.5436
   27MOL   H165 6977   4.594   0.311   5.378 -0.1236 -0.0815  1.6935
   27MOL   H166 6978   4.424   0.274   5.425  0.7395 -0.1886  1.2579
   27MOL   H167 6979   4.351   0.510   5.299  0.0655  0.3670 -1.8589
   27MOL   H168 6980   4.527   0.527   5.265  0.2372  0.6504  1.7171
   27MOL   H169 6981   4.351   0.380   4.969 -0.0993  0.3028  0.5489
   27MOL   H170 6982   4.491   0.348   4.871  0.8025  2.6661 -0.0344
   27MOL   C171 6983   4.501   0.536   4.968 -0.2573  0.4426  0.0040
   27MOL   C172 6984   4.639   0.542   4.902  0.0875 -0.0475 -0.2179
   27MOL   C173 6985   4.745   0.638   4.936  0.0289  0.8352 -0.2453
   27MOL   C174 6986   4.756   0.504   5.000  0.0226  0.3456  0.6314
   27MOL   C175 6987   4.406   0.625   4.892 -0.0993  0.5809  0.1985
   27MOL   H176 6988   4.520   0.568   5.071  0.0914  0.6553 -0.1268
   27MOL   H177 6989   4.640   0.523   4.795  2.0595 -0.6706 -0.1091
   27MOL   H178 6990   4.822   0.661   4.863  1.4416  1.1985  1.3104
   27MOL   H179 6991   4.738   0.713   5.015 -1.2270 -0.0879  0.5369
   27MOL   H180 6992   4.749   0.494   5.108 -0.3868 -1.7782  0.4281
   27MOL   H181 6993   4.844   0.448   4.968  0.6656  0.2700  2.4769
   27MOL   H182 6994   4.347   0.563   4.825  2.0249  0.7894 -1.9328
   27MOL   H183 6995   4.467   0.697   4.838 -0.5388  1.1714  0.4898
   27MOL   C184 6996   4.303   0.697   4.983  0.2644  0.1999  0.1547
   27MOL   C185 6997   4.167   0.636   4.966  0.5783 -0.1825 -0.3772
   27MOL   C186 6998   4.059   0.641   5.084  0.2504 -0.1281  0.5387
   27MOL   C187 6999   4.124   0.510   5.031 -0.4333 -0.0279  0.0922
   27MOL   C188 7000   4.285   0.850   4.966  0.8419  0.1865  0.1638
   27MOL   H189 7001   4.336   0.685   5.087 -1.8168 -2.1024  0.5917
   27MOL   H190 7002   4.122   0.658   4.870 -0.2294  1.0904  0.2760
   27MOL   H191 7003   3.957   0.668   5.059  0.9425  0.2949 -1.9549
   27MOL   H192 7004   4.089   0.685   5.179 -2.1652 -1.9371  2.2015
   27MOL   H193 7005   4.058   0.445   4.974  0.0354  1.2897 -1.9740
   27MOL   H194 7006   4.193   0.470   5.106 -1.3009  2.2299  2.1626
   27MOL   H195 7007   4.192   0.878   5.017  0.2433 -1.0183 -0.2407
   27MOL   H196 7008   4.270   0.864   4.859  1.3390  0.3155  0.1145
   27MOL   C197 7009   4.406   0.938   5.012 -0.1718  0.2610  0.2548
   27MOL   C198 7010   4.419   0.951   5.168  0.7128 -0.1966  1.0437
   27MOL   C199 7011   4.331   0.885   5.267  0.2568 -0.4925 -0.0724
   27MOL   C200 7012   4.320   1.031   5.252  0.8338 -0.0996 -0.2391
   27MOL   C201 7013   4.406   1.075   4.944  0.5613 -0.2552  0.2730
   27MOL   H202 7014   4.498   0.893   4.976  0.0582  0.6721  0.3378
   27MOL   H203 7015   4.522   0.970   5.194  1.6518 -3.8768  0.2602
   27MOL   H204 7016   4.243   0.827   5.241 -0.3746 -0.5139  1.9670
   27MOL   H205 7017   4.374   0.860   5.364  1.2677 -1.3258 -0.7234
   27MOL   H206 7018   4.234   1.064   5.194 -0.0326  0.3432  1.2908
   27MOL   H207 7019   4.350   1.093   5.336  2.6901 -2.0156  0.5653
   27MOL   H208 7020   4.307   1.120   4.949  1.0046  1.1344 -2.4573
   27MOL   H209 7021   4.467   1.136   5.012 -1.8577  0.4159  1.9355
   27MOL   C210 7022   4.457   1.098   4.797  0.6977 -0.2121  0.4510
   27MOL   C211 7023   4.601   1.058   4.786  0.4583 -0.2183 -0.8153
   27MOL   C212 7024   4.705   1.133   4.713 -0.1502  0.3622  0.0949
   27MOL   C213 7025   4.705   1.139   4.861 -0.2484 -0.4825 -0.0355
   27MOL   C214 7026   4.378   1.048   4.682 -0.2680  0.1449  0.1192
   27MOL   H215 7027   4.455   1.205   4.780 -3.2809 -0.2941  0.0141
   27MOL   H216 7028   4.614   0.950   4.785 -0.8268 -0.3784 -1.3981
   27MOL   H217 7029   4.786   1.076   4.669 -1.3129 -0.2560 -1.3045
   27MOL   H218 7030   4.684   1.232   4.674  0.8613 -0.0406 -1.5601
   27MOL   H219 7031   4.785   1.081   4.907 -0.2215  0.6546  1.3852
   27MOL   H220 7032   4.666   1.221   4.921 -1.4056 -0.0868 -1.2930
   27MOL   H221 7033   4.430   1.101   4.602  1.5805 -3.0804 -0.9132
   27MOL   H222 7034   4.402   0.942   4.680 -1.8123 -0.2040 -0.4395
   27MOL   C223 7035   4.233   1.080   4.667 -0.5247  0.2712 -0.2594
   27MOL   C224 7036   4.170   1.020   4.542 -0.6827 -0.1147  0.1244
   27MOL   C225 7037   4.162   0.874   4.506  0.5134 -0.6281  0.1118
   27MOL   C226 7038   4.034   0.958   4.542 -0.5131 -0.2940  0.2591
   27MOL   C227 7039   4.191   1.230   4.695  0.1644  0.0869 -0.1760
   27MOL   H228 7040   4.176   1.026   4.744  1.8542 -0.3620  1.1113
   27MOL   H229 7041   4.191   1.076   4.451 -1.3972 -2.6094 -1.6395
   27MOL   H230 7042   4.193   0.799   4.578  0.9359  0.2343  0.8507
   27MOL   H231 7043   4.191   0.861   4.402 -1.0489 -2.3493 -0.1259
   27MOL   H232 7044   3.965   0.957   4.458  0.8749 -0.4860 -0.8925
   27MOL   H233 7045   3.978   0.953   4.636 -1.7537  1.1549 -0.3780
   27MOL   H234 7046   4.259   1.280   4.764  0.5958 -0.3151 -0.3062
   27MOL   H235 7047   4.197   1.291   4.605 -3.5529 -1.1950 -1.3877
   27MOL   C236 7048   4.047   1.250   4.754 -0.6095 -0.3381 -0.0185
   27MOL   C237 7049   3.984   1.390   4.730  0.5303 -1.1502 -0.1245
   27MOL   C238 7050   3.955   1.438   4.597  0.3900  0.3393 -0.0520
   27MOL   C239 7051   3.842   1.418   4.696  0.2874 -0.4874  0.2002
   27MOL   C240 7052   4.047   1.215   4.903  0.6168 -0.1106  0.5319
   27MOL   H241 7053   3.979   1.180   4.704 -0.7920 -0.4273  0.3552
   27MOL   H242 7054   4.010   1.464   4.806 -1.0146 -0.5812 -0.1391
   27MOL   H243 7055   3.996   1.537   4.579 -2.1523  1.8482  2.1061
   27MOL   H244 7056   3.958   1.378   4.506 -1.3485  0.8332 -0.4685
   27MOL   H245 7057   3.774   1.333   4.687 -2.0612  1.1598  1.9576
   27MOL   H246 7058   3.792   1.509   4.725  1.6646  0.4919 -0.4459
   27MOL   H247 7059   4.092   1.117   4.919  1.7360  0.1887 -0.7114
   27MOL   H248 7060   4.107   1.278   4.968  0.8784  0.7533 -0.5304
   27MOL   C249 7061   3.910   1.203   4.974  1.1219  0.3573  0.0922
   27MOL   C250 7062   3.934   1.183   5.124 -0.7347 -0.1160  0.2128
   27MOL   C251 7063   3.979   1.284   5.233  0.0899 -0.8960  0.1247
   27MOL   C252 7064   3.846   1.219   5.237  1.2438 -0.5537 -0.3458
   27MOL   C253 7065   3.821   1.090   4.921 -0.3096 -0.7255 -0.1364
   27MOL   H254 7066   3.852   1.294   4.962 -0.6706 -0.7804  0.0122
   27MOL   H255 7067   3.987   1.088   5.133 -2.2305 -1.0514 -0.7502
   27MOL   H256 7068   4.068   1.248   5.284 -0.5466  0.5618  2.3543
   27MOL   H257 7069   3.975   1.391   5.213 -0.0844 -0.9149  0.0656
   27MOL   H258 7070   3.836   1.151   5.322  0.4111  0.0922  0.0895
   27MOL   H259 7071   3.762   1.280   5.202  2.1764  1.0455  0.1508
   27MOL   H260 7072   3.862   0.990   4.931 -0.7723 -0.8737  0.2451
   27MOL   H261 7073   3.786   1.111   4.820 -1.5582 -0.2073  0.4005
   27MOL   H262 7074   3.730   1.096   4.980 -0.7016  3.0580 -0.9668
   28MOL     C1 7075   3.485   2.815   1.789  0.5632  0.8340 -0.9587
   28MOL     C2 7076   3.573   2.788   1.669  0.2344  0.2969  0.1762
   28MOL     C3 7077   3.647   2.656   1.625 -0.0227  0.3087  0.4902
   28MOL     C4 7078   3.718   2.768   1.698 -0.0812  0.0135 -0.4437
   28MOL     C5 7079   3.341   2.787   1.763 -0.0084  0.1264 -0.0089
   28MOL     H6 7080   3.530   2.762   1.874  1.2162  1.1930 -1.0784
   28MOL     H7 7081   3.553   2.858   1.587  0.6259 -0.1201 -0.2738
   28MOL     H8 7082   3.639   2.564   1.681  0.7387 -0.0930 -0.0536
   28MOL     H9 7083   3.687   2.638   1.525 -1.1727  1.7930 -0.2746
   28MOL    H10 7084   3.788   2.819   1.633  2.3251 -1.5918  0.8037
   28MOL    H11 7085   3.738   2.743   1.802  0.8916 -0.7304 -0.7955
   28MOL    H12 7086   3.324   2.680   1.751 -1.9230  0.4321 -0.1428
   28MOL    H13 7087   3.304   2.833   1.672 -1.9838  0.0921  0.7545
   28MOL    H14 7088   3.501   2.921   1.804  0.1794  0.7016  0.4694
   28MOL    C15 7089   3.253   2.844   1.882  0.4466  0.1492 -0.2933
   28MOL    C16 7090   3.275   2.992   1.914  0.1242 -0.1673  0.4826
   28MOL    C17 7091   3.382   3.029   2.019 -0.0177 -0.0464  0.1202
   28MOL    C18 7092   3.229   3.053   2.040 -0.2838  0.6715 -0.1136
   28MOL    C19 7093   3.103   2.820   1.863  0.4944  0.1794 -0.4471
   28MOL    H20 7094   3.287   2.794   1.973  1.5145  0.7347 -0.3682
   28MOL    H21 7095   3.274   3.061   1.829 -1.3817 -1.5846 -0.6884
   28MOL    H22 7096   3.434   3.124   2.007 -1.6629  0.8190 -0.3943
   28MOL    H23 7097   3.427   2.954   2.084  0.5870 -0.1261 -0.3792
   28MOL    H24 7098   3.172   2.975   2.089  0.5574 -0.2539 -0.5959
   28MOL    H25 7099   3.203   3.158   2.050  0.0488  0.8390 -0.9966
   28MOL    H26 7100   3.077   2.858   1.764  0.7076  0.2798 -0.4637
   28MOL    H27 7101   3.039   2.878   1.929 -1.2272  0.1440 -2.0344
   28MOL    C28 7102   3.054   2.677   1.874  0.2374  0.5479  1.0637
   28MOL    C29 7103   2.909   2.675   1.823  0.3494  0.6654  0.1213
   28MOL    C30 7104   2.879   2.681   1.674 -0.4602 -0.2400  0.3771
   28MOL    C31 7105   2.857   2.556   1.745 -0.2908  0.0385 -0.0682
   28MOL    C32 7106   3.078   2.618   2.021  0.0066  0.5420 -0.2814
   28MOL    H33 7107   3.106   2.612   1.804 -3.2120  0.9722 -2.0228
   28MOL    H34 7108   2.837   2.731   1.883 -0.5725 -0.5819  0.1996
   28MOL    H35 7109   2.972   2.698   1.621 -0.7780 -0.0827 -0.1335
   28MOL    H36 7110   2.804   2.754   1.647  0.3347  0.3036 -0.3814
   28MOL    H37 7111   2.933   2.479   1.735  0.1565  0.3007  1.2034
   28MOL    H38 7112   2.758   2.518   1.771 -0.7880 -0.0537 -2.0462
   28MOL    H39 7113   3.018   2.682   2.085 -0.3428 -1.5568  1.5561
   28MOL    H40 7114   3.184   2.617   2.047  0.1350  0.5088 -0.7960
   28MOL    C41 7115   3.030   2.468   2.033  0.1428 -0.1718 -0.4826
   28MOL    C42 7116   2.974   2.447   2.179  0.3460  0.0178 -0.2147
   28MOL    C43 7117   2.864   2.345   2.196 -0.4624 -0.4606  0.2430
   28MOL    C44 7118   2.834   2.485   2.220  0.3785  0.3122 -0.7270
   28MOL    C45 7119   3.151   2.363   2.023 -0.4141  0.0158 -0.0238
   28MOL    H46 7120   2.955   2.445   1.958  1.0015  0.2340 -1.4660
   28MOL    H47 7121   3.042   2.470   2.260  1.8420 -0.6930 -1.2448
   28MOL    H48 7122   2.845   2.304   2.097 -0.5980  1.1188 -0.3932
   28MOL    H49 7123   2.873   2.280   2.283  0.2005  1.2669  1.4818
   28MOL    H50 7124   2.815   2.520   2.322  0.7131 -1.8494  0.1047
   28MOL    H51 7125   2.767   2.533   2.149 -0.8204 -1.7029 -0.9860
   28MOL    H52 7126   3.108   2.265   2.046 -1.5220  0.0915 -1.6457
   28MOL    H53 7127   3.225   2.388   2.099  1.2757 -3.1919 -0.5130
   28MOL    C54 7128   3.231   2.350   1.896 -0.2525 -0.3021  0.3433
   28MOL    C55 7129   3.377   2.289   1.913 -0.4445  0.2806 -0.3962
   28MOL    C56 7130   3.480   2.367   1.990 -0.1862  0.2879  0.1044
   28MOL    C57 7131   3.494   2.342   1.835  0.4868 -0.5503 -0.0681
   28MOL    C58 7132   3.152   2.274   1.787  0.0663  0.2665  0.0200
   28MOL    H59 7133   3.254   2.449   1.857  1.2883 -0.2926  1.2543
   28MOL    H60 7134   3.372   2.181   1.922  0.9762  0.1548 -1.0518
   28MOL    H61 7135   3.441   2.464   2.018  0.9635  0.4607  1.1248
   28MOL    H62 7136   3.549   2.316   2.056 -1.1434  0.5554  1.3384
   28MOL    H63 7137   3.588   2.290   1.819  1.3812 -0.1108  3.4844
   28MOL    H64 7138   3.470   2.428   1.772  2.6838 -0.4300 -0.7967
   28MOL    H65 7139   3.152   2.172   1.826 -0.0875  1.0126  2.0664
   28MOL    H66 7140   3.046   2.299   1.788 -0.5479 -2.2086 -1.6380
   28MOL    C67 7141   3.205   2.266   1.642  0.0098 -0.6835  0.1547
   28MOL    C68 7142   3.130   2.155   1.568 -0.5729 -0.0326  0.4275
   28MOL    C69 7143   3.199   2.068   1.462 -0.0864 -0.3454 -0.1713
   28MOL    C70 7144   3.158   2.008   1.592 -0.0337 -0.1172  0.1209
   28MOL    C71 7145   3.181   2.407   1.578  0.0295 -1.0392  0.2716
   28MOL    H72 7146   3.311   2.242   1.649  0.2712  0.6529  0.8878
   28MOL    H73 7147   3.030   2.178   1.533  0.7287  1.5624 -2.3412
   28MOL    H74 7148   3.140   2.041   1.375 -1.1177 -0.2359  0.4788
   28MOL    H75 7149   3.303   2.086   1.434  0.0233 -0.8753 -0.1094
   28MOL    H76 7150   3.250   1.979   1.643  1.6640  2.7622 -1.2290
   28MOL    H77 7151   3.082   1.930   1.585  1.5276 -1.5627 -1.1668
   28MOL    H78 7152   3.241   2.483   1.629 -1.0149  0.6398 -0.9532
   28MOL    H79 7153   3.078   2.443   1.581  0.2709 -0.2743 -0.3421
   28MOL    C80 7154   3.239   2.426   1.437  0.0590  0.3940  0.2806
   28MOL    C81 7155   3.391   2.451   1.443 -0.0409 -0.5597  0.0465
   28MOL    C82 7156   3.479   2.433   1.329 -0.0128 -0.7206 -0.1786
   28MOL    C83 7157   3.494   2.345   1.455 -0.0104  0.1260 -0.6442
   28MOL    C84 7158   3.171   2.552   1.372 -0.6144 -0.0255 -0.6270
   28MOL    H85 7159   3.217   2.346   1.366  0.3124  1.1917 -0.7168
   28MOL    H86 7160   3.413   2.542   1.498 -0.9627 -1.2196  1.5270
   28MOL    H87 7161   3.553   2.513   1.323  0.1025 -0.7643  0.6283
   28MOL    H88 7162   3.436   2.396   1.236  0.0011  0.0159 -0.4826
   28MOL    H89 7163   3.453   2.245   1.468 -2.2671  0.9761 -0.9086
   28MOL    H90 7164   3.564   2.374   1.533 -0.2792  0.8183 -0.6539
   28MOL    H91 7165   3.145   2.619   1.454 -0.2215 -0.5591 -0.0543
   28MOL    H92 7166   3.239   2.613   1.314 -1.1311 -0.4983 -1.7462
   28MOL    C93 7167   3.055   2.516   1.281  0.9269  0.0415  0.4661
   28MOL    C94 7168   2.960   2.405   1.326  0.0495 -0.0054  0.5672
   28MOL    C95 7169   2.835   2.419   1.404 -0.0309  0.7319  0.1677
   28MOL    C96 7170   2.823   2.376   1.260 -0.2620  0.3969 -0.4094
   28MOL    C97 7171   2.980   2.643   1.241  0.1069 -0.2208  0.5582
   28MOL    H98 7172   3.098   2.466   1.194 -1.9405 -0.4186 -0.7473
   28MOL    H99 7173   3.019   2.316   1.347  0.9372  0.1663 -1.1012
   28MOL   H100 7174   2.835   2.348   1.486 -1.9910  2.5280  1.7834
   28MOL   H101 7175   2.811   2.521   1.433 -1.1724 -0.3835  3.4449
   28MOL   H102 7176   2.788   2.274   1.254  1.2793 -0.1391 -0.4643
   28MOL   H103 7177   2.783   2.448   1.189 -0.6514 -1.9796 -2.6207
   28MOL   H104 7178   2.950   2.697   1.331  0.9171  0.3392  0.4991
   28MOL   H105 7179   2.885   2.616   1.195  0.9731  0.6967 -1.8050
   28MOL   C106 7180   3.049   2.743   1.148 -0.5171 -0.4392  0.3312
   28MOL   C107 7181   3.091   2.687   1.020  0.0553  0.4681  0.2101
   28MOL   C108 7182   3.182   2.754   0.927 -0.4454  0.0576 -0.2106
   28MOL   C109 7183   3.228   2.623   0.990 -0.0644 -0.6530 -0.2575
   28MOL   C110 7184   2.984   2.883   1.129 -0.1177  0.4261 -0.2502
   28MOL   H111 7185   3.148   2.775   1.183 -0.1036  1.2428 -2.1932
   28MOL   H112 7186   3.009   2.633   0.974  0.5776 -0.6974  0.6223
   28MOL   H113 7187   3.171   2.753   0.818  2.5764 -0.8252 -0.5762
   28MOL   H114 7188   3.233   2.844   0.960  0.6516 -0.6922  0.1788
   28MOL   H115 7189   3.316   2.644   1.050 -1.0010  0.4167  0.7704
   28MOL   H116 7190   3.241   2.529   0.937 -0.3166 -0.3602 -0.8532
   28MOL   H117 7191   3.041   2.934   1.050  1.2480  1.2788  1.2549
   28MOL   H118 7192   2.890   2.863   1.078  0.1456  0.7399 -0.8666
   28MOL   C119 7193   2.972   2.985   1.246  0.1165  0.3939  0.1275
   28MOL   C120 7194   2.840   2.958   1.329  0.0208  0.4259  0.2176
   28MOL   C121 7195   2.713   2.977   1.253 -0.3137  0.3933 -0.0527
   28MOL   C122 7196   2.741   3.071   1.369 -0.0473 -1.5825  0.4876
   28MOL   C123 7197   3.098   2.993   1.331  0.2096 -0.3900 -0.0205
   28MOL   H124 7198   2.948   3.080   1.199 -1.1321 -0.2606 -0.5757
   28MOL   H125 7199   2.842   2.867   1.389 -0.4840 -0.1569 -0.6298
   28MOL   H126 7200   2.636   2.901   1.259  0.0839  0.0291  0.4547
   28MOL   H127 7201   2.702   3.034   1.161  1.0952 -0.8267 -0.9830
   28MOL   H128 7202   2.760   3.175   1.340 -2.5449 -1.0420  0.6038
   28MOL   H129 7203   2.681   3.056   1.459 -2.2057  2.2575 -0.1974
   28MOL   H130 7204   3.078   3.055   1.418  1.4057 -1.3984  0.9862
   28MOL   H131 7205   3.117   2.894   1.374  0.8451 -1.4372 -2.6060
   28MOL   C132 7206   3.222   3.045   1.255  0.8950  0.3271 -0.3552
   28MOL   C133 7207   3.344   3.012   1.337 -0.0247  0.2134  0.0578
   28MOL   C134 7208   3.475   2.983   1.278  0.0431 -0.3603 -0.0423
   28MOL   C135 7209   3.395   2.872   1.323 -0.6228 -0.0681 -0.3220
   28MOL   C136 7210   3.218   3.197   1.242  0.3150 -0.4096 -0.3080
   28MOL   H137 7211   3.235   3.000   1.156  2.1339 -1.0658  0.4279
   28MOL   H138 7212   3.337   3.049   1.439 -0.3553 -0.8709  0.4278
   28MOL   H139 7213   3.479   2.993   1.170  1.7652  1.6932  0.1517
   28MOL   H140 7214   3.554   3.029   1.338  0.0353  0.9756 -1.0229
   28MOL   H141 7215   3.355   2.803   1.248  1.4914  0.2439 -1.7851
   28MOL   H142 7216   3.415   2.834   1.423  3.2718  0.6933 -0.7293
   28MOL   H143 7217   3.126   3.233   1.194  0.9062 -1.8881 -2.6487
   28MOL   H144 7218   3.225   3.243   1.340  0.2849 -0.2534 -0.3787
   28MOL   C145 7219   3.328   3.270   1.163 -0.0582 -0.0630 -0.6035
   28MOL   C146 7220   3.307   3.254   1.012 -0.1226 -0.3839  1.0002
   28MOL   C147 7221   3.426   3.255   0.916  0.6456  0.7509  0.3225
   28MOL   C148 7222   3.336   3.132   0.926  0.1745  0.8331 -0.0972
   28MOL   C149 7223   3.346   3.412   1.210 -0.0192 -0.1401  0.4563
   28MOL   H150 7224   3.422   3.219   1.185  0.6229 -0.1145 -3.4429
   28MOL   H151 7225   3.215   3.306   0.986  1.4005  0.6904 -2.5312
   28MOL   H152 7226   3.418   3.342   0.851  1.2911  0.0948 -0.6566
   28MOL   H153 7227   3.527   3.227   0.946 -0.1981  0.1144  2.6835
   28MOL   H154 7228   3.362   3.045   0.986 -1.1204  0.1149 -0.5497
   28MOL   H155 7229   3.263   3.108   0.849 -0.5905 -0.8993  1.1162
   28MOL   H156 7230   3.250   3.455   1.179  1.3590  3.6450  1.1836
   28MOL   H157 7231   3.339   3.424   1.318  0.0871  0.3054  0.4158
   28MOL   C158 7232   3.472   3.489   1.155 -0.5612  0.8070  0.1231
   28MOL   C159 7233   3.549   3.547   1.273 -0.4507  0.5032 -0.6549
   28MOL   C160 7234   3.598   3.455   1.383  0.5386  0.6191  0.6355
   28MOL   C161 7235   3.694   3.522   1.289 -0.1831 -0.0976  0.1968
   28MOL   C162 7236   3.418   3.587   1.047  0.1049  0.1342 -0.5270
   28MOL   H163 7237   3.529   3.404   1.118 -1.4274  0.5511 -0.6410
   28MOL   H164 7238   3.529   3.649   1.305  1.7105  0.5867  0.5696
   28MOL   H165 7239   3.552   3.356   1.385 -0.2818  1.0028  1.4723
   28MOL   H166 7240   3.601   3.493   1.485  0.2350 -1.0078  1.2634
   28MOL   H167 7241   3.762   3.599   1.327 -2.2912  2.1107 -0.3251
   28MOL   H168 7242   3.741   3.465   1.211  2.7388 -0.6609  2.2905
   28MOL   H169 7243   3.349   3.654   1.099 -1.3076 -1.8730  0.2543
   28MOL   H170 7244   3.369   3.531   0.968  0.8884  0.0843 -0.9772
   28MOL   C171 7245   3.518   3.677   0.975  0.7065  0.2677 -0.4115
   28MOL   C172 7246   3.593   3.599   0.875  0.2810 -0.2770  0.0505
   28MOL   C173 7247   3.718   3.642   0.809  0.1002  0.2578 -0.0769
   28MOL   C174 7248   3.713   3.514   0.898  0.4863 -0.2251  0.3039
   28MOL   C175 7249   3.442   3.799   0.921 -0.7558  0.4751  0.0978
   28MOL   H176 7250   3.586   3.699   1.056 -0.0717  3.4159 -0.5742
   28MOL   H177 7251   3.522   3.556   0.805 -1.1411  1.6139  0.2919
   28MOL   H178 7252   3.719   3.637   0.701 -2.7676  0.6482 -0.1728
   28MOL   H179 7253   3.768   3.724   0.860 -0.5970 -0.1452  1.3060
   28MOL   H180 7254   3.769   3.519   0.991  1.5085  0.5455 -0.3448
   28MOL   H181 7255   3.722   3.416   0.852 -1.4453  1.0078 -2.8201
   28MOL   H182 7256   3.519   3.874   0.904 -0.6891  0.2341 -0.7092
   28MOL   H183 7257   3.372   3.843   0.992 -1.5519  0.5400 -0.7087
   28MOL   C184 7258   3.371   3.801   0.784  0.4545 -0.3748  0.4593
   28MOL   C185 7259   3.354   3.941   0.725  0.0982  0.5366 -0.6258
   28MOL   C186 7260   3.363   3.959   0.577  0.1063 -0.1296 -0.6674
   28MOL   C187 7261   3.471   4.022   0.664  0.3597 -0.1273  0.0740
   28MOL   C188 7262   3.236   3.726   0.778  0.2235  0.8505 -0.1374
   28MOL   H189 7263   3.438   3.747   0.716  0.1002 -0.0618 -0.1439
   28MOL   H190 7264   3.273   3.994   0.773 -0.3918  0.0610 -0.9213
   28MOL   H191 7265   3.293   4.028   0.530 -1.1137 -0.4339  0.6314
   28MOL   H192 7266   3.394   3.870   0.524  1.1179 -2.0190  2.9273
   28MOL   H193 7267   3.473   4.131   0.672 -0.9877  0.0596 -1.6265
   28MOL   H194 7268   3.571   3.979   0.665  0.5662  0.2908 -1.3506
   28MOL   H195 7269   3.165   3.803   0.808  0.9626  2.0451 -1.4246
   28MOL   H196 7270   3.225   3.645   0.851  2.6795  0.7931  0.2371
   28MOL   C197 7271   3.217   3.649   0.644 -0.8484  0.1516 -1.2315
   28MOL   C198 7272   3.075   3.673   0.599 -0.5753  0.1452 -0.1763
   28MOL   C199 7273   3.037   3.656   0.453  0.1974 -0.5882  0.7369
   28MOL   C200 7274   3.030   3.792   0.525 -0.2188  0.3382  0.2167
   28MOL   C201 7275   3.240   3.493   0.662  0.4491  0.8174 -0.2391
   28MOL   H202 7276   3.295   3.677   0.574 -0.4072  2.0423 -0.0156
   28MOL   H203 7277   2.999   3.647   0.673 -1.4737 -0.2967 -1.2276
   28MOL   H204 7278   3.122   3.639   0.388 -0.7526  0.6587 -0.8684
   28MOL   H205 7279   2.943   3.608   0.426 -1.4997  2.8843  0.2014
   28MOL   H206 7280   3.110   3.865   0.512 -1.2707  1.1680 -1.8354
   28MOL   H207 7281   2.931   3.830   0.550 -0.3380  0.1028  0.1081
   28MOL   H208 7282   3.308   3.480   0.746  1.7238  2.1678 -1.0330
   28MOL   H209 7283   3.154   3.440   0.702 -0.0762  1.8439  0.0088
   28MOL   C210 7284   3.287   3.422   0.539 -0.0775 -0.6397  0.0645
   28MOL   C211 7285   3.429   3.464   0.490  0.6577  0.0434  0.7955
   28MOL   C212 7286   3.486   3.442   0.354 -0.0850 -0.7661  0.5349
   28MOL   C213 7287   3.468   3.581   0.412  0.4037  0.1695  0.1685
   28MOL   C214 7288   3.275   3.270   0.545  0.0541 -0.0244  0.3337
   28MOL   H215 7289   3.214   3.457   0.466 -1.2116  0.4418  1.7033
   28MOL   H216 7290   3.500   3.434   0.566 -0.0190 -1.6151  0.8041
   28MOL   H217 7291   3.590   3.415   0.340 -0.1720 -0.3187 -1.0062
   28MOL   H218 7292   3.417   3.405   0.279  1.5787  1.4198 -2.2068
   28MOL   H219 7293   3.557   3.633   0.446  1.8430 -1.7228 -0.5741
   28MOL   H220 7294   3.391   3.637   0.358  0.1800 -0.9856 -0.7386
   28MOL   H221 7295   3.344   3.222   0.615 -1.3695 -1.2517  0.9268
   28MOL   H222 7296   3.173   3.241   0.569 -0.2445  0.9812  0.2866
   28MOL   C223 7297   3.295   3.189   0.413  0.5654 -0.2764  0.4594
   28MOL   C224 7298   3.175   3.204   0.323 -0.3369  0.9014 -0.2457
   28MOL   C225 7299   3.139   3.323   0.234 -0.2983  0.0251 -0.0692
   28MOL   C226 7300   3.197   3.198   0.172 -0.3400 -0.4168  0.0734
   28MOL   C227 7301   3.313   3.044   0.451 -0.3100  1.0293  0.2501
   28MOL   H228 7302   3.382   3.215   0.352  1.1285 -1.1667  0.8686
   28MOL   H229 7303   3.086   3.152   0.357  0.8524 -2.2677 -1.7578
   28MOL   H230 7304   3.205   3.408   0.251 -0.5860  0.5041 -1.2981
   28MOL   H231 7305   3.033   3.347   0.240 -0.4583 -0.6328 -0.1949
   28MOL   H232 7306   3.132   3.135   0.112 -1.9944 -0.9081  2.3068
   28MOL   H233 7307   3.296   3.219   0.132 -1.1353  2.5721 -0.4321
   28MOL   H234 7308   3.235   3.015   0.522 -0.0388 -0.1701  0.0793
   28MOL   H235 7309   3.285   2.972   0.374 -1.1523 -1.8340  3.0987
   28MOL   C236 7310   3.453   2.995   0.495 -0.1346 -0.1406  0.3510
   28MOL   C237 7311   3.520   2.933   0.375 -1.5263 -0.3571 -0.7133
   28MOL   C238 7312   3.545   2.993   0.241 -0.3731  0.0260 -0.0395
   28MOL   C239 7313   3.662   2.970   0.331  0.2397  0.2047  0.4016
   28MOL   C240 7314   3.452   2.898   0.615 -0.0826  0.3620  0.3685
   28MOL   H241 7315   3.509   3.084   0.524 -0.3772 -0.0251  0.4730
   28MOL   H242 7316   3.497   2.826   0.374 -0.3505 -0.6437  0.6653
   28MOL   H243 7317   3.534   2.929   0.154 -3.4062  2.2998 -1.4362
   28MOL   H244 7318   3.530   3.100   0.227 -2.3558 -0.2319 -0.1304
   28MOL   H245 7319   3.705   3.067   0.356  1.4952 -0.4608  0.8212
   28MOL   H246 7320   3.740   2.909   0.288  2.1145  1.2298  2.2500
   28MOL   H247 7321   3.389   2.946   0.690 -1.4755  1.0124 -1.1852
   28MOL   H248 7322   3.405   2.802   0.594  0.7519 -0.0238  0.2661
   28MOL   C249 7323   3.589   2.867   0.666  0.7213 -0.8756  0.9972
   28MOL   C250 7324   3.573   2.781   0.791 -0.7560  0.1086 -0.3106
   28MOL   C251 7325   3.556   2.629   0.768 -0.0278  0.1462  0.6507
   28MOL   C252 7326   3.670   2.687   0.842 -0.1345  0.2865  0.0813
   28MOL   C253 7327   3.680   2.985   0.699  0.1435  0.1639  0.7517
   28MOL   H254 7328   3.649   2.812   0.594 -1.0401  2.2742 -3.1424
   28MOL   H255 7329   3.492   2.820   0.852 -1.2114 -0.0857 -0.7841
   28MOL   H256 7330   3.487   2.572   0.830 -0.2995  0.0649  0.2781
   28MOL   H257 7331   3.550   2.606   0.661  0.1661  0.4389  0.5751
   28MOL   H258 7332   3.668   2.665   0.948 -0.2740 -0.1282 -0.0043
   28MOL   H259 7333   3.771   2.681   0.802  0.2288 -2.5316  1.3156
   28MOL   H260 7334   3.639   3.061   0.766  1.9797  0.1392  1.9298
   28MOL   H261 7335   3.718   3.047   0.618 -0.3324 -2.0356 -1.2099
   28MOL   H262 7336   3.763   2.938   0.751 -1.2190  0.6119  3.3845
   29MOL     C1 7337   4.820   0.858   5.940 -0.0316 -0.0588 -0.2537
   29MOL     C2 7338   4.961   0.884   5.874 -0.4759 -0.9142 -0.1830
   29MOL     C3 7339   4.984   1.008   5.788 -0.2109  0.0033  0.2370
   29MOL     C4 7340   4.981   0.875   5.723  0.6404  0.1554 -0.0370
   29MOL     C5 7341   4.784   0.716   5.959 -0.1657 -0.1089 -0.9419
   29MOL     H6 7342   4.807   0.924   6.025  1.4480 -2.1040  1.6375
   29MOL     H7 7343   5.048   0.859   5.934  0.4805 -2.5646 -2.1927
   29MOL     H8 7344   4.904   1.075   5.755  0.2796  0.7362  0.5248
   29MOL     H9 7345   5.069   1.069   5.816  0.3932 -0.2814 -0.9403
   29MOL    H10 7346   5.069   0.837   5.672 -0.7644 -1.2427 -1.5039
   29MOL    H11 7347   4.895   0.859   5.658  0.8593 -1.3068  0.0083
   29MOL    H12 7348   4.789   0.679   5.856  1.7627 -1.1137 -0.5044
   29MOL    H13 7349   4.678   0.713   5.985 -0.1574  0.3043 -0.8607
   29MOL    H14 7350   4.748   0.900   5.870 -0.1348 -1.4056 -0.9843
   29MOL    C15 7351   4.873   0.623   6.045  0.5192  0.4409 -0.0105
   29MOL    C16 7352   4.847   0.636   6.190  0.8604 -0.6325  0.3989
   29MOL    C17 7353   4.893   0.751   6.280 -0.2039 -0.1559  0.4981
   29MOL    C18 7354   4.953   0.618   6.288  0.1268  0.0795  0.8005
   29MOL    C19 7355   4.855   0.470   6.012 -0.4122  0.0676 -0.3238
   29MOL    H20 7356   4.979   0.647   6.033  0.4257 -0.2146 -2.2039
   29MOL    H21 7357   4.749   0.595   6.214  1.1466 -2.4626 -1.3772
   29MOL    H22 7358   4.815   0.787   6.347 -2.3986 -1.1596 -1.4673
   29MOL    H23 7359   4.961   0.830   6.249 -0.4625 -0.2255 -0.2422
   29MOL    H24 7360   5.053   0.610   6.247  0.5424 -0.0087  1.8253
   29MOL    H25 7361   4.928   0.562   6.378 -1.8666 -1.1037 -0.4411
   29MOL    H26 7362   4.753   0.439   6.033 -0.5454  1.6768  1.5797
   29MOL    H27 7363   4.912   0.402   6.076 -0.2559  0.1139 -0.4116
   29MOL    C28 7364   4.891   0.418   5.875 -0.4059  0.1251  0.5150
   29MOL    C29 7365   4.841   0.276   5.840  1.3169 -0.0936  0.3418
   29MOL    C30 7366   4.715   0.260   5.762 -1.0511 -0.2649 -0.4463
   29MOL    C31 7367   4.845   0.230   5.695 -0.1221 -0.1159 -0.0104
   29MOL    C32 7368   5.045   0.440   5.844  0.2567  0.0893 -0.6590
   29MOL    H33 7369   4.835   0.479   5.803  0.6709  0.4751 -0.0537
   29MOL    H34 7370   4.846   0.205   5.923 -3.1424 -1.2312 -0.2498
   29MOL    H35 7371   4.667   0.350   5.727  0.4371  0.3545 -0.9235
   29MOL    H36 7372   4.649   0.178   5.790  1.1487 -0.5506  4.4801
   29MOL    H37 7373   4.859   0.304   5.616 -2.7977  0.5504  0.0769
   29MOL    H38 7374   4.866   0.127   5.667 -0.7594  0.6114 -3.3298
   29MOL    H39 7375   5.059   0.545   5.817 -2.0566  0.5907 -0.0813
   29MOL    H40 7376   5.070   0.392   5.750 -1.6940  0.3577 -1.3416
   29MOL    C41 7377   5.153   0.399   5.949  0.8100  0.3727 -0.1781
   29MOL    C42 7378   5.282   0.468   5.917  0.1840 -0.1824 -0.2168
   29MOL    C43 7379   5.353   0.539   6.029  0.1500  0.5081  0.1859
   29MOL    C44 7380   5.300   0.620   5.911  0.1584 -0.1921  0.3710
   29MOL    C45 7381   5.174   0.238   5.970  0.2623  0.7535  0.4136
   29MOL    H46 7382   5.114   0.442   6.042  0.9577  0.2515 -0.0582
   29MOL    H47 7383   5.353   0.413   5.855 -0.5248 -1.0169 -0.3031
   29MOL    H48 7384   5.298   0.548   6.123 -1.3097 -1.0225 -0.5051
   29MOL    H49 7385   5.461   0.522   6.034 -0.0623 -0.8646  0.2931
   29MOL    H50 7386   5.376   0.656   5.841  0.3933 -0.7544  0.3305
   29MOL    H51 7387   5.227   0.696   5.938  0.9155  1.1553 -1.2476
   29MOL    H52 7388   5.242   0.202   5.892  0.4603 -0.0833  0.9668
   29MOL    H53 7389   5.093   0.170   5.945 -0.4210  0.7945  2.4696
   29MOL    C54 7390   5.231   0.195   6.107 -0.0398 -0.2271 -0.1627
   29MOL    C55 7391   5.115   0.181   6.203 -0.5730 -0.0917  0.5417
   29MOL    C56 7392   5.073   0.286   6.305  0.0229  0.1941  0.6978
   29MOL    C57 7393   5.145   0.163   6.349  0.6046 -0.1951 -0.1219
   29MOL    C58 7394   5.324   0.066   6.099  0.7206  0.1280 -0.1605
   29MOL    H59 7395   5.294   0.277   6.139 -1.1520 -0.3627  2.5230
   29MOL    H60 7396   5.037   0.110   6.178 -1.6244  0.8093  1.2461
   29MOL    H61 7397   5.142   0.370   6.295  0.9093 -0.6727 -0.5580
   29MOL    H62 7398   4.965   0.296   6.318  0.3154  0.1695  3.3716
   29MOL    H63 7399   5.077   0.107   6.414  1.0095  1.4439  1.7431
   29MOL    H64 7400   5.249   0.176   6.378  0.6380 -0.4534 -0.1236
   29MOL    H65 7401   5.316   0.020   6.198 -1.7146  0.3766 -0.2125
   29MOL    H66 7402   5.275   7.838   6.029  1.9021 -0.6193 -0.2879
   29MOL    C67 7403   5.469   0.099   6.051 -0.1427 -0.2217  0.5187
   29MOL    C68 7404   5.552   0.156   6.163 -0.8139  0.1590 -0.6894
   29MOL    C69 7405   5.698   0.200   6.148 -0.1039  0.0839  0.0859
   29MOL    C70 7406   5.598   0.301   6.181  0.3849 -0.3358 -0.1964
   29MOL    C71 7407   5.538   7.812   5.990 -0.5896  0.1873 -0.0382
   29MOL    H72 7408   5.469   0.180   5.978 -2.5056  0.5702  1.3726
   29MOL    H73 7409   5.530   0.103   6.256 -1.2453  1.9725  0.2590
   29MOL    H74 7410   5.767   0.160   6.222 -0.9264 -0.4815  0.5576
   29MOL    H75 7411   5.735   0.191   6.046  2.4940  2.2373  0.8081
   29MOL    H76 7412   5.579   0.383   6.113 -0.2197 -0.7081 -0.4731
   29MOL    H77 7413   5.609   0.339   6.282 -0.0004  1.1896 -0.7103
   29MOL    H78 7414   5.524   7.727   6.056  0.8614 -0.9559 -1.1497
   29MOL    H79 7415   5.646   7.831   5.994 -0.6660  0.2197  2.7338
   29MOL    C80 7416   5.484   7.778   5.845  0.4377 -0.0455 -0.0387
   29MOL    C81 7417   5.544   7.640   5.811 -0.6699  0.0110 -0.5188
   29MOL    C82 7418   5.461   7.543   5.727  0.2691 -0.1005  0.4337
   29MOL    C83 7419   5.488   7.527   5.884  0.0347 -0.0761  0.0580
   29MOL    C84 7420   5.531   0.041   5.740 -0.6846 -0.3218  0.6150
   29MOL    H85 7421   5.375   7.771   5.840  0.2168  1.2162  2.4004
   29MOL    H86 7422   5.653   7.644   5.807 -0.5538 -0.8342  1.0972
   29MOL    H87 7423   5.500   7.458   5.672  1.3843  1.6404 -1.5309
   29MOL    H88 7424   5.373   7.594   5.687  1.4926  1.9107  0.2745
   29MOL    H89 7425   5.402   7.545   5.949  1.4362  0.6800  1.7389
   29MOL    H90 7426   5.557   7.450   5.918 -0.1102  0.5661  1.8750
   29MOL    H91 7427   5.534   0.143   5.777 -2.2077  0.3189 -0.9623
   29MOL    H92 7428   5.637   0.027   5.719 -0.6645 -0.0148  0.5210
   29MOL    C93 7429   5.458   0.035   5.603  0.4839  0.4491  0.3175
   29MOL    C94 7430   5.325   0.110   5.617 -0.1554  0.6632 -0.1781
   29MOL    C95 7431   5.215   0.105   5.515  0.0661 -0.0367  0.5416
   29MOL    C96 7432   5.207   0.025   5.643  0.2181 -0.2686  0.1945
   29MOL    C97 7433   5.532   0.088   5.479  0.0452  0.0277 -0.5661
   29MOL    H98 7434   5.430   7.771   5.584  2.4070 -0.1347  0.5102
   29MOL    H99 7435   5.328   0.193   5.688 -1.5385 -0.4315  1.2041
   29MOL   H100 7436   5.159   0.198   5.509  1.0830  0.7664  2.7107
   29MOL   H101 7437   5.238   0.063   5.418 -0.2354  1.8408 -0.3700
   29MOL   H102 7438   5.148   0.063   5.725  1.0550  1.6341 -0.0559
   29MOL   H103 7439   5.193   7.758   5.624  0.7623 -0.3168  0.0464
   29MOL   H104 7440   5.586   0.181   5.500  0.9360 -0.2338 -1.6291
   29MOL   H105 7441   5.465   0.119   5.398 -0.9051 -2.0938 -0.6130
   29MOL   C106 7442   5.632   7.834   5.406 -0.3334 -0.0884 -0.4319
   29MOL   C107 7443   5.565   7.708   5.348  0.1321  0.0252 -0.0928
   29MOL   C108 7444   5.656   7.592   5.297  0.5721 -0.5718  0.6755
   29MOL   C109 7445   5.591   7.576   5.430  0.2212  0.2707  0.1735
   29MOL   C110 7446   5.710   0.063   5.286  0.4191  0.2227 -1.3786
   29MOL   H111 7447   5.706   7.803   5.480  0.2249  1.6071 -0.2702
   29MOL   H112 7448   5.459   7.719   5.326 -0.0109 -1.0773 -0.0098
   29MOL   H113 7449   5.634   7.528   5.212 -0.0930 -1.5911  1.5935
   29MOL   H114 7450   5.762   7.613   5.293  0.6061 -1.1058 -1.8703
   29MOL   H115 7451   5.656   7.575   5.517  0.4485 -0.0033  0.0010
   29MOL   H116 7452   5.506   7.509   5.437  1.0304 -0.9958 -1.7142
   29MOL   H117 7453   5.772   7.828   5.236  0.5631  0.0894 -1.0077
   29MOL   H118 7454   5.649   0.120   5.216  2.0553  1.7699 -1.5700
   29MOL   C119 7455   5.823   0.160   5.333  0.2102  0.1500  0.2694
   29MOL   C120 7456   5.918   0.097   5.442  0.3344  0.7951 -0.3516
   29MOL   C121 7457   5.886   0.128   5.583  0.3486 -0.1758 -0.6273
   29MOL   C122 7458   6.023   0.165   5.523  0.6410 -0.0869  0.2138
   29MOL   C123 7459   5.912   0.224   5.218  0.0183  0.3652  0.5665
   29MOL   H124 7460   5.780   0.246   5.383  1.1431 -0.3142  1.9005
   29MOL   H125 7461   5.923   7.829   5.430 -1.6245  0.3549  2.2367
   29MOL   H126 7462   5.897   0.059   5.666 -0.0301  1.3158  0.7101
   29MOL   H127 7463   5.824   0.215   5.607  0.3108 -0.6106  0.8784
   29MOL   H128 7464   6.033   0.273   5.511 -4.2274  0.2614 -2.2099
   29MOL   H129 7465   6.106   0.111   5.566  1.5020  2.0924  1.3473
   29MOL   H130 7466   5.836   0.282   5.165 -0.3372  0.0212  0.7025
   29MOL   H131 7467   5.970   0.305   5.263 -0.6269  0.5795  1.0065
   29MOL   C132 7468   5.990   0.129   5.118  0.5752 -0.0113 -0.0383
   29MOL   C133 7469   6.109   0.067   5.183  0.3750 -0.1765 -0.4607
   29MOL   C134 7470   6.200   7.808   5.115  0.0307 -0.0749 -0.4335
   29MOL   C135 7471   6.115   7.767   5.237  0.4048  0.3895  0.2172
   29MOL   C136 7472   6.038   0.195   4.985  0.6368  0.7861 -0.6436
   29MOL   H137 7473   5.929   0.044   5.087 -1.3290  0.3434  2.5448
   29MOL   H138 7474   6.165   0.146   5.233 -0.1536  0.7259 -1.2721
   29MOL   H139 7475   6.179   7.762   5.019  2.1565 -0.2491 -0.8256
   29MOL   H140 7476   6.303   0.003   5.115 -0.2086  0.6466 -1.3840
   29MOL   H141 7477   6.038   7.695   5.211 -1.7429  2.0155  1.8197
   29MOL   H142 7478   6.161   7.748   5.334 -0.7216 -2.0246  0.3099
   29MOL   H143 7479   6.112   0.268   5.019  0.9070  0.6824 -1.0137
   29MOL   H144 7480   6.089   0.115   4.932  1.8793  0.4257  1.0626
   29MOL   C145 7481   5.925   0.242   4.885  0.5219 -0.7449 -0.0413
   29MOL   C146 7482   5.992   0.323   4.775  0.0739 -0.5445  0.3308
   29MOL   C147 7483   5.929   0.418   4.683  0.1971 -0.1832 -1.0714
   29MOL   C148 7484   6.018   0.473   4.795 -0.4268 -0.3723 -0.8588
   29MOL   C149 7485   5.839   0.124   4.834 -0.1429  0.2556 -0.5101
   29MOL   H150 7486   5.854   0.301   4.942 -0.8408 -2.0667 -0.3224
   29MOL   H151 7487   6.081   0.272   4.740  1.5561  1.2223  1.4430
   29MOL   H152 7488   5.968   0.418   4.582  1.2091  0.4829 -0.6846
   29MOL   H153 7489   5.823   0.440   4.693  0.0276 -1.8404  1.3629
   29MOL   H154 7490   5.969   0.514   4.883 -0.4152 -1.5177 -0.3101
   29MOL   H155 7491   6.114   0.518   4.771  0.4076 -0.3714  2.2659
   29MOL   H156 7492   5.896   0.074   4.756 -1.6505 -2.0153 -0.2047
   29MOL   H157 7493   5.827   0.045   4.908 -2.5076  2.1074  1.1758
   29MOL   C158 7494   5.706   0.156   4.766  0.5509 -0.2407 -0.1239
   29MOL   C159 7495   5.607   0.182   4.872 -1.0630 -0.8835  0.2326
   29MOL   C160 7496   5.576   0.319   4.936  0.0593  0.0240 -0.5386
   29MOL   C161 7497   5.478   0.261   4.842  1.1410 -0.9191  0.0694
   29MOL   C162 7498   5.656   0.033   4.676 -0.2905 -0.5633  0.1444
   29MOL   H163 7499   5.705   0.244   4.701  0.1443 -0.3966 -0.3260
   29MOL   H164 7500   5.600   0.098   4.941 -3.6473  0.3267  1.5084
   29MOL   H165 7501   5.622   0.414   4.908  0.4926  0.4179  1.4912
   29MOL   H166 7502   5.542   0.308   5.038 -0.7822  0.0580 -0.8134
   29MOL   H167 7503   5.386   0.226   4.886  0.1565  0.4648 -0.8193
   29MOL   H168 7504   5.462   0.311   4.746 -2.8766  1.4971  1.8625
   29MOL   H169 7505   5.549   0.039   4.658  0.0067  0.8527 -1.2348
   29MOL   H170 7506   5.674   7.777   4.726 -0.0827 -0.7839 -0.3446
   29MOL   C171 7507   5.712   0.014   4.534  0.6448  0.1911 -0.0416
   29MOL   C172 7508   5.670   7.714   4.473  0.2746  0.6398  0.2030
   29MOL   C173 7509   5.749   7.631   4.369 -0.5565  0.0512 -0.2370
   29MOL   C174 7510   5.738   7.592   4.516  0.4420  0.0944 -0.2897
   29MOL   C175 7511   5.689   0.141   4.441 -0.5811 -0.3104 -0.4379
   29MOL   H176 7512   5.819   7.839   4.552  0.8286  0.8128 -0.6398
   29MOL   H177 7513   5.562   7.706   4.470  0.3627 -1.3273  1.0543
   29MOL   H178 7514   5.699   7.555   4.309  2.0890  0.5279 -3.1296
   29MOL   H179 7515   5.849   7.656   4.335 -0.7738 -0.5466 -1.3762
   29MOL   H180 7516   5.822   7.623   4.579 -0.4191 -1.2305  1.5635
   29MOL   H181 7517   5.690   7.501   4.551 -0.4255  0.3509 -0.8102
   29MOL   H182 7518   5.684   0.234   4.497  2.2487 -0.9666  1.0125
   29MOL   H183 7519   5.587   0.134   4.404 -0.2667  1.0343 -1.5815
   29MOL   C184 7520   5.776   0.161   4.323  0.3580  0.3065  0.1891
   29MOL   C185 7521   5.912   0.212   4.349  0.4202  0.5402 -0.2659
   29MOL   C186 7522   6.032   0.164   4.278  0.3634 -0.0911 -0.2188
   29MOL   C187 7523   6.016   0.126   4.421 -0.2389  0.1211 -0.3246
   29MOL   C188 7524   5.716   0.256   4.214  0.4937 -0.1398  0.3829
   29MOL   H189 7525   5.788   0.057   4.290  1.6409  0.3285  0.5618
   29MOL   H190 7526   5.908   0.312   4.391  0.9456 -0.1111  1.3745
   29MOL   H191 7527   6.116   0.232   4.263 -0.7245  1.2153 -0.4258
   29MOL   H192 7528   6.023   0.080   4.210  0.9135 -0.2278 -0.1242
   29MOL   H193 7529   6.090   0.171   4.487  1.3281  1.8918 -3.1896
   29MOL   H194 7530   6.002   0.020   4.442  0.8201 -0.3425 -1.9179
   29MOL   H195 7531   5.788   0.276   4.135 -0.1294  0.0071 -0.1588
   29MOL   H196 7532   5.706   0.353   4.263  2.4817 -0.2494  1.0147
   29MOL   C197 7533   5.582   0.208   4.150  0.1541  0.5393 -0.0494
   29MOL   C198 7534   5.593   0.081   4.064  0.4291 -0.6603  0.2593
   29MOL   C199 7535   5.468   0.000   4.022  0.2327 -0.2563  0.0430
   29MOL   C200 7536   5.549   7.795   4.131 -0.1326 -0.5443  0.0868
   29MOL   C201 7537   5.511   0.317   4.077 -0.4112 -0.2498  0.2637
   29MOL   H202 7538   5.512   0.186   4.230 -0.0743 -2.2386 -0.9362
   29MOL   H203 7539   5.681   0.073   4.002 -1.4951 -0.2755 -2.6270
   29MOL   H204 7540   5.371   0.045   4.044  1.5744  2.5065  0.5945
   29MOL   H205 7541   5.485   7.803   3.921  0.4602  0.6275 -0.2389
   29MOL   H206 7542   5.505   7.789   4.231 -0.4084  0.5411  0.0353
   29MOL   H207 7543   5.596   7.698   4.112  1.8697  0.5331 -0.5560
   29MOL   H208 7544   5.570   0.340   3.988 -2.9159  0.9053 -1.1680
   29MOL   H209 7545   5.418   0.277   4.037 -0.6722 -0.6897  1.2972
   29MOL   C210 7546   5.484   0.449   4.153  0.9003  0.2577  0.1025
   29MOL   C211 7547   5.445   0.557   4.063 -0.8758 -0.5040 -0.0245
   29MOL   C212 7548   5.475   0.703   4.094  0.2721  0.5803 -0.1012
   29MOL   C213 7549   5.541   0.638   3.978  0.0421  0.1292 -0.2175
   29MOL   C214 7550   5.368   0.434   4.264  0.9839 -0.2156  0.6746
   29MOL   H215 7551   5.574   0.485   4.203  1.2643 -1.5317  0.7756
   29MOL   H216 7552   5.342   0.545   4.029 -1.6932  0.9552  1.8752
   29MOL   H217 7553   5.405   0.779   4.060 -1.1545 -1.2722 -1.3855
   29MOL   H218 7554   5.541   0.726   4.177  0.5696  0.0035 -0.1815
   29MOL   H219 7555   5.507   0.653   3.876 -2.1939  3.2264  0.8913
   29MOL   H220 7556   5.648   0.627   3.992 -0.0335 -0.6070 -0.2333
   29MOL   H221 7557   5.273   0.437   4.211  0.3572 -2.4983  1.6292
   29MOL   H222 7558   5.370   0.339   4.316 -0.5449  0.1087  1.3502
   29MOL   C223 7559   5.373   0.535   4.376 -0.7234 -0.3230  0.2884
   29MOL   C224 7560   5.488   0.511   4.474 -0.3151 -0.3963 -0.5845
   29MOL   C225 7561   5.619   0.589   4.476 -0.5681 -0.1645 -0.6603
   29MOL   C226 7562   5.528   0.599   4.596 -0.6820 -0.3600  0.0549
   29MOL   C227 7563   5.248   0.533   4.459 -0.1554 -0.4239 -0.0094
   29MOL   H228 7564   5.368   0.635   4.332  1.0162 -1.2829 -2.1438
   29MOL   H229 7565   5.500   0.403   4.484  0.6068 -0.2959 -0.5737
   29MOL   H230 7566   5.632   0.678   4.414  0.5827  0.3988  0.3928
   29MOL   H231 7567   5.713   0.538   4.489 -0.8800 -0.4355  0.6092
   29MOL   H232 7568   5.547   0.541   4.686 -0.6644  0.6487  0.7058
   29MOL   H233 7569   5.479   0.695   4.614  3.4486  2.2968 -1.9664
   29MOL   H234 7570   5.248   0.429   4.494  0.5935 -0.3052  0.3484
   29MOL   H235 7571   5.255   0.592   4.550  0.8044  0.4621 -0.6641
   29MOL   C236 7572   5.115   0.569   4.387  0.2841 -0.1621  0.8216
   29MOL   C237 7573   5.109   0.720   4.382 -0.2916  0.1854 -0.2948
   29MOL   C238 7574   5.168   0.805   4.267 -0.0424  0.1148  0.8813
   29MOL   C239 7575   5.018   0.793   4.282  0.0911 -0.3542 -0.1468
   29MOL   C240 7576   4.991   0.510   4.448  0.5506 -0.0451 -0.3710
   29MOL   H241 7577   5.101   0.527   4.287 -0.2355 -0.0841  0.8587
   29MOL   H242 7578   5.097   0.761   4.482 -1.3864 -0.9595  0.0584
   29MOL   H243 7579   5.194   0.909   4.286 -0.7479  0.6971 -1.2306
   29MOL   H244 7580   5.222   0.750   4.190  1.8044  2.1667  0.6421
   29MOL   H245 7581   4.959   0.721   4.227 -2.8898  1.3180  0.7465
   29MOL   H246 7582   4.961   0.877   4.321 -1.3085 -0.8180 -1.1729
   29MOL   H247 7583   4.986   0.550   4.549  0.0678 -0.3526 -0.2727
   29MOL   H248 7584   4.905   0.548   4.393 -1.0666 -2.2449  0.5614
   29MOL   C249 7585   4.973   0.353   4.438 -0.7130 -0.0381  0.5764
   29MOL   C250 7586   4.961   0.309   4.287  0.1010 -0.2389  0.3244
   29MOL   C251 7587   5.076   0.223   4.243  0.2039 -0.5336 -0.9150
   29MOL   C252 7588   4.937   0.162   4.244  0.0941 -0.8000 -0.7302
   29MOL   C253 7589   4.860   0.307   4.533  0.4151  0.6948  0.1933
   29MOL   H254 7590   5.069   0.310   4.469 -0.4860  0.1597  0.1547
   29MOL   H255 7591   4.934   0.389   4.217 -0.0575  0.4152  1.1199
   29MOL   H256 7592   5.116   0.212   4.143  0.1983  1.4577 -1.1683
   29MOL   H257 7593   5.144   0.194   4.323 -0.8530  0.2390  0.3068
   29MOL   H258 7594   4.881   0.162   4.151 -1.0376 -1.3889 -0.0587
   29MOL   H259 7595   4.921   0.087   4.321  0.8241  0.0109  0.2432
   29MOL   H260 7596   4.817   0.215   4.494  2.1495  0.0642 -0.2894
   29MOL   H261 7597   4.782   0.381   4.519  0.1044  0.3082 -0.1212
   29MOL   H262 7598   4.885   0.296   4.638 -0.1044  2.6998  0.5408
   30MOL     C1 7599   3.574   6.380   7.345 -0.2203 -0.4377 -1.0825
   30MOL     C2 7600   3.492   6.367   7.471 -0.7110  0.3007 -0.1193
   30MOL     C3 7601   3.507   6.462   7.588 -0.0247 -0.2383  0.9446
   30MOL     C4 7602   3.552   6.320   7.602 -0.4817 -0.5941 -0.4311
   30MOL     C5 7603   3.644   6.246   7.313  0.4716  0.1212 -0.8587
   30MOL     H6 7604   3.505   6.397   7.263 -1.7169 -0.4662  0.1542
   30MOL     H7 7605   3.397   6.318   7.450 -1.0342  0.1197  1.6571
   30MOL     H8 7606   3.575   6.544   7.569 -1.4869  0.2891 -2.4157
   30MOL     H9 7607   3.410   6.487   7.631  1.1602 -0.9820  4.2041
   30MOL    H10 7608   3.485   6.265   7.667 -2.5728  2.2709 -0.0172
   30MOL    H11 7609   3.657   6.298   7.618 -0.6568 -0.7738  0.4620
   30MOL    H12 7610   3.608   6.210   7.217 -1.5396  0.2327 -0.1756
   30MOL    H13 7611   3.618   6.166   7.382 -2.0947  1.9946  0.4502
   30MOL    H14 7612   3.635   6.469   7.362  0.7064 -0.7346 -2.6823
   30MOL    C15 7613   3.796   6.261   7.283 -0.2095 -0.4118 -0.3669
   30MOL    C16 7614   3.865   6.295   7.424  0.7928  0.4024 -0.3321
   30MOL    C17 7615   3.884   6.427   7.493  0.1427 -0.4166 -0.0581
   30MOL    C18 7616   4.002   6.360   7.426 -0.3060 -0.6845  0.6116
   30MOL    C19 7617   3.856   6.133   7.228 -0.7250 -0.0718 -0.3554
   30MOL    H20 7618   3.816   6.350   7.223  1.0789  0.3072  1.1079
   30MOL    H21 7619   3.859   6.213   7.495  0.3982  1.4208  0.8195
   30MOL    H22 7620   3.875   6.425   7.601 -0.2529 -0.0834 -0.0853
   30MOL    H23 7621   3.838   6.512   7.443  3.6141 -0.1955 -3.0650
   30MOL    H24 7622   4.046   6.405   7.337 -0.5986 -0.8420  0.3857
   30MOL    H25 7623   4.067   6.307   7.495 -1.4067 -1.0442  1.3712
   30MOL    H26 7624   3.818   6.042   7.275 -1.0178  1.2587  2.0908
   30MOL    H27 7625   3.953   6.119   7.277 -1.0598 -1.6327 -0.1042
   30MOL    C28 7626   3.880   6.122   7.074 -0.3411  0.0022 -0.1515
   30MOL    C29 7627   3.751   6.128   6.995 -0.4493 -0.8117 -0.1530
   30MOL    C30 7628   3.694   6.260   6.945  0.4861  0.1895 -0.2907
   30MOL    C31 7629   3.753   6.171   6.855 -0.1266  0.0629  0.7346
   30MOL    C32 7630   3.972   6.004   7.044 -0.2045 -0.3923  0.2915
   30MOL    H33 7631   3.938   6.211   7.050 -0.2262 -0.5285 -1.8762
   30MOL    H34 7632   3.690   6.038   6.997 -0.6625 -0.6873 -1.0449
   30MOL    H35 7633   3.747   6.350   6.975  1.2695 -0.2309 -0.4108
   30MOL    H36 7634   3.585   6.261   6.944  0.4960  2.8423 -0.8858
   30MOL    H37 7635   3.849   6.206   6.817  0.9418 -2.9842  0.4887
   30MOL    H38 7636   3.694   6.101   6.796  1.2825 -2.2013  1.9478
   30MOL    H39 7637   3.904   5.928   7.005 -1.3874  0.0069  1.5781
   30MOL    H40 7638   4.009   5.953   7.132 -0.8617 -1.0568  0.1912
   30MOL    C41 7639   4.078   6.034   6.937  0.3920 -0.7356  0.0403
   30MOL    C42 7640   4.144   5.900   6.910  0.7399  0.2471 -0.5603
   30MOL    C43 7641   4.212   5.872   6.777 -0.3404 -0.4269  0.4066
   30MOL    C44 7642   4.085   5.798   6.820 -0.1298  0.2215  0.0086
   30MOL    C45 7643   4.191   6.132   6.994 -0.3039  0.0426 -0.5914
   30MOL    H46 7644   4.030   6.078   6.849  0.7486  2.2850  1.2638
   30MOL    H47 7645   4.193   5.863   7.000  0.3116  0.2104 -0.3394
   30MOL    H48 7646   4.213   5.949   6.700 -0.6375 -0.6195  0.2049
   30MOL    H49 7647   4.301   5.810   6.777  0.6961  1.0501 -0.0185
   30MOL    H50 7648   4.105   5.695   6.846  0.0526  0.3147  0.2440
   30MOL    H51 7649   3.998   5.821   6.759 -0.3424 -1.3964 -0.3044
   30MOL    H52 7650   4.260   6.074   7.056 -1.2742 -1.0996 -0.5698
   30MOL    H53 7651   4.136   6.206   7.052  0.7504  1.9741 -2.0067
   30MOL    C54 7652   4.277   6.207   6.882  0.2115 -0.5479  0.4792
   30MOL    C55 7653   4.205   6.330   6.831 -0.0198 -0.0893  0.8492
   30MOL    C56 7654   4.102   6.330   6.721  0.2603  0.6631  0.2265
   30MOL    C57 7655   4.230   6.401   6.698  0.9890  0.0111 -0.2310
   30MOL    C58 7656   4.413   6.250   6.933  0.1123  0.3595 -0.5476
   30MOL    H59 7657   4.300   6.141   6.798 -0.3452  0.0954 -0.1804
   30MOL    H60 7658   4.194   6.391   6.920  1.0489 -0.7531  1.4500
   30MOL    H61 7659   4.090   6.244   6.656  0.0743 -0.8149  2.1472
   30MOL    H62 7660   4.013   6.391   6.729 -0.8342 -0.9000  0.2683
   30MOL    H63 7661   4.234   6.510   6.701  1.8501  0.0393 -2.0177
   30MOL    H64 7662   4.299   6.355   6.628  1.1789  0.7650 -0.5463
   30MOL    H65 7663   4.388   6.338   6.992  1.4577 -0.4778  1.3415
   30MOL    H66 7664   4.451   6.191   7.016  0.3001 -0.3788 -1.1519
   30MOL    C67 7665   4.525   6.267   6.826  0.3420  0.4178  0.0070
   30MOL    C68 7666   4.643   6.350   6.873  0.2920 -0.2562 -0.4008
   30MOL    C69 7667   4.751   6.416   6.791  0.4899 -0.3625 -0.4497
   30MOL    C70 7668   4.643   6.503   6.856 -1.1083  0.6948  0.6143
   30MOL    C71 7669   4.573   6.121   6.784 -0.3409  0.1613  0.0693
   30MOL    H72 7670   4.486   6.314   6.736 -1.7514 -0.8368  0.2476
   30MOL    H73 7671   4.676   6.323   6.973 -1.7691 -3.4581 -0.4981
   30MOL    H74 7672   4.849   6.401   6.835  0.9151 -0.5934 -1.4837
   30MOL    H75 7673   4.750   6.409   6.683  0.7201  1.8991 -0.6187
   30MOL    H76 7674   4.573   6.548   6.786  0.8102  0.7252 -1.3472
   30MOL    H77 7675   4.680   6.559   6.942  1.1282 -1.7232  1.2762
   30MOL    H78 7676   4.494   6.049   6.806 -2.4501  2.5573  0.5797
   30MOL    H79 7677   4.635   6.090   6.868  2.6424  0.7838 -1.8289
   30MOL    C80 7678   4.625   6.084   6.647  0.6186 -0.1174 -0.5194
   30MOL    C81 7679   4.525   6.111   6.534 -0.2761 -0.7364 -0.0156
   30MOL    C82 7680   4.573   6.146   6.397  0.2486 -0.3013  0.6437
   30MOL    C83 7681   4.487   6.245   6.469  0.4111  0.4641 -0.0184
   30MOL    C84 7682   4.664   5.933   6.645 -0.4421 -0.4502  0.1284
   30MOL    H85 7683   4.705   6.157   6.637 -2.0141  3.2987  1.9582
   30MOL    H86 7684   4.450   6.031   6.534  1.4014 -2.3886 -2.1783
   30MOL    H87 7685   4.515   6.098   6.318 -1.5262  0.5981  1.3734
   30MOL    H88 7686   4.671   6.192   6.387 -0.4247  0.5559 -2.7975
   30MOL    H89 7687   4.528   6.338   6.507 -0.4564  0.6862  0.3886
   30MOL    H90 7688   4.393   6.257   6.415 -0.1547  0.8155  1.0361
   30MOL    H91 7689   4.630   5.874   6.730 -1.1631 -0.6569 -0.3009
   30MOL    H92 7690   4.626   5.890   6.552  2.0011 -1.5057 -0.4057
   30MOL    C93 7691   4.815   5.911   6.640 -0.3882  0.1071  0.3859
   30MOL    C94 7692   4.891   5.951   6.769  0.4417 -0.7248  0.0589
   30MOL    C95 7693   5.033   6.011   6.754  0.2598  0.4147  0.4324
   30MOL    C96 7694   4.924   6.100   6.796  0.0430  0.4259  0.2302
   30MOL    C97 7695   4.855   5.758   6.612  0.2546  0.7161 -0.1133
   30MOL    H98 7696   4.852   5.971   6.557  1.7895 -4.0619 -1.7953
   30MOL    H99 7697   4.865   5.894   6.858 -0.1537 -1.8212 -0.8088
   30MOL   H100 7698   5.114   5.983   6.821  1.5420  0.0789 -1.2330
   30MOL   H101 7699   5.069   6.048   6.658 -0.1094  2.0918  0.9204
   30MOL   H102 7700   4.935   6.137   6.898 -1.3565 -0.9683  0.9271
   30MOL   H103 7701   4.907   6.174   6.718  2.0185  1.9300  1.2030
   30MOL   H104 7702   4.820   5.697   6.695  0.9192  0.7973  0.2302
   30MOL   H105 7703   4.962   5.747   6.622  0.4846  2.9244  0.2326
   30MOL   C106 7704   4.803   5.694   6.486  0.4472 -0.4957  0.0395
   30MOL   C107 7705   4.847   5.760   6.355  0.1872 -1.0904  0.0490
   30MOL   C108 7706   4.768   5.734   6.229  0.1869 -0.7404  0.5260
   30MOL   C109 7707   4.759   5.866   6.286 -0.5476  0.3314 -1.1306
   30MOL   C110 7708   4.842   5.550   6.482  0.6951 -0.1307  0.4823
   30MOL   H111 7709   4.695   5.706   6.486  0.1499 -2.8804  0.6869
   30MOL   H112 7710   4.953   5.777   6.342 -0.4474  3.3659 -0.1846
   30MOL   H113 7711   4.824   5.719   6.137  0.7857 -0.6281  0.8681
   30MOL   H114 7712   4.676   5.678   6.245 -0.9734  0.4286 -1.8756
   30MOL   H115 7713   4.663   5.897   6.326 -0.2520  0.9683 -0.9102
   30MOL   H116 7714   4.818   5.946   6.241 -1.4443  1.2926 -0.6168
   30MOL   H117 7715   4.832   5.512   6.380  0.2278  2.8616 -0.6555
   30MOL   H118 7716   4.946   5.531   6.507  0.5658 -0.0988  1.0594
   30MOL   C119 7717   4.753   5.461   6.566  1.1546  0.1841 -0.7556
   30MOL   C120 7718   4.612   5.436   6.494  0.0288  0.5913 -0.2961
   30MOL   C121 7719   4.491   5.529   6.505  0.1847 -0.8959 -0.7111
   30MOL   C122 7720   4.503   5.395   6.575  0.4247  0.0581 -0.8186
   30MOL   C123 7721   4.817   5.322   6.598  0.0307 -0.0345 -0.2203
   30MOL   H124 7722   4.733   5.517   6.657  0.6601  0.0343 -0.7672
   30MOL   H125 7723   4.615   5.373   6.406 -0.6231  0.9414 -0.5714
   30MOL   H126 7724   4.422   5.538   6.421 -0.2457 -0.9542 -0.3620
   30MOL   H127 7725   4.486   5.611   6.576  0.8103 -2.3196  1.0048
   30MOL   H128 7726   4.514   5.396   6.683  1.2337 -1.6840 -0.8718
   30MOL   H129 7727   4.451   5.305   6.543  1.0464 -0.5129 -0.2260
   30MOL   H130 7728   4.742   5.247   6.622  0.4732  0.0136  1.3462
   30MOL   H131 7729   4.869   5.288   6.508  0.8113 -0.5602  0.4252
   30MOL   C132 7730   4.913   5.321   6.721 -0.2760  0.4665 -0.1116
   30MOL   C133 7731   5.037   5.243   6.682  0.5124  0.2515  0.1398
   30MOL   C134 7732   5.163   5.267   6.757 -0.4600  0.2575  0.7773
   30MOL   C135 7733   5.150   5.286   6.601 -1.1430 -0.7949  0.0657
   30MOL   C136 7734   4.847   5.264   6.846 -0.6639  0.2962 -0.6814
   30MOL   H137 7735   4.949   5.420   6.750  1.3699 -0.7051  1.9415
   30MOL   H138 7736   5.014   5.137   6.684  1.0294  0.1572  1.4886
   30MOL   H139 7737   5.144   5.346   6.830 -2.3062  1.4911 -0.9870
   30MOL   H140 7738   5.218   5.180   6.793  2.2439  0.8935 -1.5697
   30MOL   H141 7739   5.174   5.390   6.580  1.2275 -1.1008  1.0325
   30MOL   H142 7740   5.209   5.215   6.544  0.1170 -2.0993  2.8749
   30MOL   H143 7741   4.813   5.164   6.818 -0.9071  0.4012 -0.7501
   30MOL   H144 7742   4.921   5.250   6.925 -0.0236  1.3385 -1.0900
   30MOL   C145 7743   4.736   5.352   6.920 -0.0611  0.0673  0.2663
   30MOL   C146 7744   4.666   5.253   7.017 -0.4799 -0.9147  0.2383
   30MOL   C147 7745   4.522   5.258   7.061 -0.0493  0.1023  1.2522
   30MOL   C148 7746   4.570   5.142   6.973 -1.3286  0.3068 -0.6082
   30MOL   C149 7747   4.806   5.468   6.999  0.4918  0.6369  0.3682
   30MOL   H150 7748   4.662   5.392   6.851 -1.7847 -0.2252  1.8668
   30MOL   H151 7749   4.739   5.215   7.089 -0.1721  1.6251  1.3354
   30MOL   H152 7750   4.495   5.249   7.166 -1.3066 -0.5463  0.8916
   30MOL   H153 7751   4.445   5.312   7.006  1.7662  1.3533 -0.0909
   30MOL   H154 7752   4.540   5.140   6.869 -0.2991  1.2706 -0.9253
   30MOL   H155 7753   4.579   5.048   7.029  2.1004  0.1681 -1.2666
   30MOL   H156 7754   4.871   5.429   7.078 -0.2407  0.4266  0.8776
   30MOL   H157 7755   4.876   5.513   6.929 -1.9369  1.6669 -1.4633
   30MOL   C158 7756   4.710   5.578   7.068 -0.1847  0.2040 -0.1540
   30MOL   C159 7757   4.637   5.659   6.958 -0.2926  0.1495 -0.1332
   30MOL   C160 7758   4.517   5.613   6.900  0.6459 -0.5754 -0.3100
   30MOL   C161 7759   4.513   5.735   6.993 -0.1624 -0.5058 -0.3303
   30MOL   C162 7760   4.794   5.667   7.150 -0.2975  0.8286  0.7181
   30MOL   H163 7761   4.643   5.517   7.129  1.1716  1.6468  2.8720
   30MOL   H164 7762   4.703   5.713   6.891 -0.8426  1.3880  0.3193
   30MOL   H165 7763   4.482   5.524   6.952  0.4190  0.7176  1.8241
   30MOL   H166 7764   4.507   5.624   6.793  2.0027 -1.9949 -0.6087
   30MOL   H167 7765   4.490   5.831   6.947 -1.4418 -0.7531 -0.2503
   30MOL   H168 7766   4.467   5.712   7.089  0.1650 -2.5616 -0.6420
   30MOL   H169 7767   4.851   5.732   7.084  0.6406 -0.3009  0.4057
   30MOL   H170 7768   4.872   5.607   7.196 -1.0076  0.6274  1.6679
   30MOL   C171 7769   4.720   5.754   7.252  0.1771 -0.2695  0.5363
   30MOL   C172 7770   4.778   5.730   7.387  0.1181  0.4381 -0.1780
   30MOL   C173 7771   4.691   5.734   7.512  0.2804 -0.4159 -0.0403
   30MOL   C174 7772   4.734   5.600   7.462  0.1289  0.3633  0.1635
   30MOL   C175 7773   4.751   5.911   7.224  0.4299  0.5112  0.5709
   30MOL   H176 7774   4.614   5.735   7.268  0.1100 -0.7668 -0.4754
   30MOL   H177 7775   4.880   5.759   7.410 -0.5098 -0.3976  4.2681
   30MOL   H178 7776   4.737   5.781   7.599  0.1890  2.4146 -1.4611
   30MOL   H179 7777   4.584   5.753   7.498  0.9032  2.4015 -1.2385
   30MOL   H180 7778   4.653   5.537   7.426  1.3975 -2.2857  1.8277
   30MOL   H181 7779   4.813   5.545   7.513  1.8227 -0.7349 -3.4072
   30MOL   H182 7780   4.730   5.926   7.119 -0.5467 -0.9302  0.5562
   30MOL   H183 7781   4.854   5.934   7.252  1.0437 -0.6058 -0.7472
   30MOL   C184 7782   4.659   6.014   7.293  0.3278  0.0693  0.4638
   30MOL   C185 7783   4.513   6.018   7.250  0.1818  0.4360  0.4995
   30MOL   C186 7784   4.405   6.097   7.326 -0.3068 -0.5398 -0.3381
   30MOL   C187 7785   4.394   5.950   7.318 -0.4663 -0.2053 -0.3145
   30MOL   C188 7786   4.725   6.155   7.279  0.2586  0.3080 -0.2020
   30MOL   H189 7787   4.657   6.002   7.401  1.0678  0.9384  0.5857
   30MOL   H190 7788   4.510   6.038   7.143 -0.0327  0.7580  0.5652
   30MOL   H191 7789   4.344   6.167   7.269  1.2233 -0.4219 -1.8637
   30MOL   H192 7790   4.422   6.129   7.429  0.4440 -0.7207 -0.4032
   30MOL   H193 7791   4.316   5.909   7.253 -0.2238 -1.5539  0.2198
   30MOL   H194 7792   4.408   5.906   7.416  0.0713  1.1153  0.2012
   30MOL   H195 7793   4.649   6.233   7.280 -0.7956 -0.7280  2.1352
   30MOL   H196 7794   4.758   6.160   7.175  1.2540 -1.4132  0.0169
   30MOL   C197 7795   4.844   6.193   7.376 -0.0223  0.1463 -0.2228
   30MOL   C198 7796   4.795   6.231   7.510 -0.7875 -0.3630 -0.0346
   30MOL   C199 7797   4.884   6.227   7.625 -0.2584 -0.8417 -0.1560
   30MOL   C200 7798   4.771   6.127   7.610  0.0059  0.9134  0.2142
   30MOL   C201 7799   4.906   6.322   7.310  0.1144  0.8997  0.1564
   30MOL   H202 7800   4.920   6.115   7.383  0.2042  0.1242 -2.4140
   30MOL   H203 7801   4.712   6.302   7.506 -0.6066 -0.1749 -0.5296
   30MOL   H204 7802   4.986   6.193   7.609 -0.0603 -0.7571  0.8863
   30MOL   H205 7803   4.889   6.317   7.685 -0.0768 -1.1794  0.3425
   30MOL   H206 7804   4.806   6.028   7.584  1.3788  1.5894 -0.6119
   30MOL   H207 7805   4.680   6.140   7.668  0.9865  1.8584  1.5893
   30MOL   H208 7806   4.821   6.369   7.260 -2.4847 -0.0026  3.5478
   30MOL   H209 7807   4.950   6.388   7.385  0.0068 -0.1022  1.1025
   30MOL   C210 7808   5.020   6.286   7.214  0.6123 -0.4750 -0.4191
   30MOL   C211 7809   5.026   6.376   7.094  0.3313  0.0854 -0.2804
   30MOL   C212 7810   5.016   6.528   7.121  0.2037 -0.0286 -0.0019
   30MOL   C213 7811   5.134   6.479   7.052 -0.6047  0.7677 -0.2834
   30MOL   C214 7812   5.157   6.289   7.297  0.5638  0.0291  0.8786
   30MOL   H215 7813   5.007   6.182   7.184 -0.8007 -0.4514  0.0485
   30MOL   H216 7814   4.965   6.340   7.012 -0.8596  1.4483 -0.0034
   30MOL   H217 7815   4.951   6.591   7.061 -0.2564  0.0021  0.5264
   30MOL   H218 7816   5.006   6.550   7.227 -1.7362  1.2267 -0.4163
   30MOL   H219 7817   5.145   6.508   6.948 -0.3871 -0.4138 -0.5961
   30MOL   H220 7818   5.227   6.493   7.108  0.2344  4.0380 -2.3501
   30MOL   H221 7819   5.188   6.393   7.304 -0.3327  0.3456  0.3388
   30MOL   H222 7820   5.148   6.259   7.401  0.5633 -0.9067  0.6086
   30MOL   C223 7821   5.275   6.206   7.248 -0.2654  0.5680 -0.0830
   30MOL   C224 7822   5.254   6.053   7.289 -0.1723 -0.0632 -0.4693
   30MOL   C225 7823   5.173   5.950   7.212  0.3993 -0.0648 -0.3166
   30MOL   C226 7824   5.326   5.933   7.217  0.4937 -0.4531 -0.3367
   30MOL   C227 7825   5.417   6.263   7.298  0.6550  1.1820 -0.3623
   30MOL   H228 7826   5.268   6.204   7.139 -2.2179  0.7598  0.0115
   30MOL   H229 7827   5.288   6.044   7.392  0.7382  0.2582 -0.7303
   30MOL   H230 7828   5.125   5.993   7.125  0.8694  4.3813  1.5289
   30MOL   H231 7829   5.130   5.870   7.272 -0.0068  1.5380  1.5660
   30MOL   H232 7830   5.359   5.846   7.273 -0.6228 -0.8238 -0.2512
   30MOL   H233 7831   5.369   5.931   7.117  0.3371 -0.8036 -0.3944
   30MOL   H234 7832   5.431   6.371   7.293 -1.4419  1.7271  3.6233
   30MOL   H235 7833   5.430   6.232   7.401  1.5934  0.2014 -0.7691
   30MOL   C236 7834   5.542   6.208   7.224  0.3805  0.4355 -0.1751
   30MOL   C237 7835   5.667   6.275   7.280  0.7694 -0.3870  1.1612
   30MOL   C238 7836   5.733   6.224   7.406  0.5899 -0.0582 -0.2041
   30MOL   C239 7837   5.805   6.217   7.278 -0.6673  0.4117  0.1620
   30MOL   C240 7838   5.523   6.232   7.068 -0.2192  0.4706  0.5897
   30MOL   H241 7839   5.531   6.101   7.240 -0.3595  0.4102 -0.8287
   30MOL   H242 7840   5.673   6.379   7.251 -0.6267 -0.7324 -0.4649
   30MOL   H243 7841   5.770   6.285   7.488 -0.1443 -1.4558  1.1904
   30MOL   H244 7842   5.703   6.125   7.440  0.8954  0.1278  0.6236
   30MOL   H245 7843   5.822   6.115   7.246  0.4277  0.2736  1.1858
   30MOL   H246 7844   5.883   6.291   7.260  0.0835 -0.2366  0.7208
   30MOL   H247 7845   5.437   6.178   7.029 -0.7610  1.3441  0.5448
   30MOL   H248 7846   5.496   6.337   7.053 -0.7409  0.4756  1.5419
   30MOL   C249 7847   5.641   6.194   6.978  0.1143 -0.6766 -0.1386
   30MOL   C250 7848   5.614   6.239   6.838 -0.6750 -0.0375  0.0453
   30MOL   C251 7849   5.630   6.390   6.797  1.1865  0.4697 -0.3235
   30MOL   C252 7850   5.726   6.288   6.750  0.3645  0.3640  0.0066
   30MOL   C253 7851   5.654   6.041   6.992 -0.1844 -0.1153 -0.0964
   30MOL   H254 7852   5.730   6.247   7.014 -0.7557  0.2557  0.6874
   30MOL   H255 7853   5.537   6.177   6.793 -1.1763  2.1891 -2.2959
   30MOL   H256 7854   5.561   6.434   6.725 -1.4155 -1.3742  0.9250
   30MOL   H257 7855   5.660   6.461   6.874  0.1569 -1.8075  2.2790
   30MOL   H258 7856   5.726   6.272   6.643 -0.1096  1.4136 -0.1529
   30MOL   H259 7857   5.824   6.285   6.797 -0.8396  1.3623  2.6830
   30MOL   H260 7858   5.725   5.993   6.925 -1.2093  1.6205 -2.5117
   30MOL   H261 7859   5.561   5.986   6.976 -0.6737  0.3874  0.9847
   30MOL   H262 7860   5.694   6.021   7.092  2.4008 -2.1546 -1.4712
   31MOL     C1 7861   0.372   4.131   4.949 -0.3728  0.6432 -0.2818
   31MOL     C2 7862   0.398   4.070   4.814 -0.2514 -0.4071  0.2150
   31MOL     C3 7863   0.514   4.098   4.726 -0.4060 -0.6917 -0.0173
   31MOL     C4 7864   0.378   4.142   4.684  0.2476 -0.3491 -0.0034
   31MOL     C5 7865   0.463   4.092   5.068  0.4861 -0.8003  0.2521
   31MOL     H6 7866   0.369   4.240   4.943  2.2503  0.6073 -3.2455
   31MOL     H7 7867   0.353   3.971   4.809 -1.0934  0.0144 -0.6508
   31MOL     H8 7868   0.576   4.176   4.771 -0.4776 -0.9179  0.4649
   31MOL     H9 7869   0.567   4.011   4.687  0.8696 -0.3039  0.8155
   31MOL    H10 7870   0.331   4.086   4.603 -3.3076  1.2520  0.8529
   31MOL    H11 7871   0.338   4.243   4.691 -1.1032 -0.6621 -2.5329
   31MOL    H12 7872   0.467   4.174   5.140 -0.7436  1.7121 -2.4074
   31MOL    H13 7873   0.566   4.094   5.034 -0.0904 -1.6904 -1.6217
   31MOL    H14 7874   0.274   4.089   4.974 -0.7789  2.6296  1.5806
   31MOL    C15 7875   0.436   3.966   5.153  0.1116  0.5651  0.0024
   31MOL    C16 7876   0.436   3.842   5.063  0.1066 -0.0859 -0.9296
   31MOL    C17 7877   0.312   3.800   4.983 -0.3569  0.1109  0.4331
   31MOL    C18 7878   0.368   3.712   5.097  0.5683 -0.4306 -0.1115
   31MOL    C19 7879   0.552   3.944   5.261  0.2642 -0.4489  0.2498
   31MOL    H20 7880   0.339   3.989   5.197 -0.5963 -1.6085 -0.3605
   31MOL    H21 7881   0.539   3.833   5.027  0.5492 -0.0223  0.2787
   31MOL    H22 7882   0.315   3.765   4.881  3.2991  0.2279  0.4470
   31MOL    H23 7883   0.223   3.858   5.004 -0.5508  0.7084 -1.9206
   31MOL    H24 7884   0.302   3.704   5.183  0.5608 -1.7466 -0.2252
   31MOL    H25 7885   0.400   3.611   5.071 -0.6628 -1.3834  1.9358
   31MOL    H26 7886   0.646   3.957   5.207  0.1631 -1.3832 -0.1527
   31MOL    H27 7887   0.541   3.838   5.283 -0.0898 -0.6829 -1.0154
   31MOL    C28 7888   0.536   4.017   5.393 -0.1305  0.5712  0.9361
   31MOL    C29 7889   0.665   3.995   5.465  0.1023  0.3346  0.1856
   31MOL    C30 7890   0.787   4.079   5.431  0.7480  0.1740 -0.1907
   31MOL    C31 7891   0.715   4.106   5.563  0.4180  0.0440  0.1359
   31MOL    C32 7892   0.405   3.979   5.462 -0.1709 -0.2205  0.7673
   31MOL    H33 7893   0.534   4.121   5.360 -1.3676  0.0420 -0.7380
   31MOL    H34 7894   0.690   3.893   5.494 -0.0582  0.5368  1.0265
   31MOL    H35 7895   0.768   4.150   5.350  1.3636  0.2478 -0.2707
   31MOL    H36 7896   0.888   4.040   5.435  0.0844 -1.7171 -0.9543
   31MOL    H37 7897   0.641   4.183   5.582 -0.8140 -1.0900  0.0130
   31MOL    H38 7898   0.756   4.059   5.652 -2.7954 -0.9702  1.1373
   31MOL    H39 7899   0.407   3.870   5.461  1.0480 -0.2268  2.0495
   31MOL    H40 7900   0.316   4.013   5.408  0.4615  0.6457  0.2629
   31MOL    C41 7901   0.389   4.023   5.606  0.2865  0.3552  0.4063
   31MOL    C42 7902   0.298   3.923   5.670  0.3224  0.7065  0.2858
   31MOL    C43 7903   0.324   3.879   5.812 -0.0096  0.2045  0.8878
   31MOL    C44 7904   0.354   3.784   5.699  0.2967 -0.2185  0.4497
   31MOL    C45 7905   0.340   4.171   5.626  0.4622 -0.3720 -0.0280
   31MOL    H46 7906   0.491   4.018   5.644  0.1244 -1.1616  0.6815
   31MOL    H47 7907   0.195   3.934   5.636 -0.4076  1.2489  2.5573
   31MOL    H48 7908   0.408   3.909   5.874  0.7681 -2.0910  0.9858
   31MOL    H49 7909   0.231   3.854   5.863 -1.3782  1.7080 -0.7899
   31MOL    H50 7910   0.296   3.693   5.708 -2.3470  1.5010  1.2273
   31MOL    H51 7911   0.461   3.771   5.683  0.6115  2.0686  0.5311
   31MOL    H52 7912   0.240   4.173   5.583  0.6078  0.3836 -0.3537
   31MOL    H53 7913   0.392   4.237   5.556 -0.7254 -0.5212 -1.0702
   31MOL    C54 7914   0.339   4.243   5.764 -0.2428  0.0612 -0.4200
   31MOL    C55 7915   0.481   4.277   5.805 -0.3831  0.0229  0.1326
   31MOL    C56 7916   0.576   4.180   5.869 -0.6972 -0.1176  0.0351
   31MOL    C57 7917   0.512   4.286   5.951  0.1348 -0.0001 -0.0865
   31MOL    C58 7918   0.246   4.363   5.784  0.1795  0.3982  0.7790
   31MOL    H59 7919   0.300   4.174   5.839  1.2940  3.3591  3.5176
   31MOL    H60 7920   0.525   4.355   5.743 -0.9915  0.9607  0.8703
   31MOL    H61 7921   0.544   4.079   5.894  1.3055 -0.0242  3.2395
   31MOL    H62 7922   0.682   4.190   5.846 -0.1132 -0.8444  2.3150
   31MOL    H63 7923   0.586   4.347   6.002 -0.1365  0.0533  0.2442
   31MOL    H64 7924   0.438   4.248   6.021 -0.1827  0.2768 -0.2728
   31MOL    H65 7925   0.272   4.419   5.874  0.4457  2.5289 -0.5728
   31MOL    H66 7926   0.260   4.435   5.703  0.1932 -1.8166 -1.2163
   31MOL    C67 7927   0.091   4.337   5.796  0.0473  0.2732  0.5983
   31MOL    C68 7928   0.046   4.271   5.924 -0.0987  0.0777  0.2841
   31MOL    C69 7929   7.755   4.190   5.942  1.2849 -0.5732  0.6400
   31MOL    C70 7930   0.055   4.127   5.938  0.5825 -0.4122  0.0969
   31MOL    C71 7931   0.006   4.457   5.763  0.8212 -0.0840 -0.0874
   31MOL    H72 7932   0.081   4.264   5.715  0.4892  0.0444  0.7460
   31MOL    H73 7933   0.076   4.335   6.007 -0.9269  0.7585  0.0753
   31MOL    H74 7934   7.707   4.182   6.040  1.2184  0.7237  0.7178
   31MOL    H75 7935   7.699   4.165   5.853  0.5885 -1.5889  1.3428
   31MOL    H76 7936   0.082   4.072   5.848 -0.4459  0.5581 -0.8189
   31MOL    H77 7937   0.111   4.106   6.029 -2.1751 -1.8963  1.4984
   31MOL    H78 7938   0.045   4.543   5.819  2.9984  0.6332 -2.5882
   31MOL    H79 7939   7.741   4.433   5.780  0.6544 -0.8654 -2.1387
   31MOL    C80 7940   0.004   4.507   5.615 -0.0196 -0.7012  0.0355
   31MOL    C81 7941   7.754   4.636   5.607  0.0352  0.1566 -0.3224
   31MOL    C82 7942   7.770   4.736   5.495  0.1668  0.5290  0.3121
   31MOL    C83 7943   7.793   4.777   5.633  0.7053 -0.2052 -0.4288
   31MOL    C84 7944   7.781   4.396   5.518 -0.1314  0.1415 -0.1678
   31MOL    H85 7945   0.106   4.539   5.591 -0.5543 -0.7445 -2.3820
   31MOL    H86 7946   7.652   4.613   5.638  1.2106 -1.8858  2.1609
   31MOL    H87 7947   7.683   4.776   5.444  2.2712  1.7588 -2.4648
   31MOL    H88 7948   0.019   4.723   5.432  1.1979 -1.2856  2.0568
   31MOL    H89 7949   0.057   4.799   5.661  0.1947  0.2993  1.1349
   31MOL    H90 7950   7.717   4.847   5.667  1.1777 -0.3407  0.9210
   31MOL    H91 7951   7.813   4.294   5.542 -2.3091 -0.3000  0.9574
   31MOL    H92 7952   7.674   4.390   5.534  0.0649  0.2847  1.3112
   31MOL    C93 7953   7.802   4.412   5.371 -0.4022  0.4988  0.6655
   31MOL    C94 7954   0.110   4.399   5.337 -0.1141  0.4264  0.4576
   31MOL    C95 7955   0.159   4.401   5.197 -0.0248  0.8105  0.1870
   31MOL    C96 7956   0.201   4.509   5.289 -0.8866  0.0736 -0.1407
   31MOL    C97 7957   7.704   4.305   5.302  0.1481 -0.0576  0.2771
   31MOL    H98 7958   7.773   4.510   5.332 -1.1030 -0.6914 -1.9026
   31MOL    H99 7959   0.160   4.328   5.402 -2.9168 -1.0963  1.0282
   31MOL   H100 7960   0.230   4.323   5.172 -0.0747  0.5936  0.7214
   31MOL   H101 7961   0.092   4.438   5.120 -0.9502 -0.5306  0.3360
   31MOL   H102 7962   0.306   4.508   5.314 -0.7499 -1.4885 -0.7103
   31MOL   H103 7963   0.159   4.609   5.275  2.1297  1.1863 -1.6219
   31MOL   H104 7964   7.734   4.204   5.331 -1.0041 -1.0734 -1.9501
   31MOL   H105 7965   7.737   4.309   5.199  1.4140 -0.6192  0.6528
   31MOL   C106 7966   7.546   4.313   5.303  0.2201 -0.4204  0.5947
   31MOL   C107 7967   7.490   4.441   5.251 -0.6467  0.3622  0.3192
   31MOL   C108 7968   7.375   4.499   5.314 -0.1013  0.7532  1.0987
   31MOL   C109 7969   7.503   4.566   5.339 -0.3021  0.8553 -0.3570
   31MOL   C110 7970   7.478   4.193   5.234 -0.2574 -0.5148  0.2199
   31MOL   H111 7971   7.513   4.309   5.407  1.6020  0.4702  1.0733
   31MOL   H112 7972   7.517   4.456   5.146 -0.1932 -1.8962  0.0938
   31MOL   H113 7973   7.302   4.550   5.251 -0.7195  0.6046  1.6759
   31MOL   H114 7974   7.342   4.454   5.408  0.6635  1.2293  1.6015
   31MOL   H115 7975   7.533   4.567   5.443 -3.5186  0.1030  0.6424
   31MOL   H116 7976   7.507   4.664   5.290 -0.1333  0.6690 -0.7137
   31MOL   H117 7977   7.370   4.196   5.250 -0.1333 -0.8678  1.1376
   31MOL   H118 7978   7.509   4.194   5.129  0.0625  2.1985  0.2948
   31MOL   C119 7979   7.507   4.052   5.287 -0.6621  0.5389  0.3870
   31MOL   C120 7980   7.630   3.982   5.232 -0.1765  1.2234  0.1465
   31MOL   C121 7981   7.619   3.931   5.091 -0.5723  0.0170  0.1193
   31MOL   C122 7982   7.631   3.832   5.203  0.1087 -0.3345 -0.2826
   31MOL   C123 7983   7.506   4.043   5.441  0.3437  0.3801  0.1879
   31MOL   H124 7984   7.420   4.005   5.242 -0.0938  0.1579 -0.3425
   31MOL   H125 7985   7.727   4.014   5.270 -0.3672  2.9105 -0.7708
   31MOL   H126 7986   7.711   3.943   5.035 -0.3158  0.3944  0.6169
   31MOL   H127 7987   7.517   3.939   5.054 -1.2083  0.6162  1.9288
   31MOL   H128 7988   7.545   3.767   5.219 -0.2692  0.3649  0.5446
   31MOL   H129 7989   7.726   3.779   5.210  0.3717  0.3558  1.8372
   31MOL   H130 7990   7.547   3.943   5.457 -1.9944  0.1086  5.4218
   31MOL   H131 7991   7.572   4.113   5.493  1.6465 -1.8203  1.5938
   31MOL   C132 7992   7.373   4.065   5.513 -0.8921  0.1504 -0.3265
   31MOL   C133 7993   7.389   4.113   5.655  0.4033  0.2262  0.7726
   31MOL   C134 7994   7.300   4.224   5.708 -0.1616  0.5179  0.2679
   31MOL   C135 7995   7.443   4.253   5.684  0.0967  0.3093  0.1275
   31MOL   C136 7996   7.282   3.940   5.513 -0.5308 -0.9590  0.0068
   31MOL   H137 7997   7.323   4.151   5.470 -1.5756  1.2061  2.4968
   31MOL   H138 7998   7.421   4.036   5.724  0.7975 -1.2902 -1.0630
   31MOL   H139 7999   7.237   4.273   5.633  1.1180 -2.7888 -3.1284
   31MOL   H140 8000   7.269   4.242   5.811 -1.6470  1.5316 -0.3364
   31MOL   H141 8001   7.462   4.328   5.608 -0.7576  1.5703  1.1519
   31MOL   H142 8002   7.496   4.252   5.779  0.6852 -1.2498 -0.1903
   31MOL   H143 8003   7.335   3.865   5.454  0.2379 -1.1650  0.9331
   31MOL   H144 8004   7.277   3.901   5.615 -0.3519 -0.0672  0.3655
   31MOL   C145 8005   7.138   3.950   5.455 -1.0384 -0.3486  0.9022
   31MOL   C146 8006   7.108   3.828   5.366 -0.5586  0.0056  0.0967
   31MOL   C147 8007   7.005   3.843   5.260 -0.3692 -0.2562 -0.3975
   31MOL   C148 8008   7.147   3.832   5.220 -0.5500  0.0646 -0.8826
   31MOL   C149 8009   7.037   3.959   5.573  0.3544  0.4662  0.4310
   31MOL   H150 8010   7.134   4.038   5.391 -1.4387 -0.2972  0.9961
   31MOL   H151 8011   7.113   3.728   5.408 -1.1484 -0.0922 -0.0599
   31MOL   H152 8012   6.940   3.757   5.245  0.6614 -1.2004  0.4622
   31MOL   H153 8013   6.957   3.935   5.229 -1.0497  0.2423  2.0216
   31MOL   H154 8014   7.188   3.924   5.177  0.2888  0.2492  0.2641
   31MOL   H155 8015   7.180   3.743   5.167  1.0294  0.1420 -0.0760
   31MOL   H156 8016   7.024   3.873   5.639 -0.3714  0.3627  0.1596
   31MOL   H157 8017   7.086   4.036   5.633 -2.8274  0.6166  2.9787
   31MOL   C158 8018   6.898   4.015   5.538  0.0193  0.2947  0.2231
   31MOL   C159 8019   6.853   4.132   5.629 -0.3849  0.1632 -0.4845
   31MOL   C160 8020   6.928   4.263   5.627 -0.5748  0.2895  0.4625
   31MOL   C161 8021   6.786   4.251   5.569 -0.6369 -0.0658 -0.6128
   31MOL   C162 8022   6.799   3.897   5.527  0.2538 -0.4364  0.1306
   31MOL   H163 8023   6.913   4.051   5.436 -1.5210  0.8585  0.1904
   31MOL   H164 8024   6.831   4.096   5.730 -2.5331 -0.4180 -1.1408
   31MOL   H165 8025   7.018   4.279   5.567 -1.0998  1.5736 -0.0005
   31MOL   H166 8026   6.931   4.309   5.725 -2.0489  0.7190  0.3175
   31MOL   H167 8027   6.716   4.309   5.629  0.2372  0.4151 -0.0477
   31MOL   H168 8028   6.754   4.238   5.466 -0.2458 -1.5783 -0.5536
   31MOL   H169 8029   6.793   3.845   5.623  0.6071 -0.2395  0.2619
   31MOL   H170 8030   6.845   3.824   5.461  0.5101  0.0219 -0.2055
   31MOL   C171 8031   6.654   3.931   5.480 -0.0773  0.3958  0.3743
   31MOL   C172 8032   6.606   3.839   5.374 -0.3896  0.2787  0.1185
   31MOL   C173 8033   6.499   3.870   5.275  0.4459 -0.4766  0.0285
   31MOL   C174 8034   6.641   3.863   5.227 -0.5212  0.0305 -0.0379
   31MOL   C175 8035   6.564   3.950   5.608 -0.1861 -0.1524  0.3588
   31MOL   H176 8036   6.663   4.033   5.443  2.5725  0.3729  0.8782
   31MOL   H177 8037   6.613   3.737   5.413 -0.5303  0.1229 -0.2667
   31MOL   H178 8038   6.432   3.799   5.227 -1.7059  0.4538  1.5449
   31MOL   H179 8039   6.452   3.968   5.279  1.4985  0.0784 -0.9238
   31MOL   H180 8040   6.697   3.955   5.212 -1.0683  0.2456 -0.7959
   31MOL   H181 8041   6.663   3.774   5.168 -1.6847  0.4438 -1.1159
   31MOL   H182 8042   6.609   4.019   5.679 -0.8462 -0.1535  0.7813
   31MOL   H183 8043   6.566   3.852   5.657 -0.5715 -0.1020  0.4786
   31MOL   C184 8044   6.422   3.996   5.598 -0.6311 -0.5802  0.5637
   31MOL   C185 8045   6.409   4.151   5.586  0.6848 -0.2184  0.0052
   31MOL   C186 8046   6.304   4.217   5.500 -0.6785  0.2155 -0.0043
   31MOL   C187 8047   6.447   4.238   5.471  0.2128 -0.2422 -0.2041
   31MOL   C188 8048   6.343   3.936   5.717 -0.6293 -0.2340  0.5540
   31MOL   H189 8049   6.394   3.949   5.504 -0.4474 -0.6585  0.5464
   31MOL   H190 8050   6.430   4.199   5.682  0.4986  0.4713 -0.2945
   31MOL   H191 8051   6.244   4.287   5.557 -1.4834 -0.2546 -0.2726
   31MOL   H192 8052   6.248   4.148   5.438  0.7120 -0.8064 -0.1520
   31MOL   H193 8053   6.478   4.340   5.489  2.2101 -1.1090  1.4720
   31MOL   H194 8054   6.488   4.190   5.382 -1.4030 -0.2732 -0.9555
   31MOL   H195 8055   6.382   3.966   5.814 -2.4684 -3.5309  2.4219
   31MOL   H196 8056   6.357   3.828   5.708  1.8848  0.1849 -1.1391
   31MOL   C197 8057   6.194   3.964   5.728 -0.1987  0.6654 -0.2704
   31MOL   C198 8058   6.145   3.910   5.864 -0.0556 -0.3285  0.0338
   31MOL   C199 8059   6.017   3.976   5.935  0.0143  1.2504  0.0614
   31MOL   C200 8060   6.156   3.977   5.995  0.4627  0.9415  0.1885
   31MOL   C201 8061   6.116   3.898   5.615 -0.1941 -0.0358 -0.1477
   31MOL   H202 8062   6.173   4.071   5.727  1.2182  0.9706 -1.7935
   31MOL   H203 8063   6.153   3.801   5.865  3.9991 -0.1697 -2.3130
   31MOL   H204 8064   5.977   4.071   5.903 -0.1854  0.1769 -3.0126
   31MOL   H205 8065   5.948   3.903   5.977  0.8314  0.6061  0.3134
   31MOL   H206 8066   6.201   4.076   6.007  1.3188  0.4208  1.4133
   31MOL   H207 8067   6.172   3.911   6.080  0.0155  0.9984  0.3178
   31MOL   H208 8068   6.166   3.935   5.526 -0.0412  0.9696  0.3471
   31MOL   H209 8069   6.134   3.790   5.613  1.1293  0.1971 -1.2785
   31MOL   C210 8070   5.968   3.920   5.613  0.4170  0.3921 -0.1827
   31MOL   C211 8071   5.912   3.979   5.484  0.1490 -0.0119  0.3678
   31MOL   C212 8072   5.797   4.079   5.472 -0.6472  0.0896 -0.1550
   31MOL   C213 8073   5.945   4.115   5.453  0.5177 -1.3285  0.6300
   31MOL   C214 8074   5.894   3.787   5.660 -0.0809 -0.4720 -0.3213
   31MOL   H215 8075   5.945   3.992   5.691  1.3251  1.3198 -0.7588
   31MOL   H216 8076   5.903   3.909   5.401 -1.0182  1.4869 -0.8100
   31MOL   H217 8077   5.735   4.078   5.383 -0.7008 -0.7007 -0.1131
   31MOL   H218 8078   5.757   4.148   5.546  0.6257  3.0653 -2.1649
   31MOL   H219 8079   5.963   4.137   5.348  1.1308 -0.0647  0.9971
   31MOL   H220 8080   5.991   4.177   5.529 -1.0024  1.1492 -0.4264
   31MOL   H221 8081   5.944   3.711   5.600 -1.4793  0.3910 -2.6607
   31MOL   H222 8082   5.913   3.765   5.765 -0.4112 -0.5781 -0.2799
   31MOL   C223 8083   5.738   3.780   5.646 -0.3258 -0.3064  0.1906
   31MOL   C224 8084   5.676   3.888   5.732  0.6482  0.2325  0.0490
   31MOL   C225 8085   5.542   3.874   5.805 -0.1115 -0.0260  0.1397
   31MOL   C226 8086   5.675   3.865   5.880  0.3079  0.5020 -0.1453
   31MOL   C227 8087   5.691   3.636   5.690  0.1302 -0.1810  0.3352
   31MOL   H228 8088   5.717   3.794   5.540  1.2064  2.7372  0.2075
   31MOL   H229 8089   5.689   3.990   5.698  1.2065  0.1462  0.0098
   31MOL   H230 8090   5.492   3.777   5.804  1.5107 -0.8767 -2.1688
   31MOL   H231 8091   5.491   3.970   5.809  0.2856  0.1221  1.7994
   31MOL   H232 8092   5.696   3.949   5.946  3.2133 -1.5756  1.6647
   31MOL   H233 8093   5.687   3.771   5.933  0.1268 -0.3217 -1.5138
   31MOL   H234 8094   5.716   3.609   5.793 -2.0111  0.3160  1.0210
   31MOL   H235 8095   5.582   3.630   5.689  0.2044 -1.4656  0.1727
   31MOL   C236 8096   5.752   3.514   5.606  0.6474  0.3311 -0.7307
   31MOL   C237 8097   5.727   3.548   5.460 -0.3790  0.5750  0.8958
   31MOL   C238 8098   5.835   3.589   5.349  0.1373  0.0133 -0.0800
   31MOL   C239 8099   5.777   3.447   5.360 -0.8409 -0.8760  0.4554
   31MOL   C240 8100   5.697   3.369   5.640  0.0449 -0.6548  0.0038
   31MOL   H241 8101   5.860   3.520   5.601  0.7192 -0.0501  0.2843
   31MOL   H242 8102   5.630   3.590   5.433  0.3293  0.6959 -1.5987
   31MOL   H243 8103   5.808   3.627   5.250 -0.6967 -1.5164 -0.4542
   31MOL   H244 8104   5.937   3.609   5.380 -0.3773  2.5702  0.1181
   31MOL   H245 8105   5.857   3.377   5.385 -0.4357 -0.9214 -0.9248
   31MOL   H246 8106   5.708   3.413   5.284 -0.1285  0.3227 -0.7448
   31MOL   H247 8107   5.602   3.390   5.691  1.4611  0.1014  2.4299
   31MOL   H248 8108   5.677   3.302   5.557  1.0937 -0.8671 -0.0831
   31MOL   C249 8109   5.785   3.297   5.747  0.2450 -0.2278 -0.0243
   31MOL   C250 8110   5.901   3.216   5.677 -0.4215  0.0142 -0.1411
   31MOL   C251 8111   6.031   3.276   5.635  0.0683 -0.4304  0.2691
   31MOL   C252 8112   6.025   3.162   5.738  0.1657 -0.0928 -0.4732
   31MOL   C253 8113   5.702   3.209   5.841  0.4870 -0.0402  0.5600
   31MOL   H254 8114   5.841   3.367   5.810  0.3190 -0.9317  0.6987
   31MOL   H255 8115   5.868   3.140   5.606  2.1153 -3.5849  2.3489
   31MOL   H256 8116   6.057   3.250   5.532  1.0492  1.0985  0.1093
   31MOL   H257 8117   6.066   3.375   5.663  0.4639 -0.6915  0.6868
   31MOL   H258 8118   6.081   3.074   5.709 -2.9746 -2.5336  0.6786
   31MOL   H259 8119   6.041   3.181   5.843 -1.4467  1.2064 -0.4387
   31MOL   H260 8120   5.663   3.129   5.779 -0.6555  0.1204  1.0679
   31MOL   H261 8121   5.616   3.261   5.883  0.9062  1.5708 -0.5098
   31MOL   H262 8122   5.762   3.172   5.925  1.3164  1.9626  0.8893
   32MOL     C1 8123   3.988   3.260   1.352  0.3904 -0.5464 -0.3778
   32MOL     C2 8124   3.893   3.213   1.462 -0.0230 -0.6961  0.4643
   32MOL     C3 8125   3.941   3.136   1.585 -0.1904 -0.0263 -0.7172
   32MOL     C4 8126   3.852   3.067   1.484  0.1987  0.2935  0.8096
   32MOL     C5 8127   4.060   3.390   1.397 -0.5373 -1.0155  0.7177
   32MOL     H6 8128   4.064   3.187   1.325 -0.3239 -0.5428 -2.4531
   32MOL     H7 8129   3.811   3.282   1.483  0.9631 -0.7701  5.0230
   32MOL     H8 8130   4.046   3.113   1.602 -0.2918 -0.4336 -0.6346
   32MOL     H9 8131   3.908   3.178   1.680  1.8932 -0.9759  0.4447
   32MOL    H10 8132   3.749   3.050   1.515  0.3561  0.9572  1.7087
   32MOL    H11 8133   3.901   2.990   1.424  0.6027  1.0889  0.1155
   32MOL    H12 8134   4.093   3.351   1.493  1.2942 -2.9856 -0.6678
   32MOL    H13 8135   3.991   3.474   1.396 -0.8777 -1.2983 -0.5943
   32MOL    H14 8136   3.926   3.273   1.264  0.4018 -1.5246 -0.5357
   32MOL    C15 8137   4.171   3.431   1.304 -0.5088 -0.5196  0.3419
   32MOL    C16 8138   4.114   3.458   1.162  0.4365 -0.0450  0.1073
   32MOL    C17 8139   4.117   3.354   1.053  0.8686  0.0386  0.0394
   32MOL    C18 8140   4.210   3.481   1.042 -0.0673 -0.1276 -0.2903
   32MOL    C19 8141   4.251   3.556   1.351 -0.4375 -0.8168 -0.0048
   32MOL    H20 8142   4.237   3.345   1.295 -1.2057 -1.0424  0.1565
   32MOL    H21 8143   4.039   3.537   1.164  0.3307 -0.1515  0.5131
   32MOL    H22 8144   4.019   3.356   1.006  0.9453  1.8867 -0.1047
   32MOL    H23 8145   4.158   3.259   1.086  1.8312  0.5712  0.3918
   32MOL    H24 8146   4.315   3.456   1.055 -0.7814 -2.4174  1.4099
   32MOL    H25 8147   4.181   3.573   0.992 -1.5054 -0.9319 -0.9768
   32MOL    H26 8148   4.194   3.648   1.342  0.8357 -0.0982 -1.0384
   32MOL    H27 8149   4.335   3.564   1.282  1.0174 -0.9829  1.7062
   32MOL    C28 8150   4.289   3.563   1.502 -0.3679 -0.3499  0.1346
   32MOL    C29 8151   4.331   3.709   1.542 -0.7303  0.3658  0.4312
   32MOL    C30 8152   4.240   3.830   1.591 -0.5269  0.3289  0.3761
   32MOL    C31 8153   4.319   3.757   1.691  0.0304 -0.9118 -0.6497
   32MOL    C32 8154   4.410   3.470   1.518 -0.4290 -0.2551 -0.7675
   32MOL    H33 8155   4.205   3.531   1.564 -1.1778  0.3477 -0.5786
   32MOL    H34 8156   4.424   3.743   1.497 -0.0933  0.2763  1.6843
   32MOL    H35 8157   4.131   3.820   1.594 -0.6182  0.6795 -1.2933
   32MOL    H36 8158   4.280   3.928   1.568 -0.8840  0.5105  0.5079
   32MOL    H37 8159   4.262   3.689   1.754 -1.9258  0.5993 -0.7289
   32MOL    H38 8160   4.387   3.830   1.734  0.6792 -0.1614 -2.8862
   32MOL    H39 8161   4.475   3.503   1.436  1.7371  0.2974  1.1349
   32MOL    H40 8162   4.378   3.371   1.486  0.4038 -0.4969 -0.8612
   32MOL    C41 8163   4.486   3.453   1.651  0.1552 -0.3492  0.1315
   32MOL    C42 8164   4.610   3.374   1.628 -0.6114  0.3316 -0.3118
   32MOL    C43 8165   4.741   3.411   1.690 -0.6681  0.0966  0.7884
   32MOL    C44 8166   4.715   3.440   1.543 -0.3981  0.3964 -0.6041
   32MOL    C45 8167   4.395   3.406   1.763 -0.2571 -0.4945 -0.3617
   32MOL    H46 8168   4.518   3.553   1.681 -1.1791  0.4472 -1.0382
   32MOL    H47 8169   4.586   3.268   1.618 -1.9568  0.6924 -1.0168
   32MOL    H48 8170   4.761   3.508   1.735  2.1598 -0.5389  1.0358
   32MOL    H49 8171   4.792   3.327   1.738 -1.1139  0.5770  2.1187
   32MOL    H50 8172   4.769   3.378   1.470  1.7097  0.8694  0.4987
   32MOL    H51 8173   4.698   3.541   1.507 -4.3261 -0.8331 -2.4083
   32MOL    H52 8174   4.351   3.313   1.726  1.0321 -0.9463 -0.7844
   32MOL    H53 8175   4.309   3.473   1.756 -0.1707 -0.4594 -1.0541
   32MOL    C54 8176   4.453   3.395   1.904 -0.0585  0.1323 -0.4097
   32MOL    C55 8177   4.441   3.525   1.979  0.1426  0.0071  0.1206
   32MOL    C56 8178   4.557   3.619   1.997  0.2297  0.7552 -0.3907
   32MOL    C57 8179   4.490   3.546   2.113 -0.0169 -0.0356 -0.2655
   32MOL    C58 8180   4.387   3.284   1.989  0.2962  0.1076  0.0058
   32MOL    H59 8181   4.556   3.361   1.900  0.1312  0.8323 -1.5512
   32MOL    H60 8182   4.343   3.568   1.962  0.0904 -0.1441  0.0358
   32MOL    H61 8183   4.643   3.581   1.943  0.7924  0.9838  0.3476
   32MOL    H62 8184   4.549   3.727   1.983  0.5293  0.7682 -0.4508
   32MOL    H63 8185   4.428   3.605   2.180  1.4535 -0.4288  1.4771
   32MOL    H64 8186   4.541   3.463   2.162 -0.7029  0.0852  0.6649
   32MOL    H65 8187   4.428   3.296   2.089  0.3865 -1.6663  0.1923
   32MOL    H66 8188   4.281   3.309   1.997  0.2838  0.2108 -0.4540
   32MOL    C67 8189   4.403   3.134   1.937 -0.4390  0.3093 -0.3492
   32MOL    C68 8190   4.539   3.085   1.984 -0.1179 -0.6881 -0.4231
   32MOL    C69 8191   4.623   2.979   1.918  0.6690  0.3505  0.2750
   32MOL    C70 8192   4.667   3.123   1.906  0.2168  0.6541 -0.5884
   32MOL    C71 8193   4.283   3.046   1.993  1.2152  0.1563 -0.0893
   32MOL    H72 8194   4.395   3.125   1.829  3.1638 -0.0595 -0.6564
   32MOL    H73 8195   4.542   3.093   2.093  1.7786  3.6072 -0.6971
   32MOL    H74 8196   4.686   2.919   1.983  1.5086  1.4246  0.4594
   32MOL    H75 8197   4.574   2.934   1.832  0.0867 -0.6678  1.1234
   32MOL    H76 8198   4.659   3.149   1.801 -0.9941 -1.9849 -1.1958
   32MOL    H77 8199   4.755   3.162   1.958 -0.1373 -0.4587  0.9026
   32MOL    H78 8200   4.192   3.104   2.012  0.9218 -0.4038  0.2188
   32MOL    H79 8201   4.298   3.018   2.097  0.3344 -4.2091 -1.0235
   32MOL    C80 8202   4.249   2.908   1.934 -0.7336 -0.5121  0.3755
   32MOL    C81 8203   4.196   2.923   1.789  0.2540  0.3820  0.5982
   32MOL    C82 8204   4.206   2.816   1.685 -0.2230  0.2666 -0.3365
   32MOL    C83 8205   4.290   2.931   1.670  0.0911  0.7178 -0.1789
   32MOL    C84 8206   4.146   2.823   2.013 -0.1058 -0.0231 -0.2025
   32MOL    H85 8207   4.340   2.847   1.929 -0.3455  0.0104  1.1146
   32MOL    H86 8208   4.101   2.976   1.784 -0.0735 -0.2254  0.1710
   32MOL    H87 8209   4.129   2.802   1.610  0.0376 -0.0205 -0.5485
   32MOL    H88 8210   4.248   2.724   1.726  0.1463 -0.1714 -1.6851
   32MOL    H89 8211   4.395   2.906   1.688 -0.1651  1.6410  2.7899
   32MOL    H90 8212   4.266   2.985   1.578 -0.6275 -0.0186 -0.4294
   32MOL    H91 8213   4.053   2.880   2.008  0.4096  0.8322 -0.1952
   32MOL    H92 8214   4.142   2.724   1.969  0.9424 -0.3408  0.4085
   32MOL    C93 8215   4.192   2.780   2.160  0.5436 -0.8685 -0.3045
   32MOL    C94 8216   4.133   2.875   2.266  0.0308  0.5132  0.4721
   32MOL    C95 8217   4.173   2.863   2.413  0.0281 -0.9959  0.7155
   32MOL    C96 8218   4.209   2.989   2.326  0.1079  0.3731 -0.8124
   32MOL    C97 8219   4.158   2.624   2.180  0.4365 -0.3652  0.2755
   32MOL    H98 8220   4.300   2.794   2.164  0.6185 -1.6733  1.0470
   32MOL    H99 8221   4.026   2.887   2.250  0.2936  1.0443 -0.9052
   32MOL   H100 8222   4.095   2.866   2.489  0.7561  0.6308  1.4130
   32MOL   H101 8223   4.269   2.824   2.447  0.3368  0.1010  1.1244
   32MOL   H102 8224   4.162   3.079   2.368  2.4902  1.3492 -0.1250
   32MOL   H103 8225   4.314   2.991   2.300  0.5791 -1.6583  0.8028
   32MOL   H104 8226   4.195   2.602   2.280 -2.4911 -1.3497  1.1844
   32MOL   H105 8227   4.216   2.552   2.121  1.9317  2.2468 -1.5130
   32MOL   C106 8228   4.012   2.585   2.165  1.0887 -0.1182  0.1886
   32MOL   C107 8229   3.981   2.530   2.028 -0.1015 -0.8171 -0.0667
   32MOL   C108 8230   3.839   2.506   1.985 -0.0118 -0.3991  0.2349
   32MOL   C109 8231   3.923   2.605   1.908  0.2516  0.1624  0.7396
   32MOL   C110 8232   3.978   2.479   2.269  0.0263 -0.4514  0.2627
   32MOL   H111 8233   3.944   2.670   2.172  0.1774 -0.7903 -0.3311
   32MOL   H112 8234   4.053   2.452   2.001  0.3785  0.7437 -3.5534
   32MOL   H113 8235   3.808   2.413   1.939  2.6729 -0.4423 -1.5857
   32MOL   H114 8236   3.774   2.539   2.066 -0.4445  1.4940 -0.8326
   32MOL   H115 8237   3.902   2.712   1.915  1.3093  0.4179  0.1853
   32MOL   H116 8238   3.942   2.576   1.805  0.2523  2.6413 -0.0012
   32MOL   H117 8239   3.888   2.428   2.235 -0.4191 -0.0254  0.7888
   32MOL   H118 8240   4.062   2.409   2.263 -0.8799 -1.6548  1.3398
   32MOL   C119 8241   3.939   2.523   2.411 -0.4910  0.5747 -0.0660
   32MOL   C120 8242   3.805   2.595   2.397 -0.0854 -0.0184  0.0341
   32MOL   C121 8243   3.805   2.746   2.413 -0.1781 -0.3465 -0.1171
   32MOL   C122 8244   3.747   2.661   2.526 -0.6399 -0.8254  0.7315
   32MOL   C123 8245   3.927   2.411   2.520  0.1727 -0.5464 -0.3819
   32MOL   H124 8246   4.010   2.599   2.446 -1.1155  0.7203  0.8888
   32MOL   H125 8247   3.735   2.556   2.323 -1.5614 -0.2672  1.5119
   32MOL   H126 8248   3.724   2.784   2.350  0.9318  0.7577 -0.9055
   32MOL   H127 8249   3.899   2.799   2.421 -1.2976  1.9234 -1.2645
   32MOL   H128 8250   3.798   2.659   2.622 -0.7977  1.5438  0.8921
   32MOL   H129 8251   3.640   2.657   2.540 -0.9442  1.2026 -0.7571
   32MOL   H130 8252   3.900   2.458   2.615  1.8564 -0.0412 -0.1521
   32MOL   H131 8253   3.841   2.346   2.503  0.5925 -1.6521  1.5901
   32MOL   C132 8254   4.054   2.334   2.539 -0.7195  0.4665  0.1402
   32MOL   C133 8255   4.032   2.226   2.637  0.2845 -0.6848 -0.2913
   32MOL   C134 8256   4.107   2.097   2.637  0.2330  0.5442  0.8116
   32MOL   C135 8257   3.959   2.094   2.613 -0.6508  0.7037 -0.6235
   32MOL   C136 8258   4.170   2.431   2.582  0.0442 -0.3152  0.7120
   32MOL   H137 8259   4.079   2.297   2.439  0.5107 -0.2002  0.6834
   32MOL   H138 8260   4.004   2.272   2.731  1.7452  1.4051 -0.8432
   32MOL   H139 8261   4.178   2.094   2.555 -3.1836 -0.4928 -2.2673
   32MOL   H140 8262   4.127   2.055   2.736  0.7431 -2.7410 -0.6232
   32MOL   H141 8263   3.921   2.077   2.513 -2.6154  0.5444  0.1340
   32MOL   H142 8264   3.894   2.062   2.694 -0.0401 -0.7430 -0.6740
   32MOL   H143 8265   4.179   2.525   2.527  0.1016 -1.5091 -1.3732
   32MOL   H144 8266   4.157   2.470   2.683 -1.5463  0.3415  0.2715
   32MOL   C145 8267   4.309   2.365   2.571 -0.7772  0.3199 -0.0061
   32MOL   C146 8268   4.358   2.345   2.424 -0.1138 -0.7800  0.6366
   32MOL   C147 8269   4.484   2.258   2.395 -0.6228 -0.4189  0.1661
   32MOL   C148 8270   4.344   2.212   2.350  0.2804  0.2461 -0.5311
   32MOL   C149 8271   4.410   2.452   2.652 -0.1833 -0.2427 -0.3432
   32MOL   H150 8272   4.295   2.269   2.621 -0.4483 -0.3088 -1.0988
   32MOL   H151 8273   4.366   2.436   2.365 -2.0534  1.0226  3.0805
   32MOL   H152 8274   4.559   2.293   2.325 -2.0459  0.5074 -0.9374
   32MOL   H153 8275   4.523   2.217   2.488 -0.5504 -2.2195 -0.6479
   32MOL   H154 8276   4.315   2.128   2.413  0.1899  0.1973 -0.6367
   32MOL   H155 8277   4.343   2.193   2.242  1.7968 -0.1259 -0.4954
   32MOL   H156 8278   4.438   2.538   2.591 -1.0270  0.2588 -0.0286
   32MOL   H157 8279   4.352   2.493   2.735  2.6234  0.9448  1.0949
   32MOL   C158 8280   4.540   2.392   2.719  0.6510 -0.1114 -0.3916
   32MOL   C159 8281   4.490   2.284   2.821 -0.3466  0.2559 -0.7431
   32MOL   C160 8282   4.496   2.135   2.794 -0.0516  0.3119 -0.0650
   32MOL   C161 8283   4.589   2.203   2.895  0.4528 -0.2458  0.0004
   32MOL   C162 8284   4.620   2.501   2.779 -0.2039 -0.5807  0.8535
   32MOL   H163 8285   4.601   2.343   2.644  0.2831  2.4027 -2.4142
   32MOL   H164 8286   4.409   2.318   2.884  1.2755 -2.4583  3.0274
   32MOL   H165 8287   4.544   2.103   2.702 -1.7462  2.9267 -1.9530
   32MOL   H166 8288   4.398   2.091   2.812  0.1068  0.1713  0.4365
   32MOL   H167 8289   4.561   2.184   2.998 -1.0390  0.0503 -0.3304
   32MOL   H168 8290   4.689   2.233   2.864 -0.3093  2.1818 -0.2319
   32MOL   H169 8291   4.703   2.464   2.839 -0.2911 -0.9294  0.7616
   32MOL   H170 8292   4.567   2.561   2.853 -2.5848 -1.6864  0.0816
   32MOL   C171 8293   4.692   2.596   2.684 -0.0701 -0.0201 -0.3869
   32MOL   C172 8294   4.799   2.681   2.755  0.1452 -0.4925 -0.7918
   32MOL   C173 8295   4.815   2.829   2.717 -0.7666 -0.9309 -0.5139
   32MOL   C174 8296   4.756   2.784   2.854  0.2232  0.0983  0.0380
   32MOL   C175 8297   4.762   2.535   2.550  0.3361 -0.5262 -0.6429
   32MOL   H176 8298   4.611   2.659   2.647 -1.0086 -1.7476 -1.3822
   32MOL   H177 8299   4.887   2.623   2.782  0.4833 -0.3667 -1.6156
   32MOL   H178 8300   4.918   2.859   2.700 -1.1123  0.4145 -0.2603
   32MOL   H179 8301   4.758   2.860   2.630 -0.0878  0.7175 -0.3887
   32MOL   H180 8302   4.652   2.785   2.884  0.1722  1.8132 -0.1575
   32MOL   H181 8303   4.819   2.806   2.940 -0.3285 -2.1869  1.0567
   32MOL   H182 8304   4.702   2.466   2.492 -1.1742  0.2606 -0.0604
   32MOL   H183 8305   4.846   2.480   2.592 -0.6499 -2.7531 -1.5699
   32MOL   C184 8306   4.788   2.628   2.426 -0.1325  0.0860 -0.7227
   32MOL   C185 8307   4.660   2.672   2.352  0.6877 -0.1232  0.6677
   32MOL   C186 8308   4.666   2.778   2.246 -0.8690  0.1293 -0.1558
   32MOL   C187 8309   4.592   2.804   2.379  0.0562 -0.1157 -0.2564
   32MOL   C188 8310   4.889   2.556   2.324  0.3558  0.2270 -0.3079
   32MOL   H189 8311   4.832   2.720   2.466 -0.9523  0.2209 -0.1202
   32MOL   H190 8312   4.592   2.587   2.344  0.1185  0.3395  0.5806
   32MOL   H191 8313   4.608   2.764   2.155  0.1612  1.2473 -0.9986
   32MOL   H192 8314   4.763   2.824   2.230 -0.1587 -1.7849 -1.5535
   32MOL   H193 8315   4.486   2.827   2.367 -0.0849  0.5987  2.1034
   32MOL   H194 8316   4.638   2.870   2.452  0.0120 -0.6901  0.2895
   32MOL   H195 8317   4.835   2.495   2.252 -1.3251 -1.1472  2.0488
   32MOL   H196 8318   4.949   2.484   2.380  0.5874  0.5840 -0.0949
   32MOL   C197 8319   4.992   2.650   2.261  0.8679 -1.1624 -0.2112
   32MOL   C198 8320   5.070   2.577   2.155 -0.0540  0.8305 -0.5372
   32MOL   C199 8321   5.120   2.649   2.032  1.0816 -0.8702 -0.3781
   32MOL   C200 8322   5.011   2.543   2.023 -0.4908  0.2027 -0.6511
   32MOL   C201 8323   5.085   2.700   2.378  0.6252  0.5573  0.0379
   32MOL   H202 8324   4.949   2.738   2.212  1.3671 -0.4663  0.5886
   32MOL   H203 8325   5.133   2.500   2.198 -0.6062  0.8442  0.3042
   32MOL   H204 8326   5.085   2.747   2.001  1.3948  0.0016  1.9783
   32MOL   H205 8327   5.211   2.618   1.982  0.7365 -2.5464  0.0015
   32MOL   H206 8328   4.907   2.570   2.011 -1.0588 -1.3434  0.5941
   32MOL   H207 8329   5.041   2.444   1.989 -1.9219 -0.9564  1.3804
   32MOL   H208 8330   5.040   2.693   2.477 -1.2038 -0.4360 -0.8294
   32MOL   H209 8331   5.171   2.634   2.370 -0.2990 -0.4763 -1.7231
   32MOL   C210 8332   5.143   2.846   2.365 -0.4536  0.3112  0.1154
   32MOL   C211 8333   5.032   2.947   2.385  0.2239  0.3037  0.0641
   32MOL   C212 8334   5.052   3.094   2.355 -0.0889 -0.3834 -0.6080
   32MOL   C213 8335   4.945   3.018   2.284  0.2190 -0.1164  0.2402
   32MOL   C214 8336   5.273   2.866   2.438  0.1870  0.5855  0.6973
   32MOL   H215 8337   5.151   2.844   2.257 -0.0722 -1.2940  0.1703
   32MOL   H216 8338   4.983   2.941   2.481  0.7567  2.3728  0.5033
   32MOL   H217 8339   5.020   3.163   2.434  1.3840 -1.1314  0.6657
   32MOL   H218 8340   5.121   3.131   2.280  0.6892 -0.9595 -0.1859
   32MOL   H219 8341   4.841   3.041   2.307  0.0130 -0.4387 -0.3559
   32MOL   H220 8342   4.967   2.980   2.185  1.6853 -1.0152  0.8982
   32MOL   H221 8343   5.249   2.888   2.542  1.8817 -0.1107  1.2555
   32MOL   H222 8344   5.323   2.769   2.442  0.7886  0.8819  0.4908
   32MOL   C223 8345   5.377   2.970   2.392  0.5681  0.0131 -0.2905
   32MOL   C224 8346   5.425   2.940   2.254 -0.9167  0.0005 -0.0297
   32MOL   C225 8347   5.369   2.996   2.122 -0.1803 -0.4067  0.6050
   32MOL   C226 8348   5.492   3.049   2.173 -0.6704  0.6531 -0.2826
   32MOL   C227 8349   5.504   2.958   2.491  0.9657 -0.9122 -0.3544
   32MOL   H228 8350   5.337   3.071   2.391 -1.3515 -0.7264 -0.7233
   32MOL   H229 8351   5.474   2.844   2.247 -0.5357  0.0869  1.2723
   32MOL   H230 8352   5.279   3.056   2.125 -0.0867 -0.2948  1.1733
   32MOL   H231 8353   5.385   2.932   2.035 -1.3782 -2.0494  1.5651
   32MOL   H232 8354   5.584   3.032   2.118 -0.6559  1.5713 -0.5521
   32MOL   H233 8355   5.486   3.151   2.211  1.1048  0.3512  0.8449
   32MOL   H234 8356   5.525   2.853   2.511  1.9188 -0.5699  0.4748
   32MOL   H235 8357   5.589   3.005   2.442  1.4181 -1.6209 -0.2624
   32MOL   C236 8358   5.496   3.028   2.626  0.2819 -0.3728 -0.3332
   32MOL   C237 8359   5.476   3.176   2.597 -0.4933 -0.2536  0.4251
   32MOL   C238 8360   5.341   3.241   2.568 -0.3939 -0.3049  0.3256
   32MOL   C239 8361   5.414   3.263   2.697 -0.0476  0.4120 -0.0214
   32MOL   C240 8362   5.619   2.998   2.715  0.0235 -0.6280  0.1321
   32MOL   H241 8363   5.413   2.993   2.688  0.4765 -0.1908  0.0343
   32MOL   H242 8364   5.559   3.224   2.546 -0.6236 -0.4157  0.0605
   32MOL   H243 8365   5.354   3.298   2.476 -0.8329 -0.0152  0.4401
   32MOL   H244 8366   5.247   3.188   2.579 -1.4409  2.0106  2.9625
   32MOL   H245 8367   5.367   3.223   2.786 -2.3163 -0.8161 -1.7144
   32MOL   H246 8368   5.467   3.358   2.709  1.4027 -0.2821 -0.7371
   32MOL   H247 8369   5.714   3.040   2.679 -1.8621  2.8310 -1.0621
   32MOL   H248 8370   5.611   3.062   2.802 -2.9306  0.0444 -0.5904
   32MOL   C249 8371   5.642   2.852   2.755 -0.0322  0.0880  0.0102
   32MOL   C250 8372   5.512   2.798   2.819 -0.1709  0.0573  0.1005
   32MOL   C251 8373   5.404   2.727   2.740 -0.4344 -0.4490 -0.0263
   32MOL   C252 8374   5.482   2.654   2.845 -0.3144  0.0017  0.5897
   32MOL   C253 8375   5.768   2.839   2.855 -0.2794  0.2575 -0.3844
   32MOL   H254 8376   5.676   2.796   2.668 -0.8237  1.1168 -0.9710
   32MOL   H255 8377   5.476   2.850   2.907  0.5994 -1.5281  1.3764
   32MOL   H256 8378   5.297   2.734   2.760  0.0672 -0.0021  2.7433
   32MOL   H257 8379   5.430   2.716   2.635 -0.3046 -0.6568  0.0273
   32MOL   H258 8380   5.435   2.625   2.939 -1.4438 -1.5308 -0.4204
   32MOL   H259 8381   5.557   2.586   2.805  0.2308  1.0387 -0.1613
   32MOL   H260 8382   5.753   2.880   2.955  1.2266  2.1815 -0.9200
   32MOL   H261 8383   5.858   2.884   2.814 -0.8397  0.5213 -1.3320
   32MOL   H262 8384   5.799   2.735   2.858 -1.9107 -0.3478 -2.7170
   33MOL     C1 8385   2.005   5.651   1.351  0.3213  0.1862  0.2237
   33MOL     C2 8386   1.865   5.657   1.296  0.0068 -0.3472  0.9726
   33MOL     C3 8387   1.787   5.788   1.262 -0.6840  0.0672  0.1867
   33MOL     C4 8388   1.746   5.705   1.376  0.2743  0.9491 -0.1814
   33MOL     C5 8389   2.118   5.598   1.250 -0.2522 -0.6664  0.9166
   33MOL     H6 8390   2.033   5.752   1.381 -2.9304  1.2523 -0.0717
   33MOL     H7 8391   1.845   5.575   1.227  0.4312  1.2031 -1.0419
   33MOL     H8 8392   1.842   5.881   1.275 -1.3707  0.0311  3.7224
   33MOL     H9 8393   1.733   5.782   1.167  1.3722  2.0730 -1.1437
   33MOL    H10 8394   1.661   5.638   1.361  1.1622 -0.1266 -0.4872
   33MOL    H11 8395   1.752   5.747   1.476  0.5245  0.8200 -0.1419
   33MOL    H12 8396   2.219   5.624   1.282  1.5546 -1.9294 -3.4266
   33MOL    H13 8397   2.093   5.642   1.154  0.0766  1.4914  1.7839
   33MOL    H14 8398   2.014   5.595   1.444 -0.1360 -1.4544 -0.7043
   33MOL    C15 8399   2.116   5.450   1.226 -0.7482  0.5228  0.0371
   33MOL    C16 8400   2.201   5.414   1.109 -0.1965 -0.3072 -0.5703
   33MOL    C17 8401   2.151   5.437   0.968  0.3895  0.0963 -0.2041
   33MOL    C18 8402   2.158   5.298   1.024 -0.2910 -0.3054  0.3225
   33MOL    C19 8403   2.174   5.376   1.354 -0.3542  0.0165  0.3722
   33MOL    H20 8404   2.012   5.419   1.216 -0.1423 -1.1125 -1.4437
   33MOL    H21 8405   2.309   5.421   1.115  0.0485  0.4262 -4.3488
   33MOL    H22 8406   2.217   5.468   0.887 -1.5565 -2.7653 -3.0210
   33MOL    H23 8407   2.057   5.492   0.972 -1.2301 -2.2725 -3.1277
   33MOL    H24 8408   2.074   5.246   1.069  0.0615  0.0659  1.4264
   33MOL    H25 8409   2.237   5.234   0.984  0.1876  1.5827 -1.8664
   33MOL    H26 8410   2.146   5.431   1.444  0.3995  0.9797  0.0261
   33MOL    H27 8411   2.282   5.380   1.354 -0.3138 -0.4276 -1.8583
   33MOL    C28 8412   2.141   5.226   1.380  0.5356  0.4113  0.3750
   33MOL    C29 8413   1.999   5.203   1.418 -0.1868 -0.2362  0.0065
   33MOL    C30 8414   1.893   5.132   1.325  0.4751  0.0884 -0.1600
   33MOL    C31 8415   1.938   5.070   1.453 -0.0296  0.2635  0.1084
   33MOL    C32 8416   2.237   5.174   1.491 -0.0435  0.3155 -0.3266
   33MOL    H33 8417   2.166   5.177   1.286 -0.1223 -2.6806  1.7534
   33MOL    H34 8418   1.972   5.276   1.494 -2.1937 -2.1173  1.1816
   33MOL    H35 8419   1.916   5.064   1.243 -1.4493 -2.5434  1.4046
   33MOL    H36 8420   1.789   5.164   1.326  1.2606  2.7517 -0.9835
   33MOL    H37 8421   2.007   4.986   1.458 -0.2746 -0.0929 -1.9669
   33MOL    H38 8422   1.867   5.059   1.535 -1.3268  0.0292 -1.0363
   33MOL    H39 8423   2.178   5.136   1.575  0.2137 -1.9378 -1.1177
   33MOL    H40 8424   2.300   5.250   1.537 -0.7289  1.0224 -0.5493
   33MOL    C41 8425   2.324   5.053   1.450 -0.0503  0.1962  0.5640
   33MOL    C42 8426   2.376   5.003   1.579  0.1281 -0.4332 -0.0399
   33MOL    C43 8427   2.422   4.863   1.601 -0.2718 -0.5142  0.2011
   33MOL    C44 8428   2.296   4.913   1.670 -0.2365 -0.0657 -0.5664
   33MOL    C45 8429   2.436   5.096   1.349 -0.1219  0.2515 -0.4492
   33MOL    H46 8430   2.265   4.969   1.415  0.2621 -0.2026  0.9820
   33MOL    H47 8431   2.445   5.074   1.625  0.1403 -1.4135  1.4817
   33MOL    H48 8432   2.419   4.809   1.506 -2.9988 -0.7489  0.3887
   33MOL    H49 8433   2.508   4.839   1.663 -1.4979 -2.2816  1.2685
   33MOL    H50 8434   2.313   4.955   1.769 -2.3661  2.1721 -1.1110
   33MOL    H51 8435   2.210   4.849   1.650  1.4340 -2.4903 -0.2309
   33MOL    H52 8436   2.517   5.144   1.404 -0.2269  1.1549 -1.0901
   33MOL    H53 8437   2.406   5.174   1.280 -1.2681  0.6879  0.5285
   33MOL    C54 8438   2.509   4.978   1.269  0.4478  0.6063  0.3505
   33MOL    C55 8439   2.419   4.910   1.170  0.1138  0.0067  0.0675
   33MOL    C56 8440   2.337   4.791   1.219  1.3041 -0.6737 -0.5538
   33MOL    C57 8441   2.452   4.776   1.116  0.0874 -0.7531  0.2465
   33MOL    C58 8442   2.645   5.024   1.208  0.5515  0.2638 -0.3771
   33MOL    H59 8443   2.534   4.902   1.343  0.3319  0.1861 -0.0379
   33MOL    H60 8444   2.367   4.974   1.099 -0.2637  0.4639  0.7539
   33MOL    H61 8445   2.357   4.753   1.319 -0.1589 -1.7230 -0.6357
   33MOL    H62 8446   2.235   4.790   1.180  0.5301  3.0893  1.1350
   33MOL    H63 8447   2.419   4.750   1.015  0.3834 -1.5958  0.3671
   33MOL    H64 8448   2.529   4.711   1.155  0.1436 -0.8061  0.0497
   33MOL    H65 8449   2.694   4.941   1.156 -0.1685  0.8579 -2.0397
   33MOL    H66 8450   2.628   5.105   1.137 -0.6780 -0.8936 -1.4326
   33MOL    C67 8451   2.752   5.079   1.302 -0.0526  0.2032  0.6679
   33MOL    C68 8452   2.804   4.969   1.393  0.4580  0.0928  0.3191
   33MOL    C69 8453   2.872   4.983   1.527 -0.5791 -0.1110  0.2536
   33MOL    C70 8454   2.729   4.942   1.523  0.0405 -0.0185  0.1014
   33MOL    C71 8455   2.878   5.140   1.234 -0.1605 -0.1509 -0.7660
   33MOL    H72 8456   2.705   5.151   1.369 -1.6101 -0.6701  0.5398
   33MOL    H73 8457   2.843   4.882   1.340  1.8162  0.5140  0.6112
   33MOL    H74 8458   2.937   4.903   1.562  0.0302 -0.2144 -1.1023
   33MOL    H75 8459   2.904   5.082   1.559  1.9979 -0.8921  0.2346
   33MOL    H76 8460   2.653   5.002   1.572 -0.0404  1.2474 -1.5496
   33MOL    H77 8461   2.716   4.838   1.554 -0.5096 -0.1725 -0.6303
   33MOL    H78 8462   2.935   5.053   1.201  0.7741  0.1040  0.1691
   33MOL    H79 8463   2.934   5.179   1.319 -1.4433 -1.4571  0.7127
   33MOL    C80 8464   2.863   5.237   1.120 -0.0253  0.1222 -0.0002
   33MOL    C81 8465   3.002   5.278   1.070  0.2704 -0.6999  0.6465
   33MOL    C82 8466   3.023   5.335   0.931  0.4052 -0.1934 -0.4029
   33MOL    C83 8467   3.086   5.203   0.970 -0.3456 -0.2574  0.5170
   33MOL    C84 8468   2.780   5.358   1.159 -0.2769  0.4514  0.4215
   33MOL    H85 8469   2.808   5.186   1.040  1.6676 -0.9802 -0.4770
   33MOL    H86 8470   3.061   5.327   1.148  0.5246 -0.9381  0.6048
   33MOL    H87 8471   3.084   5.425   0.919  2.4791 -1.6166 -0.8947
   33MOL    H88 8472   2.939   5.319   0.864 -1.1418 -0.2048  1.5197
   33MOL    H89 8473   3.036   5.114   0.934 -0.6258 -0.0302  0.3502
   33MOL    H90 8474   3.194   5.192   0.975 -0.3598 -0.4911  0.2955
   33MOL    H91 8475   2.709   5.328   1.236 -3.2219 -0.8209 -2.6528
   33MOL    H92 8476   2.843   5.427   1.215  1.4034 -2.0630  1.7335
   33MOL    C93 8477   2.718   5.440   1.041  0.0484  0.3826 -0.1035
   33MOL    C94 8478   2.597   5.362   0.986 -0.0141  0.1638 -0.8529
   33MOL    C95 8479   2.538   5.392   0.856 -0.2049 -0.4508 -0.0908
   33MOL    C96 8480   2.605   5.261   0.873 -0.4809 -0.3739 -0.0235
   33MOL    C97 8481   2.673   5.578   1.090  0.4264  0.2447  0.4149
   33MOL    H98 8482   2.790   5.466   0.964  0.0526  0.5285 -0.0516
   33MOL    H99 8483   2.528   5.344   1.067  0.6455  1.4434  0.0070
   33MOL   H100 8484   2.431   5.380   0.837 -0.2432  2.3964 -1.8932
   33MOL   H101 8485   2.597   5.471   0.812 -0.9274  0.3459  0.3488
   33MOL   H102 8486   2.549   5.170   0.894  0.6317 -1.1046 -0.2053
   33MOL   H103 8487   2.692   5.237   0.812 -1.1275 -3.5434  0.1897
   33MOL   H104 8488   2.732   5.607   1.177  0.7032  0.4328  0.1657
   33MOL   H105 8489   2.569   5.574   1.123  0.1791 -0.2412 -0.4110
   33MOL   C106 8490   2.676   5.696   0.977 -0.2479  0.9962 -0.2757
   33MOL   C107 8491   2.592   5.819   1.020 -0.1654 -0.4144  0.1271
   33MOL   C108 8492   2.522   5.921   0.932 -0.4719  0.4689 -0.9447
   33MOL   C109 8493   2.442   5.821   1.014  0.1214 -0.2531  0.5791
   33MOL   C110 8494   2.817   5.746   0.947 -0.5303  0.6246  0.3774
   33MOL   H111 8495   2.626   5.660   0.887  1.5689 -0.9019 -0.5749
   33MOL   H112 8496   2.623   5.846   1.121  0.0502 -1.8032  0.4527
   33MOL   H113 8497   2.533   6.026   0.961 -1.1392  0.2063  0.3011
   33MOL   H114 8498   2.539   5.912   0.825  0.5658  0.4130 -0.7725
   33MOL   H115 8499   2.387   5.746   0.958  1.2057 -0.9479  0.4249
   33MOL   H116 8500   2.406   5.834   1.116 -0.5063  0.1912  0.3014
   33MOL   H117 8501   2.838   5.847   0.980  0.1124  0.9812 -1.0684
   33MOL   H118 8502   2.885   5.684   1.006 -0.6114  1.6575  1.5469
   33MOL   C119 8503   2.851   5.717   0.795  0.0747  0.4028  0.1698
   33MOL   C120 8504   2.782   5.809   0.699 -0.1860  0.1976  0.0277
   33MOL   C121 8505   2.671   5.750   0.610  0.0627  0.3198 -0.3981
   33MOL   C122 8506   2.796   5.803   0.544 -0.1649  0.0894 -0.3297
   33MOL   C123 8507   3.001   5.713   0.770  0.3266  0.2579 -0.4464
   33MOL   H124 8508   2.830   5.613   0.772 -0.0460  0.7516 -1.3380
   33MOL   H125 8509   2.784   5.914   0.725  2.1478  0.3925 -0.8554
   33MOL   H126 8510   2.577   5.800   0.584  1.2756  2.3687 -0.9886
   33MOL   H127 8511   2.655   5.643   0.603 -0.7574  0.5368 -2.0914
   33MOL   H128 8512   2.857   5.720   0.507  1.0503 -0.2987  2.3345
   33MOL   H129 8513   2.791   5.897   0.491 -0.5611 -0.4478 -1.2648
   33MOL   H130 8514   3.042   5.621   0.811 -2.3351 -0.1678  1.3630
   33MOL   H131 8515   3.015   5.698   0.663  0.4916  1.4291 -0.5941
   33MOL   C132 8516   3.085   5.838   0.809  1.0409  0.0813  0.6152
   33MOL   C133 8517   3.166   5.889   0.697  0.2164 -0.5588 -0.5486
   33MOL   C134 8518   3.225   6.032   0.702 -0.4311  0.4490 -0.0388
   33MOL   C135 8519   3.126   5.983   0.593 -0.7819 -0.4589 -0.5640
   33MOL   C136 8520   3.180   5.824   0.933 -0.2880  0.0843 -0.0677
   33MOL   H137 8521   3.022   5.925   0.825  0.5584  0.2438 -2.0267
   33MOL   H138 8522   3.231   5.811   0.659 -2.4037 -1.9202 -2.3499
   33MOL   H139 8523   3.188   6.092   0.784 -0.6250 -1.0403  0.9843
   33MOL   H140 8524   3.323   6.056   0.663  0.4978 -0.4324  1.7194
   33MOL   H141 8525   3.027   6.028   0.596 -0.6903 -0.3059  0.4570
   33MOL   H142 8526   3.157   5.960   0.492 -1.6969 -0.7493 -0.7831
   33MOL   H143 8527   3.248   5.907   0.951 -1.2690  0.3860  2.4652
   33MOL   H144 8528   3.118   5.844   1.020  0.1009  0.6026  0.0876
   33MOL   C145 8529   3.249   5.688   0.955  0.5141  0.3319  0.6959
   33MOL   C146 8530   3.332   5.634   0.834 -0.2079 -0.0848 -0.2610
   33MOL   C147 8531   3.378   5.491   0.851  0.4441 -0.3893  0.1659
   33MOL   C148 8532   3.296   5.525   0.732  0.3887 -0.7904  0.2636
   33MOL   C149 8533   3.353   5.693   1.080  0.6402 -0.0050 -0.8076
   33MOL   H150 8534   3.176   5.609   0.971  0.9155 -0.0371  0.7170
   33MOL   H151 8535   3.404   5.703   0.790  2.0772 -2.1857  0.0206
   33MOL   H152 8536   3.484   5.475   0.830  1.4487  4.3672  0.9287
   33MOL   H153 8537   3.320   5.416   0.904 -1.3489  1.1698  0.4673
   33MOL   H154 8538   3.202   5.470   0.728  0.3488 -0.7044 -0.0019
   33MOL   H155 8539   3.341   5.530   0.633 -1.5302 -2.5517 -0.7280
   33MOL   H156 8540   3.436   5.626   1.058  0.0627 -0.6043 -1.1622
   33MOL   H157 8541   3.411   5.785   1.093  2.4267 -1.2335  0.1767
   33MOL   C158 8542   3.289   5.651   1.222 -0.3812  1.2964  0.3138
   33MOL   C159 8543   3.182   5.745   1.267  0.2433  0.6095 -0.4227
   33MOL   C160 8544   3.038   5.731   1.221 -0.4267 -0.3871 -0.0689
   33MOL   C161 8545   3.078   5.686   1.355  0.9382 -0.1786 -0.3717
   33MOL   C162 8546   3.400   5.621   1.335  0.2260  0.5003  0.3967
   33MOL   H163 8547   3.230   5.562   1.196  1.3192 -0.1188  1.1641
   33MOL   H164 8548   3.213   5.848   1.285  1.0451  0.5414 -1.3359
   33MOL   H165 8549   3.008   5.646   1.161  1.1643 -0.3579 -0.9292
   33MOL   H166 8550   2.970   5.816   1.218 -0.4242 -0.3520  0.7072
   33MOL   H167 8551   3.047   5.752   1.436  0.9937  2.2502 -2.2672
   33MOL   H168 8552   3.095   5.582   1.380 -0.0326 -0.4238 -0.7320
   33MOL   H169 8553   3.345   5.618   1.429 -0.5668  0.4890 -0.0686
   33MOL   H170 8554   3.469   5.705   1.338  0.1592  0.5339  0.9830
   33MOL   C171 8555   3.486   5.496   1.313  0.4250  0.1348  0.5526
   33MOL   C172 8556   3.611   5.484   1.396  1.0448 -0.3741 -0.6577
   33MOL   C173 8557   3.740   5.443   1.343 -0.0809  1.0905 -0.9758
   33MOL   C174 8558   3.724   5.587   1.377  0.4327  0.8593  0.3381
   33MOL   C175 8559   3.395   5.372   1.336  1.0459  0.1349 -1.2720
   33MOL   H176 8560   3.516   5.507   1.209 -3.0391  1.8724 -0.3424
   33MOL   H177 8561   3.588   5.478   1.502  2.5991  1.8102 -0.1724
   33MOL   H178 8562   3.814   5.393   1.406 -1.8011  1.2935  1.2536
   33MOL   H179 8563   3.747   5.402   1.242 -0.0233 -1.9645  0.2040
   33MOL   H180 8564   3.713   5.658   1.296 -1.5738 -1.1698 -1.2257
   33MOL   H181 8565   3.768   5.635   1.465 -0.3833  4.1697 -0.9883
   33MOL   H182 8566   3.291   5.380   1.303 -0.7503 -2.4839  3.2476
   33MOL   H183 8567   3.375   5.369   1.443  0.5825  0.9538 -1.3332
   33MOL   C184 8568   3.444   5.233   1.285  0.3966 -0.3786  0.5667
   33MOL   C185 8569   3.455   5.235   1.133 -0.0169  0.0525  0.3441
   33MOL   C186 8570   3.507   5.114   1.049  0.5313  0.2340  0.2193
   33MOL   C187 8571   3.588   5.249   1.055  0.0967  0.0000 -0.5353
   33MOL   C188 8572   3.346   5.117   1.333  0.4305 -0.4998 -0.5036
   33MOL   H189 8573   3.548   5.234   1.317  0.6394  2.4124 -0.1936
   33MOL   H190 8574   3.372   5.291   1.092  1.2630  2.0902  0.4250
   33MOL   H191 8575   3.458   5.091   0.955 -0.0887  0.2243  0.5482
   33MOL   H192 8576   3.564   5.032   1.091 -0.9780 -0.4342  0.9761
   33MOL   H193 8577   3.604   5.311   0.967 -0.6902  0.7352 -0.1714
   33MOL   H194 8578   3.676   5.237   1.117  1.0524  1.9968 -1.4821
   33MOL   H195 8579   3.252   5.129   1.277  1.3370  0.9878 -1.7599
   33MOL   H196 8580   3.317   5.135   1.436  1.4993 -0.4417 -0.2090
   33MOL   C197 8581   3.388   4.971   1.324  0.3975  0.4088 -0.4325
   33MOL   C198 8582   3.262   4.881   1.333  0.2784  0.2102  0.8061
   33MOL   C199 8583   3.279   4.739   1.294  0.3585 -0.3715 -0.4312
   33MOL   C200 8584   3.188   4.831   1.213 -0.1689 -0.3396 -0.2287
   33MOL   C201 8585   3.492   4.949   1.437 -0.1818  0.4750 -0.1649
   33MOL   H202 8586   3.434   4.939   1.231 -0.3738  0.0477 -0.6869
   33MOL   H203 8587   3.206   4.906   1.423 -1.6893 -0.5001 -0.1784
   33MOL   H204 8588   3.365   4.718   1.231  0.5136 -2.8025  0.5271
   33MOL   H205 8589   3.262   4.668   1.376 -1.3433 -1.0622 -1.3614
   33MOL   H206 8590   3.231   4.853   1.115  2.5181  0.8021  1.1628
   33MOL   H207 8591   3.082   4.808   1.218 -0.1971 -1.0231 -2.9788
   33MOL   H208 8592   3.550   5.042   1.443 -0.4951  0.8921 -2.9771
   33MOL   H209 8593   3.428   4.940   1.525 -1.7463 -1.8757 -1.4892
   33MOL   C210 8594   3.588   4.825   1.419  0.3237  1.0457 -0.3252
   33MOL   C211 8595   3.683   4.843   1.301 -0.2277 -0.5481  0.5559
   33MOL   C212 8596   3.752   4.718   1.244 -0.3989 -0.1243 -0.4762
   33MOL   C213 8597   3.653   4.789   1.164  0.1429 -0.2177 -0.0879
   33MOL   C214 8598   3.676   4.796   1.544 -0.6559 -0.2670  1.2334
   33MOL   H215 8599   3.527   4.737   1.398  0.4121  0.7728  0.5264
   33MOL   H216 8600   3.738   4.937   1.299  1.1695 -1.2831  3.0856
   33MOL   H217 8601   3.840   4.707   1.182 -0.0045  1.5099 -0.2259
   33MOL   H218 8602   3.717   4.631   1.300  0.2379  0.4750  0.8805
   33MOL   H219 8603   3.694   4.854   1.087  2.7500  0.2344  1.6132
   33MOL   H220 8604   3.558   4.744   1.137  0.8874 -3.2951  2.1157
   33MOL   H221 8605   3.749   4.718   1.523  0.0927  0.5834  0.6374
   33MOL   H222 8606   3.728   4.889   1.568 -1.6718  0.8245 -0.6901
   33MOL   C223 8607   3.592   4.752   1.671 -0.6640 -0.0537 -0.2615
   33MOL   C224 8608   3.695   4.698   1.777 -0.5260  0.5349  0.6756
   33MOL   C225 8609   3.802   4.793   1.823  0.6105  0.4231  0.0335
   33MOL   C226 8610   3.676   4.765   1.914  0.1407 -0.2503  0.2315
   33MOL   C227 8611   3.472   4.660   1.648  0.7391 -0.0379  0.7838
   33MOL   H228 8612   3.550   4.843   1.713  2.3257  0.8425  0.9624
   33MOL   H229 8613   3.711   4.591   1.792 -0.6816  0.3996 -0.0928
   33MOL   H230 8614   3.810   4.889   1.772 -2.1251  0.9995  0.5736
   33MOL   H231 8615   3.902   4.754   1.842  0.6740 -0.3396 -1.8384
   33MOL   H232 8616   3.698   4.714   2.007  1.8654  1.4910  0.8277
   33MOL   H233 8617   3.630   4.861   1.937  1.7595  0.8261 -0.9270
   33MOL   H234 8618   3.418   4.679   1.556  3.0594  1.6297 -0.3039
   33MOL   H235 8619   3.508   4.559   1.627 -0.8124  0.0991 -2.9507
   33MOL   C236 8620   3.378   4.647   1.769 -0.0478  0.7828  0.0566
   33MOL   C237 8621   3.286   4.528   1.750 -0.9766  0.7885  0.0781
   33MOL   C238 8622   3.332   4.387   1.780  0.4500  0.1013  0.1206
   33MOL   C239 8623   3.222   4.452   1.869 -0.1127 -0.0188  0.0960
   33MOL   C240 8624   3.292   4.776   1.792  0.2500  0.7261  0.0837
   33MOL   H241 8625   3.441   4.612   1.851  0.3547 -1.4529 -1.1633
   33MOL   H242 8626   3.230   4.538   1.658 -0.2347 -2.7506 -0.8628
   33MOL   H243 8627   3.297   4.304   1.719 -0.9768 -1.2751  2.7326
   33MOL   H244 8628   3.430   4.370   1.823  0.3613  0.8662  0.6425
   33MOL   H245 8629   3.247   4.468   1.974  0.5078  0.3054 -0.0973
   33MOL   H246 8630   3.119   4.421   1.861 -0.1056  0.4718 -2.0224
   33MOL   H247 8631   3.342   4.871   1.776  2.0148 -0.1607  0.1640
   33MOL   H248 8632   3.209   4.763   1.722  2.3615  1.3384 -2.5983
   33MOL   C249 8633   3.230   4.792   1.930 -0.3063 -1.3905 -0.2906
   33MOL   C250 8634   3.109   4.876   1.937 -0.0873  0.3619 -0.4324
   33MOL   C251 8635   2.976   4.825   1.881 -0.0813 -0.4120 -0.2100
   33MOL   C252 8636   2.991   4.851   2.028  0.1381  1.0556 -0.2541
   33MOL   C253 8637   3.334   4.826   2.032  0.1265  0.4937  0.5877
   33MOL   H254 8638   3.189   4.698   1.966 -3.5141  0.8540  2.1621
   33MOL   H255 8639   3.135   4.980   1.915 -0.4468  0.8062  1.1708
   33MOL   H256 8640   2.908   4.890   1.827  0.5831  2.5086  2.3564
   33MOL   H257 8641   2.983   4.723   1.843 -0.4752 -0.0926 -1.1475
   33MOL   H258 8642   2.968   4.943   2.081  2.2004  1.3613  0.1734
   33MOL   H259 8643   2.997   4.758   2.085 -0.8045  0.0951 -1.6778
   33MOL   H260 8644   3.418   4.758   2.045 -2.4936 -2.5067  2.5433
   33MOL   H261 8645   3.285   4.823   2.130  0.6066 -1.9685  0.7719
   33MOL   H262 8646   3.369   4.929   2.021 -0.9854  0.7658 -0.4888
   34MOL     C1 8647   6.981   4.393   1.839 -0.0293 -0.0226  0.3996
   34MOL     C2 8648   7.093   4.283   1.842 -0.3736 -0.9302 -0.3384
   34MOL     C3 8649   7.222   4.294   1.769 -0.2211 -0.1346  0.2800
   34MOL     C4 8650   7.114   4.196   1.717  0.2588 -0.0178 -0.4331
   34MOL     C5 8651   6.996   4.519   1.924 -0.2001  0.0444  0.0492
   34MOL     H6 8652   6.944   4.418   1.740  3.0113  1.3163 -0.4522
   34MOL     H7 8653   7.108   4.237   1.940 -0.0312 -0.1477 -0.0182
   34MOL     H8 8654   7.234   4.388   1.716 -0.3420 -0.4658 -0.3379
   34MOL     H9 8655   7.307   4.243   1.814  0.9768  1.2943 -0.3359
   34MOL    H10 8656   7.126   4.089   1.733  1.1072  0.4156  2.0840
   34MOL    H11 8657   7.073   4.227   1.621  0.3934 -1.3416 -0.9231
   34MOL    H12 8658   6.898   4.565   1.929  0.2727  1.1813 -0.9662
   34MOL    H13 8659   7.048   4.592   1.862  0.2371 -1.8042 -1.8151
   34MOL    H14 8660   6.901   4.332   1.882  0.5566  0.5825  2.3785
   34MOL    C15 8661   7.058   4.500   2.068  0.1384 -0.0897 -0.2355
   34MOL    C16 8662   7.054   4.630   2.157 -0.0016  0.5382 -0.4491
   34MOL    C17 8663   7.151   4.742   2.132  0.4072 -0.2062 -0.1715
   34MOL    C18 8664   7.170   4.658   2.254  0.6449 -0.1689  0.1030
   34MOL    C19 8665   6.988   4.388   2.152 -0.1291  0.4945 -0.2346
   34MOL    H20 8666   7.163   4.477   2.054  0.2946  0.3161  0.2824
   34MOL    H21 8667   6.955   4.662   2.189 -0.3339  0.0299 -0.9580
   34MOL    H22 8668   7.116   4.844   2.141 -0.1577 -0.4073 -0.0505
   34MOL    H23 8669   7.214   4.730   2.044 -0.2652  1.8648 -0.9396
   34MOL    H24 8670   7.264   4.603   2.261  0.8364  0.2214  0.6510
   34MOL    H25 8671   7.140   4.708   2.345 -0.6043  3.1633 -2.0694
   34MOL    H26 8672   6.948   4.309   2.088 -1.2729  1.3205 -0.5369
   34MOL    H27 8673   6.899   4.437   2.190  0.0510  0.2378  0.5256
   34MOL    C28 8674   7.075   4.331   2.275 -0.4824 -0.1027  0.7246
   34MOL    C29 8675   7.175   4.231   2.224 -0.1397 -0.1036 -0.2071
   34MOL    C30 8676   7.315   4.280   2.177  0.2740 -0.3389 -0.0925
   34MOL    C31 8677   7.302   4.196   2.304  0.6404  0.7509  0.2966
   34MOL    C32 8678   6.988   4.271   2.377  0.4422  0.3033  0.1323
   34MOL    H33 8679   7.128   4.419   2.313 -0.3849  0.4265 -0.6042
   34MOL    H34 8680   7.136   4.147   2.168  0.0329 -0.7893  0.6810
   34MOL    H35 8681   7.336   4.386   2.192 -2.4912  0.0336  1.4751
   34MOL    H36 8682   7.367   4.237   2.092  0.1097  1.5858 -1.1736
   34MOL    H37 8683   7.331   4.255   2.391  0.9175 -1.0127  1.4159
   34MOL    H38 8684   7.337   4.094   2.298 -3.1686 -0.7339  1.8778
   34MOL    H39 8685   6.923   4.198   2.328 -0.2449  0.4308  0.8549
   34MOL    H40 8686   6.930   4.359   2.404  1.5643  1.4618 -1.1428
   34MOL    C41 8687   7.039   4.230   2.514 -0.2522 -0.0554 -0.3562
   34MOL    C42 8688   6.934   4.185   2.612  0.5384  0.3219  0.1783
   34MOL    C43 8689   6.960   4.052   2.684  0.2047  0.2315  0.3326
   34MOL    C44 8690   6.855   4.058   2.584  0.4980 -0.4080  0.3404
   34MOL    C45 8691   7.123   4.333   2.587  0.6305  0.0441  0.2751
   34MOL    H46 8692   7.099   4.139   2.499  3.0341  2.0621 -0.6724
   34MOL    H47 8693   6.890   4.269   2.665 -2.3643 -0.9775 -0.0751
   34MOL    H48 8694   7.050   3.994   2.663 -1.5808 -2.0686 -1.1266
   34MOL    H49 8695   6.910   4.048   2.780 -0.9834  0.4538 -0.2733
   34MOL    H50 8696   6.750   4.064   2.611  0.7750 -1.3193  1.6622
   34MOL    H51 8697   6.872   4.015   2.486  0.7778  1.2040 -0.3400
   34MOL    H52 8698   7.062   4.419   2.613 -0.6455 -0.8662  0.3603
   34MOL    H53 8699   7.192   4.384   2.520  1.5530 -2.5428 -0.8158
   34MOL    C54 8700   7.208   4.289   2.710  0.1035  0.2527 -0.2147
   34MOL    C55 8701   7.339   4.231   2.665 -0.2641  0.6674  0.4423
   34MOL    C56 8702   7.359   4.083   2.640 -0.8969 -0.3343 -0.7630
   34MOL    C57 8703   7.423   4.146   2.765  0.9730 -0.3504 -0.4399
   34MOL    C58 8704   7.239   4.413   2.800 -0.0968 -0.3960  0.0741
   34MOL    H59 8705   7.152   4.216   2.766 -0.8763  0.8763 -0.3776
   34MOL    H60 8706   7.393   4.300   2.600 -0.3387 -0.9646 -1.3849
   34MOL    H61 8707   7.275   4.016   2.659 -2.1680  1.2069 -0.7841
   34MOL    H62 8708   7.429   4.030   2.577 -1.0981 -1.4283 -0.0834
   34MOL    H63 8709   7.530   4.166   2.768  1.1074 -0.9877 -0.7522
   34MOL    H64 8710   7.365   4.124   2.854  1.3851  0.5191  0.0436
   34MOL    H65 8711   7.341   4.396   2.836 -0.8770  0.9302  3.0281
   34MOL    H66 8712   7.253   4.501   2.737  1.4653  0.1199  1.1091
   34MOL    C67 8713   7.146   4.439   2.923 -0.1609 -0.3766  0.2003
   34MOL    C68 8714   7.208   4.378   3.047 -0.2267 -0.2753  0.4275
   34MOL    C69 8715   7.125   4.318   3.152  0.5957  0.6724 -0.3545
   34MOL    C70 8716   7.192   4.225   3.055 -0.1285 -1.1494 -0.0124
   34MOL    C71 8717   7.141   4.592   2.943  0.3076  0.5005  0.2070
   34MOL    H72 8718   7.048   4.395   2.910  0.8751 -2.9967  0.9399
   34MOL    H73 8719   7.308   4.414   3.073 -0.6481  1.4243 -0.1980
   34MOL    H74 8720   7.169   4.309   3.252 -1.4401 -0.3686  0.4727
   34MOL    H75 8721   7.017   4.322   3.153  0.5907  0.6109 -0.7668
   34MOL    H76 8722   7.120   4.171   2.995 -0.0135  0.1958 -1.3654
   34MOL    H77 8723   7.273   4.160   3.089 -0.4906 -0.5869  1.9929
   34MOL    H78 8724   7.243   4.626   2.923  0.0576 -0.4208 -2.8945
   34MOL    H79 8725   7.123   4.620   3.047 -1.3064 -0.8996  0.3256
   34MOL    C80 8726   7.040   4.664   2.845 -1.1234 -0.1970 -0.0206
   34MOL    C81 8727   7.105   4.759   2.758  0.0417 -0.3898  0.3515
   34MOL    C82 8728   7.020   4.812   2.646 -0.2485  1.1811 -0.0881
   34MOL    C83 8729   7.146   4.728   2.620  0.6320 -0.4663 -0.0343
   34MOL    C84 8730   6.916   4.718   2.922 -0.5307 -0.1549 -0.6736
   34MOL    H85 8731   6.992   4.584   2.789 -1.0229 -0.4486  0.2541
   34MOL    H86 8732   7.177   4.830   2.797 -0.4159  0.3297 -0.1154
   34MOL    H87 8733   7.025   4.917   2.620 -0.8572  0.8247 -1.6614
   34MOL    H88 8734   6.931   4.758   2.615  1.1266 -0.6140 -1.0383
   34MOL    H89 8735   7.134   4.629   2.578 -1.7720 -0.7035  1.0915
   34MOL    H90 8736   7.235   4.782   2.587 -0.1196  0.8887  0.1038
   34MOL    H91 8737   6.953   4.800   2.984 -1.7214 -0.2356  0.1745
   34MOL    H92 8738   6.853   4.775   2.855 -2.0199 -1.0154 -0.0364
   34MOL    C93 8739   6.834   4.609   2.994  0.2402 -0.1864 -0.2217
   34MOL    C94 8740   6.763   4.689   3.107 -0.0316 -0.1603 -0.2196
   34MOL    C95 8741   6.749   4.637   3.250  0.0311  0.3501  0.0556
   34MOL    C96 8742   6.843   4.757   3.216  0.3201 -0.3798  0.2521
   34MOL    C97 8743   6.731   4.531   2.900 -0.1761 -0.7238  0.1123
   34MOL    H98 8744   6.901   4.533   3.034  0.2210  1.3755  3.0040
   34MOL    H99 8745   6.683   4.750   3.068 -0.4049 -0.1184  0.5968
   34MOL   H100 8746   6.649   4.656   3.289  0.4732  0.8635  0.9456
   34MOL   H101 8747   6.786   4.539   3.275 -1.6291 -0.2297  0.3422
   34MOL   H102 8748   6.810   4.854   3.253 -0.0589 -0.3773 -0.0878
   34MOL   H103 8749   6.948   4.730   3.228  0.2052 -1.2305 -0.6298
   34MOL   H104 8750   6.786   4.499   2.811  2.0807  1.1548  0.7628
   34MOL   H105 8751   6.663   4.607   2.860  1.6956  0.0637 -1.6775
   34MOL   C106 8752   6.641   4.421   2.961 -0.5352 -0.3515  0.0644
   34MOL   C107 8753   6.735   4.313   3.029 -0.2138 -0.3235  0.1475
   34MOL   C108 8754   6.698   4.166   3.043  0.0121  0.1033  0.1532
   34MOL   C109 8755   6.800   4.215   2.942 -0.3740 -0.0400  0.3079
   34MOL   C110 8756   6.524   4.474   3.048  0.1141 -0.0081 -0.3988
   34MOL   H111 8757   6.593   4.372   2.876 -0.3240 -1.5559  0.6290
   34MOL   H112 8758   6.771   4.342   3.127 -2.0213  1.3472  0.3453
   34MOL   H113 8759   6.744   4.112   3.125  3.5362  0.8217 -1.2714
   34MOL   H114 8760   6.595   4.139   3.018 -0.3723 -0.1878  1.9707
   34MOL   H115 8761   6.769   4.216   2.838  1.5498 -0.2633 -0.2902
   34MOL   H116 8762   6.903   4.181   2.955  0.6800  2.7453 -0.5491
   34MOL   H117 8763   6.551   4.460   3.152 -0.4371  0.3535 -0.2064
   34MOL   H118 8764   6.522   4.583   3.044  0.2780 -0.0476 -1.8121
   34MOL   C119 8765   6.394   4.409   3.014  0.4394 -0.0776 -0.0992
   34MOL   C120 8766   6.290   4.428   3.125  0.5655  0.5812 -0.3896
   34MOL   C121 8767   6.301   4.340   3.250  0.3182  0.1086  0.0930
   34MOL   C122 8768   6.187   4.320   3.159  0.0972  0.0001 -1.2522
   34MOL   C123 8769   6.342   4.469   2.879  0.3256  0.2836 -0.0119
   34MOL   H124 8770   6.415   4.302   3.013  1.1643  0.0205  1.8624
   34MOL   H125 8771   6.281   4.532   3.155  0.5020 -0.1196  2.1855
   34MOL   H126 8772   6.296   4.393   3.345  2.8689 -0.3724  0.5204
   34MOL   H127 8773   6.384   4.270   3.244  1.9144  1.9255  0.7661
   34MOL   H128 8774   6.186   4.226   3.104  0.1685 -0.9008  0.2539
   34MOL   H129 8775   6.092   4.338   3.208  0.6011 -2.7778  0.9219
   34MOL   H130 8776   6.279   4.555   2.902  1.7553  1.1214  0.8600
   34MOL   H131 8777   6.422   4.509   2.816  1.4505 -1.0023  0.5796
   34MOL   C132 8778   6.238   4.385   2.805  0.6044 -0.0657 -0.7071
   34MOL   C133 8779   6.306   4.279   2.733 -0.3646 -0.6329 -0.5881
   34MOL   C134 8780   6.234   4.149   2.689 -0.9001  0.4843 -0.0039
   34MOL   C135 8781   6.333   4.147   2.799  0.6404  0.3554 -0.5366
   34MOL   C136 8782   6.146   4.469   2.709 -0.0196 -0.2613  0.9017
   34MOL   H137 8783   6.178   4.345   2.887 -0.7198 -0.7159 -1.9788
   34MOL   H138 8784   6.395   4.315   2.681  0.2124 -0.5183  0.4550
   34MOL   H139 8785   6.137   4.112   2.719 -1.3431  0.6399 -1.2237
   34MOL   H140 8786   6.273   4.109   2.596  2.5282  0.8870  1.1791
   34MOL   H141 8787   6.299   4.132   2.901 -0.9828 -0.4799 -1.1872
   34MOL   H142 8788   6.432   4.104   2.786 -0.1052 -1.1935 -1.1744
   34MOL   H143 8789   6.213   4.545   2.669 -0.6373 -1.0839 -1.8313
   34MOL   H144 8790   6.115   4.400   2.630  1.4612 -0.6357  0.6442
   34MOL   C145 8791   6.021   4.529   2.777 -0.0674  0.1654 -0.0430
   34MOL   C146 8792   5.959   4.632   2.689  0.3386  0.5102  0.8574
   34MOL   C147 8793   5.882   4.755   2.730 -0.8485 -0.1177 -0.5217
   34MOL   C148 8794   6.024   4.770   2.680  0.2316  0.2361 -0.3465
   34MOL   C149 8795   5.921   4.416   2.822  0.3174  0.4007  0.0800
   34MOL   H150 8796   6.066   4.579   2.864 -2.2916 -1.3571  2.0408
   34MOL   H151 8797   5.917   4.584   2.601  2.4519  0.3281 -0.0832
   34MOL   H152 8798   5.794   4.776   2.670 -1.0627 -0.4388 -0.3266
   34MOL   H153 8799   5.858   4.767   2.836  0.8946  1.0048 -0.2361
   34MOL   H154 8800   6.107   4.781   2.749  2.9723 -2.7048 -3.0073
   34MOL   H155 8801   6.028   4.812   2.580  1.4134  2.7402  0.7110
   34MOL   H156 8802   5.868   4.388   2.730  0.3867 -0.4894  0.3075
   34MOL   H157 8803   5.973   4.336   2.874  1.1642  0.5595 -0.5143
   34MOL   C158 8804   5.804   4.458   2.919  0.7467 -0.0756  0.1280
   34MOL   C159 8805   5.854   4.497   3.060 -0.6025  0.5079  0.0801
   34MOL   C160 8806   5.923   4.624   3.088  0.9383  0.2836 -0.3337
   34MOL   C161 8807   5.780   4.591   3.144 -0.2384 -0.4609  0.3215
   34MOL   C162 8808   5.686   4.359   2.937 -0.2719 -0.1686  0.1144
   34MOL   H163 8809   5.755   4.545   2.875 -1.2045 -0.5741  1.2544
   34MOL   H164 8810   5.895   4.407   3.105  0.3537 -0.1535 -2.0397
   34MOL   H165 8811   5.924   4.707   3.016  0.5089  1.4242  0.9639
   34MOL   H166 8812   6.006   4.615   3.158  0.8512  1.7243 -0.0241
   34MOL   H167 8813   5.761   4.562   3.247 -0.8962  1.1204  0.6574
   34MOL   H168 8814   5.706   4.658   3.102 -0.3674  1.0272  2.7923
   34MOL   H169 8815   5.627   4.394   3.022 -0.4131  1.4165 -0.6205
   34MOL   H170 8816   5.727   4.264   2.969 -2.0519 -1.0010 -0.0291
   34MOL   C171 8817   5.590   4.340   2.819 -0.1759 -0.7831  0.0333
   34MOL   C172 8818   5.510   4.466   2.798 -0.1971 -0.8280  0.2458
   34MOL   C173 8819   5.360   4.446   2.757  0.4020 -0.6390  0.0966
   34MOL   C174 8820   5.393   4.513   2.888 -0.5480 -0.4744  0.3673
   34MOL   C175 8821   5.625   4.277   2.679  0.0914  0.0772 -0.0722
   34MOL   H176 8822   5.514   4.271   2.856 -1.6094 -0.3876 -2.0298
   34MOL   H177 8823   5.563   4.543   2.744 -2.1270  0.1028 -0.3645
   34MOL   H178 8824   5.332   4.503   2.669 -0.0147 -0.0932  0.5734
   34MOL   H179 8825   5.320   4.345   2.762 -1.1327 -0.1024 -0.8895
   34MOL   H180 8826   5.362   4.466   2.981  0.4563 -2.0069 -0.0497
   34MOL   H181 8827   5.380   4.620   2.871 -1.3635 -0.5565  0.4854
   34MOL   H182 8828   5.690   4.344   2.623 -0.9882  2.6960  1.6771
   34MOL   H183 8829   5.537   4.265   2.617 -0.4539  0.8071  0.5494
   34MOL   C184 8830   5.699   4.147   2.701  0.3592  0.7788  0.0674
   34MOL   C185 8831   5.771   4.099   2.572  0.6021  0.0136  0.0234
   34MOL   C186 8832   5.853   4.186   2.485  0.5132 -0.7010 -0.4495
   34MOL   C187 8833   5.714   4.139   2.430 -0.5125 -0.7804 -0.3441
   34MOL   C188 8834   5.602   4.030   2.735 -0.5652 -0.2938 -0.9694
   34MOL   H189 8835   5.770   4.174   2.780  1.6747  0.5130 -1.0037
   34MOL   H190 8836   5.818   4.001   2.577 -0.9430 -0.7362  0.2742
   34MOL   H191 8837   5.945   4.137   2.452  0.0232 -0.8182 -1.6831
   34MOL   H192 8838   5.859   4.292   2.506  0.9213 -0.8532  0.2135
   34MOL   H193 8839   5.715   4.070   2.346  0.9393 -0.7591 -0.3529
   34MOL   H194 8840   5.633   4.213   2.426  0.6650  0.4594 -1.7233
   34MOL   H195 8841   5.562   3.989   2.642 -2.6651  1.0162 -0.6701
   34MOL   H196 8842   5.506   4.054   2.779  0.3280 -0.5879  1.1891
   34MOL   C197 8843   5.666   3.916   2.813  0.7653 -0.3319  0.1486
   34MOL   C198 8844   5.590   3.792   2.781  0.4642  0.1298  0.0410
   34MOL   C199 8845   5.659   3.660   2.781  0.0429  0.3430 -0.4371
   34MOL   C200 8846   5.607   3.728   2.653 -0.4075  0.3255 -0.6715
   34MOL   C201 8847   5.677   3.951   2.963 -0.1510  0.8417  0.0156
   34MOL   H202 8848   5.766   3.905   2.771  1.5908 -0.5633  2.1196
   34MOL   H203 8849   5.491   3.795   2.825 -0.0850  0.3361 -1.2042
   34MOL   H204 8850   5.766   3.665   2.800  0.1721  1.1579 -1.3161
   34MOL   H205 8851   5.609   3.566   2.803  0.9125 -0.2476 -0.9290
   34MOL   H206 8852   5.667   3.779   2.578  2.0948 -1.7250 -0.1238
   34MOL   H207 8853   5.528   3.663   2.617 -1.2231 -0.0622  1.6989
   34MOL   H208 8854   5.710   4.055   2.975  0.4845  0.6343  0.0623
   34MOL   H209 8855   5.572   3.945   2.993  0.4644 -0.7293  1.9554
   34MOL   C210 8856   5.766   3.851   3.044 -0.0197 -0.0012  0.0665
   34MOL   C211 8857   5.906   3.908   3.050  0.2886 -0.1840 -0.5250
   34MOL   C212 8858   6.022   3.829   3.105  0.3980  0.2068 -0.1467
   34MOL   C213 8859   6.010   3.854   2.958  0.3991  0.2376  0.7850
   34MOL   C214 8860   5.717   3.826   3.191 -0.2355  0.1056  0.2257
   34MOL   H215 8861   5.780   3.761   2.984  0.4746 -0.5802  1.0484
   34MOL   H216 8862   5.906   4.012   3.083 -0.8310 -0.9678  2.1280
   34MOL   H217 8863   6.092   3.885   3.167  1.2422 -0.2390 -0.6720
   34MOL   H218 8864   6.011   3.724   3.130 -0.5064  0.8162  2.1241
   34MOL   H219 8865   6.076   3.935   2.929 -0.0663  0.9686  1.7215
   34MOL   H220 8866   5.988   3.771   2.892 -0.3831  1.8597 -1.0748
   34MOL   H221 8867   5.788   3.767   3.248  1.6014  1.2606 -0.8330
   34MOL   H222 8868   5.703   3.921   3.241  0.4420 -0.1528  0.9109
   34MOL   C223 8869   5.580   3.739   3.210 -0.7154 -0.4921  0.7083
   34MOL   C224 8870   5.556   3.704   3.357 -0.1072  0.4037 -0.3753
   34MOL   C225 8871   5.512   3.818   3.446  0.1749 -0.0141  0.0896
   34MOL   C226 8872   5.421   3.699   3.434  0.4004 -0.1725  0.5610
   34MOL   C227 8873   5.571   3.610   3.130  0.3712 -0.0057  0.0976
   34MOL   H228 8874   5.488   3.794   3.192 -0.6243 -1.0939 -1.8462
   34MOL   H229 8875   5.630   3.639   3.403  1.9120  2.2180 -0.9805
   34MOL   H230 8876   5.485   3.913   3.401 -2.8194  0.0148  1.8011
   34MOL   H231 8877   5.560   3.819   3.544  0.8929 -4.3251 -0.1093
   34MOL   H232 8878   5.413   3.627   3.515 -0.6787  0.4629  1.0277
   34MOL   H233 8879   5.327   3.709   3.380  1.0548 -1.7071 -0.9214
   34MOL   H234 8880   5.562   3.646   3.028  0.4603 -0.4287 -0.0607
   34MOL   H235 8881   5.667   3.561   3.150  0.9508  1.5340  1.1993
   34MOL   C236 8882   5.451   3.515   3.147 -0.1212 -0.5591  0.4912
   34MOL   C237 8883   5.476   3.379   3.070 -0.4922 -0.0703  0.1059
   34MOL   C238 8884   5.585   3.290   3.125  0.0030 -0.8041 -0.1243
   34MOL   C239 8885   5.437   3.248   3.123 -0.3651  0.8075  0.0519
   34MOL   C240 8886   5.329   3.585   3.087  0.6572 -0.1114 -0.2146
   34MOL   H241 8887   5.433   3.480   3.249 -0.0538 -3.0004 -0.2915
   34MOL   H242 8888   5.479   3.388   2.962  0.6806 -2.2262 -0.0676
   34MOL   H243 8889   5.653   3.242   3.055  0.0190 -3.2208  1.5166
   34MOL   H244 8890   5.624   3.299   3.226 -1.3502 -1.0972  0.4436
   34MOL   H245 8891   5.373   3.251   3.211  1.3820 -0.5944  1.4134
   34MOL   H246 8892   5.408   3.167   3.056  1.2962 -0.4808  0.8384
   34MOL   H247 8893   5.307   3.676   3.143  0.7079 -1.1131  1.4643
   34MOL   H248 8894   5.345   3.607   2.982  0.9691 -0.2489 -0.1949
   34MOL   C249 8895   5.190   3.504   3.092  0.0807 -0.8322 -0.0126
   34MOL   C250 8896   5.088   3.591   3.023 -1.1014  0.5801  0.5066
   34MOL   C251 8897   5.050   3.557   2.883 -0.5525  0.1179 -0.1105
   34MOL   C252 8898   4.952   3.536   2.993  0.0180  0.3014  0.1626
   34MOL   C253 8899   5.145   3.475   3.233  0.1230  0.2159  0.0708
   34MOL   H254 8900   5.206   3.409   3.040  0.9200 -0.8625  0.2853
   34MOL   H255 8901   5.102   3.698   3.039  0.3460  0.3498  0.8544
   34MOL   H256 8902   5.039   3.643   2.818 -2.4020  1.4718  1.9084
   34MOL   H257 8903   5.080   3.466   2.832  3.5589  0.9294  0.7284
   34MOL   H258 8904   4.875   3.612   3.003 -0.9926 -0.5048 -1.2504
   34MOL   H259 8905   4.919   3.441   3.034 -0.1854  0.4457  0.3355
   34MOL   H260 8906   5.218   3.409   3.279 -1.2280  0.1825  2.2017
   34MOL   H261 8907   5.048   3.433   3.259 -0.8472  2.8086  0.8163
   34MOL   H262 8908   5.143   3.562   3.299 -1.9434  1.0523 -1.0320
   35MOL     C1 8909   1.697   0.260   3.983 -0.6085 -0.8038 -0.7631
   35MOL     C2 8910   1.676   0.148   4.085  0.2367 -0.5247  0.2558
   35MOL     C3 8911   1.677   0.005   4.043 -0.1206 -0.0379  1.6199
   35MOL     C4 8912   1.549   0.070   4.092 -0.0497 -0.2411  0.3649
   35MOL     C5 8913   1.676   0.408   4.045 -0.4668 -0.1136 -0.2702
   35MOL     H6 8914   1.804   0.256   3.960 -0.2468  0.5387  0.5779
   35MOL     H7 8915   1.722   0.163   4.182  0.0304  1.3698  0.0777
   35MOL     H8 8916   1.677   7.818   3.937  3.4530 -0.7797  1.7274
   35MOL     H9 8917   1.720   7.763   4.101  0.7873 -0.7841 -0.0426
   35MOL    H10 8918   1.512   0.043   4.190  0.5989  0.0927  0.7055
   35MOL    H11 8919   1.474   0.069   4.013 -1.1153 -2.5765  1.3819
   35MOL    H12 8920   1.724   0.422   4.141 -0.8470  1.3048 -0.2748
   35MOL    H13 8921   1.568   0.421   4.057 -0.9933 -1.0047 -3.4078
   35MOL    H14 8922   1.634   0.238   3.897 -1.5144 -1.9429  0.1900
   35MOL    C15 8923   1.732   0.518   3.948 -0.4084  0.3449 -0.6342
   35MOL    C16 8924   1.616   0.558   3.854 -0.2008 -0.0832  0.1476
   35MOL    C17 8925   1.563   0.469   3.742 -0.1751  0.3520 -0.4382
   35MOL    C18 8926   1.638   0.597   3.709  0.1581 -0.0762 -0.3458
   35MOL    C19 8927   1.784   0.637   4.023 -0.1677 -0.0625  0.4711
   35MOL    H20 8928   1.809   0.474   3.884  0.2852  1.5202 -0.6120
   35MOL    H21 8929   1.542   0.611   3.914  0.4936  2.3480 -1.0684
   35MOL    H22 8930   1.459   0.468   3.708 -0.6143  1.6612  0.8236
   35MOL    H23 8931   1.615   0.374   3.729 -1.3741 -0.3942  0.0741
   35MOL    H24 8932   1.737   0.594   3.663  0.6250  1.1720  0.5403
   35MOL    H25 8933   1.570   0.676   3.677 -0.2121 -0.4171 -0.4034
   35MOL    H26 8934   1.717   0.682   4.096 -0.4391 -1.0543  0.8328
   35MOL    H27 8935   1.770   0.716   3.949 -3.8915 -0.6317  0.4861
   35MOL    C28 8936   1.925   0.629   4.077 -0.6429 -0.0935 -0.1305
   35MOL    C29 8937   1.957   0.760   4.149  0.1613  0.1838 -0.4918
   35MOL    C30 8938   1.930   0.770   4.293 -0.1377  0.9321 -0.4915
   35MOL    C31 8939   2.075   0.766   4.248  0.4634 -0.3683 -0.6486
   35MOL    C32 8940   2.038   0.597   3.976 -0.6193 -0.8220 -0.4160
   35MOL    H33 8941   1.936   0.546   4.148 -0.1368  0.1967  0.1360
   35MOL    H34 8942   1.946   0.856   4.098 -1.6310 -0.8190 -2.0955
   35MOL    H35 8943   1.895   0.688   4.355  0.2555  0.5265 -0.8086
   35MOL    H36 8944   1.881   0.863   4.322 -0.4724  0.5527  0.1865
   35MOL    H37 8945   2.120   0.671   4.275 -0.0561 -0.6732 -0.8466
   35MOL    H38 8946   2.144   0.850   4.253  0.6809 -0.5543 -0.5324
   35MOL    H39 8947   2.129   0.646   4.010 -1.0114  0.2129 -0.8107
   35MOL    H40 8948   2.003   0.644   3.884 -1.5848 -0.1808  0.2638
   35MOL    C41 8949   2.076   0.453   3.947  0.3041 -0.9166  0.6683
   35MOL    C42 8950   2.137   0.379   4.066 -0.3391 -0.4652 -0.1981
   35MOL    C43 8951   2.133   0.229   4.074 -0.3867  0.0852  0.3930
   35MOL    C44 8952   2.066   0.315   4.182  0.3874 -0.1146  0.2382
   35MOL    C45 8953   2.171   0.436   3.835 -0.0529 -0.7477 -0.2336
   35MOL    H46 8954   1.991   0.397   3.908 -0.0475 -0.2957  0.5282
   35MOL    H47 8955   2.230   0.427   4.096 -0.0410 -1.6401  0.7653
   35MOL    H48 8956   2.074   0.168   4.005 -1.9240 -0.6676  2.3218
   35MOL    H49 8957   2.224   0.176   4.099  0.2356  1.2160  0.5573
   35MOL    H50 8958   2.122   0.325   4.274  0.5534 -0.4848  0.1805
   35MOL    H51 8959   1.958   0.322   4.183  0.4250  0.3234  1.5505
   35MOL    H52 8960   2.193   0.329   3.828 -1.3845 -1.0332 -0.1416
   35MOL    H53 8961   2.269   0.475   3.863 -0.6723 -0.0779  1.0178
   35MOL    C54 8962   2.149   0.506   3.692 -0.5903 -0.1396 -0.2699
   35MOL    C55 8963   2.263   0.478   3.594 -0.1088 -0.5313  0.5157
   35MOL    C56 8964   2.384   0.566   3.598  0.6343  0.3515 -0.5818
   35MOL    C57 8965   2.278   0.583   3.487 -0.2953 -0.0793 -0.3917
   35MOL    C58 8966   2.008   0.485   3.621 -0.2903  0.5747  0.4561
   35MOL    H59 8967   2.148   0.613   3.709 -0.4221  0.1106 -1.7028
   35MOL    H60 8968   2.277   0.373   3.572 -1.2691 -0.2680 -1.5929
   35MOL    H61 8969   2.385   0.629   3.686 -0.4104 -2.4783  1.5368
   35MOL    H62 8970   2.482   0.528   3.573  0.7258  0.5270 -0.4880
   35MOL    H63 8971   2.318   0.544   3.393 -1.5229 -0.8286 -0.6129
   35MOL    H64 8972   2.230   0.681   3.487 -0.6193 -0.2341  0.6699
   35MOL    H65 8973   1.935   0.485   3.701  0.8745 -0.3687  1.5404
   35MOL    H66 8974   1.990   0.570   3.555  0.6480  0.4443  0.0250
   35MOL    C67 8975   1.983   0.345   3.544 -0.0710 -0.0823  0.5694
   35MOL    C68 8976   1.945   0.228   3.631  0.9267 -0.7066  0.1399
   35MOL    C69 8977   1.952   0.083   3.586  0.2711  0.2307  0.6689
   35MOL    C70 8978   2.061   0.140   3.670 -0.9218 -0.0220  0.5846
   35MOL    C71 8979   1.868   0.372   3.440 -0.4397 -0.1966  0.5423
   35MOL    H72 8980   2.077   0.318   3.496 -0.3750 -0.8271  0.3900
   35MOL    H73 8981   1.870   0.247   3.708  1.6113 -0.4440  0.7550
   35MOL    H74 8982   1.905   7.837   3.634 -1.7114  1.1186  0.3380
   35MOL    H75 8983   1.961   0.062   3.480 -2.4076 -1.9590  0.8307
   35MOL    H76 8984   2.155   0.173   3.627 -1.6630 -0.5119 -1.4851
   35MOL    H77 8985   2.075   0.080   3.759  1.0284 -2.1469 -1.0995
   35MOL    H78 8986   1.785   0.409   3.500 -2.0855 -1.6815 -0.7669
   35MOL    H79 8987   1.833   0.276   3.403  0.9337 -0.0658 -1.1708
   35MOL    C80 8988   1.894   0.475   3.318  0.5627  0.3025 -0.4231
   35MOL    C81 8989   1.805   0.594   3.342 -0.1207  0.2838  0.3797
   35MOL    C82 8990   1.654   0.593   3.326 -0.0561  0.2589 -0.3396
   35MOL    C83 8991   1.741   0.674   3.232 -0.4912 -0.2270  0.1923
   35MOL    C84 8992   1.886   0.406   3.181  0.0211  0.6742 -0.4420
   35MOL    H85 8993   1.997   0.513   3.321  0.2932  1.0505 -0.4649
   35MOL    H86 8994   1.836   0.658   3.425 -0.5047  2.7097 -1.2868
   35MOL    H87 8995   1.598   0.649   3.400 -1.4610 -2.7174  0.9535
   35MOL    H88 8996   1.601   0.503   3.295  1.1139 -0.4889 -0.1837
   35MOL    H89 8997   1.734   0.640   3.129  1.4947  0.2143 -0.0939
   35MOL    H90 8998   1.748   0.782   3.239  2.6109 -0.4236  0.8831
   35MOL    H91 8999   1.781   0.382   3.168  0.1158  0.6156 -1.1564
   35MOL    H92 9000   1.903   0.476   3.099  0.2185  0.0395 -0.9482
   35MOL    C93 9001   1.978   0.285   3.155 -0.1224 -0.0269 -0.4278
   35MOL    C94 9002   1.943   0.247   3.010 -0.6042 -0.2183  0.4144
   35MOL    C95 9003   1.954   0.113   2.944  0.3136  0.1184  0.3838
   35MOL    C96 9004   1.818   0.186   2.960  0.3965  0.1660 -0.7448
   35MOL    C97 9005   2.125   0.324   3.170  0.0773 -0.4093 -0.2832
   35MOL    H98 9006   1.944   0.209   3.225 -0.4233 -1.5912 -2.2189
   35MOL    H99 9007   1.975   0.330   2.947  1.7960 -0.9802  0.5647
   35MOL   H100 9008   2.004   0.105   2.847  3.2638 -0.0847  1.8698
   35MOL   H101 9009   1.973   0.031   3.012  1.1845  0.3647  0.4475
   35MOL   H102 9010   1.763   0.239   2.883 -0.3040  1.1734  0.4428
   35MOL   H103 9011   1.755   0.151   3.042  1.1569  1.5845  0.4713
   35MOL   H104 9012   2.134   0.377   3.265  0.4170 -0.4841 -0.2727
   35MOL   H105 9013   2.145   0.401   3.096 -0.9944  1.9919  1.8585
   35MOL   C106 9014   2.232   0.215   3.164 -0.0582  0.0920  0.1456
   35MOL   C107 9015   2.376   0.268   3.142  0.8548 -0.3283  0.4361
   35MOL   C108 9016   2.440   0.205   3.016  0.6593  0.4418  0.0879
   35MOL   C109 9017   2.412   0.348   3.023 -0.5565  0.0729 -0.4144
   35MOL   C110 9018   2.230   0.135   3.292 -0.2857  0.1963  0.3493
   35MOL   H111 9019   2.216   0.143   3.083 -0.1602  1.8108 -1.3921
   35MOL   H112 9020   2.441   0.286   3.227  1.3289 -1.1346  0.2493
   35MOL   H113 9021   2.540   0.164   3.028  0.4793  0.2786  1.1106
   35MOL   H114 9022   2.392   0.144   2.940  0.0993  0.4110  0.4638
   35MOL   H115 9023   2.329   0.386   2.963 -0.6639  4.2367  2.1229
   35MOL   H116 9024   2.502   0.407   3.010 -0.8304  0.8114  0.8919
   35MOL   H117 9025   2.282   0.196   3.365 -0.0603 -1.2590  1.4318
   35MOL   H118 9026   2.128   0.124   3.328 -0.6844 -0.5550 -0.9622
   35MOL   C119 9027   2.300   7.831   3.290  0.7601  0.1792 -0.4696
   35MOL   C120 9028   2.332   7.773   3.430  1.1003 -0.1455  0.4356
   35MOL   C121 9029   2.471   7.807   3.491 -0.1604 -0.3288  0.7957
   35MOL   C122 9030   2.441   7.668   3.439  0.0256  0.3537 -0.7422
   35MOL   C123 9031   2.204   7.741   3.208  0.3052  0.2840 -0.4994
   35MOL   H124 9032   2.392   7.837   3.232 -0.3779  0.2787 -2.3097
   35MOL   H125 9033   2.248   7.763   3.498  0.7417  2.3410  0.4111
   35MOL   H126 9034   2.465   7.823   3.599 -0.4258 -1.6327  0.9862
   35MOL   H127 9035   2.519   0.053   3.444  0.5718 -1.5504 -0.7153
   35MOL   H128 9036   2.494   7.630   3.352 -0.1164  0.3855 -0.8421
   35MOL   H129 9037   2.420   7.590   3.512  1.5842 -0.5796 -1.2735
   35MOL   H130 9038   2.117   7.710   3.267 -0.6798 -0.8653 -2.5271
   35MOL   H131 9039   2.150   7.801   3.135  1.4452  1.4108 -0.4304
   35MOL   C132 9040   2.260   7.615   3.142  0.0258 -0.1280 -0.3968
   35MOL   C133 9041   2.326   7.638   3.001 -0.9339 -0.4806 -0.2185
   35MOL   C134 9042   2.423   7.538   2.940  0.4845 -0.1434 -0.2621
   35MOL   C135 9043   2.467   7.681   2.974 -0.2479  0.2744  0.2660
   35MOL   C136 9044   2.152   7.506   3.139  0.4352  0.7278  0.2962
   35MOL   H137 9045   2.335   7.562   3.200 -2.1445 -1.9164  0.8823
   35MOL   H138 9046   2.245   7.655   2.930 -1.2248  0.8406  0.4226
   35MOL   H139 9047   2.474   7.469   3.007  0.4004 -0.0995 -0.1527
   35MOL   H140 9048   2.436   7.512   2.835 -1.0898 -1.6712 -0.1036
   35MOL   H141 9049   2.523   7.688   3.067 -1.5176 -0.0684  1.0656
   35MOL   H142 9050   2.487   7.747   2.890 -1.5923  0.2439 -0.0933
   35MOL   H143 9051   2.085   7.503   3.225 -0.6649 -1.5297 -0.5668
   35MOL   H144 9052   2.086   7.530   3.055  0.6325 -1.7142 -0.6129
   35MOL   C145 9053   2.193   7.362   3.106 -0.1964  0.3851 -0.2078
   35MOL   C146 9054   2.253   7.301   3.232  0.3096  0.0084  0.5448
   35MOL   C147 9055   2.357   7.192   3.227  0.0593  0.0887 -0.3680
   35MOL   C148 9056   2.390   7.330   3.281  0.5096  0.3464  0.5466
   35MOL   C149 9057   2.068   7.283   3.072 -0.1234  0.0354 -0.4361
   35MOL   H150 9058   2.272   7.353   3.032 -0.1652  1.2709 -0.2835
   35MOL   H151 9059   2.178   7.277   3.307  0.1080  2.6591  1.2555
   35MOL   H152 9060   2.345   7.104   3.291 -1.2299  0.4029 -0.1508
   35MOL   H153 9061   2.409   7.167   3.135 -0.1416 -0.8476 -0.2296
   35MOL   H154 9062   2.469   7.375   3.222 -0.8100  0.5471 -1.0783
   35MOL   H155 9063   2.395   7.353   3.388 -0.6055  2.3983  0.1753
   35MOL   H156 9064   2.113   7.193   3.030  0.3597  1.0546 -2.1593
   35MOL   H157 9065   2.006   7.256   3.158  2.0080 -2.0269  0.5118
   35MOL   C158 9066   1.968   7.335   2.968 -0.0602  0.2642  0.2458
   35MOL   C159 9067   1.872   7.220   2.938 -0.1024 -0.1992 -0.1903
   35MOL   C160 9068   1.762   7.174   3.031  0.3744  0.0294  0.4549
   35MOL   C161 9069   1.726   7.240   2.898  0.2588  0.6161  0.4425
   35MOL   C162 9070   2.037   7.383   2.843 -0.0567  0.3258 -0.0646
   35MOL   H163 9071   1.913   7.420   3.007  0.6570  0.8185  0.0525
   35MOL   H164 9072   1.929   7.134   2.903 -0.1760  1.0393 -3.5926
   35MOL   H165 9073   1.750   7.234   3.121 -1.3132  2.1793 -1.1325
   35MOL   H166 9074   1.726   7.072   3.036 -0.9933  0.4113 -1.0304
   35MOL   H167 9075   1.697   7.168   2.820  0.7048  1.2419 -0.3059
   35MOL   H168 9076   1.686   7.341   2.893 -0.6983  0.1851 -1.4453
   35MOL   H169 9077   2.079   7.291   2.801 -3.9672 -0.6167 -2.1485
   35MOL   H170 9078   2.125   7.440   2.873 -0.6337  1.0222  0.3078
   35MOL   C171 9079   1.960   7.469   2.737 -0.2259 -0.3904 -0.1474
   35MOL   C172 9080   1.918   7.595   2.809 -0.1235  0.6855 -0.6410
   35MOL   C173 9081   1.830   7.696   2.729 -0.6430  0.3636  0.3693
   35MOL   C174 9082   1.783   7.639   2.865 -0.0948  0.4193 -0.5277
   35MOL   C175 9083   2.037   7.492   2.606  0.2278 -0.6933 -0.4396
   35MOL   H176 9084   1.870   7.414   2.708 -0.8279  0.7233 -0.4072
   35MOL   H177 9085   1.997   7.638   2.870  0.4231 -0.4847 -0.5113
   35MOL   H178 9086   1.855   7.802   2.728  0.8253  0.0226  0.4186
   35MOL   H179 9087   1.774   7.652   2.647  1.8091 -0.6960 -0.7512
   35MOL   H180 9088   1.708   7.560   2.874 -0.3026  0.6914  0.2277
   35MOL   H181 9089   1.811   7.694   2.955  1.0820 -0.7587 -0.1562
   35MOL   H182 9090   2.145   7.502   2.613  0.0624  0.6104  0.5718
   35MOL   H183 9091   2.010   7.597   2.592  0.7511 -0.2305  1.7943
   35MOL   C184 9092   1.996   7.425   2.480  0.8066  0.6184 -0.1117
   35MOL   C185 9093   2.051   7.284   2.467  0.2676 -0.0811 -0.1270
   35MOL   C186 9094   2.009   7.177   2.374  0.2341  0.2486  0.4818
   35MOL   C187 9095   1.969   7.158   2.515  0.1324  0.7997 -0.1160
   35MOL   C188 9096   2.031   7.491   2.351 -0.5126 -0.2599 -0.3269
   35MOL   H189 9097   1.887   7.420   2.491  0.9028 -1.4254  0.2661
   35MOL   H190 9098   2.158   7.288   2.487 -0.0878  0.4171  1.8217
   35MOL   H191 9099   2.089   7.119   2.328  1.4014  0.0710  2.6599
   35MOL   H192 9100   1.922   7.186   2.310  0.2106 -1.8727  0.2009
   35MOL   H193 9101   2.010   7.081   2.580  0.4163  0.3167 -0.8524
   35MOL   H194 9102   1.864   7.180   2.533 -0.0914 -0.4306  0.0960
   35MOL   H195 9103   2.104   7.437   2.290  0.9347  0.1109  1.0536
   35MOL   H196 9104   2.096   7.572   2.385 -0.6232  0.2116 -1.2267
   35MOL   C197 9105   1.902   7.542   2.273  0.4643 -0.0162 -0.2080
   35MOL   C198 9106   1.813   7.429   2.218  0.4455 -0.2034  0.2062
   35MOL   C199 9107   1.688   7.480   2.158 -0.1994 -0.0772  0.5891
   35MOL   C200 9108   1.694   7.377   2.278  0.3794  0.7506 -0.2256
   35MOL   C201 9109   1.952   7.629   2.157 -0.2333 -0.2803 -0.9731
   35MOL   H202 9110   1.845   7.598   2.346  1.4152 -0.6758  1.0598
   35MOL   H203 9111   1.876   7.354   2.171  2.4094  0.0385  2.3597
   35MOL   H204 9112   1.674   7.587   2.162 -1.2951 -0.2411  1.4930
   35MOL   H205 9113   1.661   7.435   2.062  0.5094  0.0328  0.3369
   35MOL   H206 9114   1.692   7.418   2.379  0.8529  1.0353 -0.3298
   35MOL   H207 9115   1.658   7.275   2.269  0.2570  0.8780 -1.2370
   35MOL   H208 9116   2.034   7.580   2.105  1.4842  1.1277  0.3672
   35MOL   H209 9117   1.879   7.642   2.078  1.3413 -1.6950 -2.7073
   35MOL   C210 9118   2.009   7.767   2.191  0.3968  0.3494  0.0928
   35MOL   C211 9119   2.077   7.831   2.073 -0.6580  0.8075 -0.0194
   35MOL   C212 9120   2.182   0.094   2.092 -0.1053  0.4353 -1.0640
   35MOL   C213 9121   2.217   7.805   2.025 -0.1715  0.2136  0.0601
   35MOL   C214 9122   1.929   0.033   2.270  0.4814  0.4560  0.2315
   35MOL   H215 9123   2.092   7.747   2.258  1.1815 -1.0088 -1.2811
   35MOL   H216 9124   1.997   0.026   2.007 -0.4746  0.3846 -0.4642
   35MOL   H217 9125   2.177   0.179   2.025 -1.1738  0.7998 -0.5293
   35MOL   H218 9126   2.232   0.116   2.185  0.8027 -0.9822 -1.1984
   35MOL   H219 9127   2.234   7.797   1.918  3.5445  0.9590  0.5403
   35MOL   H220 9128   2.269   7.723   2.075  0.8024  0.3187 -0.7773
   35MOL   H221 9129   1.942   7.838   2.372 -0.3161 -1.7321 -0.3833
   35MOL   H222 9130   1.972   0.133   2.266  0.4804  0.4294 -0.7797
   35MOL   C223 9131   1.776   0.043   2.234 -0.3940  0.1970  0.5580
   35MOL   C224 9132   1.741   0.127   2.111 -0.5660  0.0855 -0.1285
   35MOL   C225 9133   1.710   0.068   1.974  0.3589 -0.5318 -0.1997
   35MOL   C226 9134   1.606   0.150   2.040  0.2206  0.0351  0.0171
   35MOL   C227 9135   1.698   0.096   2.359 -0.4538  0.0382  0.2213
   35MOL   H228 9136   1.748   7.777   2.225  0.5384 -0.0237  0.1686
   35MOL   H229 9137   1.798   0.219   2.105 -0.5081  0.0901  0.5190
   35MOL   H230 9138   1.671   7.806   1.963 -0.5712 -0.1709 -0.2905
   35MOL   H231 9139   1.769   0.109   1.893  0.2961  1.3680  0.6903
   35MOL   H232 9140   1.588   0.241   1.983 -1.1678  0.6206  1.3542
   35MOL   H233 9141   1.520   0.100   2.084  2.4151 -1.1552  3.1568
   35MOL   H234 9142   1.763   0.076   2.444 -1.4214  0.2604  1.0210
   35MOL   H235 9143   1.694   0.204   2.362  0.6442  0.1050 -0.5286
   35MOL   C236 9144   1.554   0.034   2.388 -0.0832  0.0295 -0.0805
   35MOL   C237 9145   1.475   0.133   2.478  0.6835 -0.0004  0.5946
   35MOL   C238 9146   1.450   0.272   2.419 -0.2356 -0.0401 -0.5720
   35MOL   C239 9147   1.332   0.176   2.434  0.0135  0.3371 -0.4667
   35MOL   C240 9148   1.557   7.730   2.441  0.2824  0.7010 -0.5521
   35MOL   H241 9149   1.484   0.035   2.305 -0.4719  0.6373  0.2493
   35MOL   H242 9150   1.495   0.140   2.585  1.5562  0.2485  0.4195
   35MOL   H243 9151   1.452   0.350   2.495  0.0186 -1.8315  1.3033
   35MOL   H244 9152   1.501   0.286   2.324  0.6716  3.6429  0.3766
   35MOL   H245 9153   1.281   0.156   2.340  1.0189  2.1729 -1.4461
   35MOL   H246 9154   1.273   0.169   2.525 -0.1728 -1.8453 -0.7300
   35MOL   H247 9155   1.620   7.679   2.369 -1.1289 -0.8802 -0.6716
   35MOL   H248 9156   1.616   7.745   2.532 -0.2180  1.4483 -0.3385
   35MOL   C249 9157   1.426   7.648   2.451 -0.2498  0.0584  0.1099
   35MOL   C250 9158   1.448   7.511   2.519 -0.3569 -0.1532 -0.0439
   35MOL   C251 9159   1.488   7.508   2.661 -0.2436 -0.4597  0.2826
   35MOL   C252 9160   1.348   7.466   2.622 -0.7780  0.2149  0.4921
   35MOL   C253 9161   1.337   7.630   2.327  0.5444  0.0605  0.2443
   35MOL   H254 9162   1.372   7.703   2.528  0.0506  0.3460  0.1173
   35MOL   H255 9163   1.493   7.435   2.457  1.5320  1.3495 -0.5522
   35MOL   H256 9164   1.554   7.425   2.685  0.2132 -0.4951 -1.0413
   35MOL   H257 9165   1.515   7.605   2.701 -3.9589 -0.0630  2.0391
   35MOL   H258 9166   1.331   7.358   2.622 -0.3482  0.1458 -0.4744
   35MOL   H259 9167   1.272   7.542   2.639  0.0817  0.9940  0.8396
   35MOL   H260 9168   1.242   7.581   2.346 -0.7472  2.0763 -0.8822
   35MOL   H261 9169   1.392   7.574   2.251  0.6721 -0.4113  0.6832
   35MOL   H262 9170   1.313   7.720   2.270  0.4136  0.4036  0.8419
   36MOL     C1 9171   7.493   4.863   7.072 -0.1271 -0.1740 -0.1628
   36MOL     C2 9172   7.526   4.935   7.202  0.4214 -0.5541  0.4143
   36MOL     C3 9173   7.478   4.876   7.332 -0.1475 -0.3815  0.0827
   36MOL     C4 9174   7.438   5.013   7.294  0.4030  0.0013  0.5734
   36MOL     C5 9175   7.552   4.725   7.054  0.5655 -0.5156 -0.2535
   36MOL     H6 9176   7.386   4.855   7.052  0.0697 -0.7284 -1.0394
   36MOL     H7 9177   7.631   4.966   7.197  0.0399  0.7614  0.4659
   36MOL     H8 9178   7.401   4.799   7.329 -1.5042  0.9056  1.3296
   36MOL     H9 9179   7.554   4.872   7.410 -0.0781  2.0666  0.1763
   36MOL    H10 9180   7.476   5.096   7.353  3.2110 -0.0436 -1.0787
   36MOL    H11 9181   7.335   5.015   7.258  1.9116  1.4946 -3.9255
   36MOL    H12 9182   7.523   4.669   7.143  0.3363 -1.9471 -1.1937
   36MOL    H13 9183   7.659   4.748   7.051  0.9705 -2.3395 -0.8388
   36MOL    H14 9184   7.541   4.924   6.996  0.4977 -0.9169 -0.3727
   36MOL    C15 9185   7.519   4.642   6.920 -0.3561 -0.1767 -0.7184
   36MOL    C16 9186   7.639   4.553   6.885  0.1178  0.2495 -0.4137
   36MOL    C17 9187   7.766   4.613   6.840 -0.6952  0.2373  0.0909
   36MOL    C18 9188   7.680   4.534   6.739 -0.6506 -0.7367  0.8066
   36MOL    C19 9189   7.394   4.549   6.938 -0.2112  0.7227 -0.5914
   36MOL    H20 9190   7.509   4.716   6.841  1.9465  1.0347  0.0543
   36MOL    H21 9191   7.649   4.463   6.946 -2.1867 -0.4722 -1.0407
   36MOL    H22 9192   0.020   4.567   6.873 -0.4922  2.0151  2.1705
   36MOL    H23 9193   7.783   4.720   6.825 -0.8238  0.3112  0.4561
   36MOL    H24 9194   7.614   4.590   6.673  1.2803  1.4291  0.6453
   36MOL    H25 9195   7.707   4.435   6.704  2.2642 -0.9004  3.2988
   36MOL    H26 9196   7.422   4.478   7.016 -0.1830  2.8641  1.4372
   36MOL    H27 9197   7.393   4.489   6.848  0.6182  2.3611 -1.7256
   36MOL    C28 9198   7.262   4.628   6.970 -0.0342  0.4468 -0.1242
   36MOL    C29 9199   7.149   4.529   6.983 -0.1435  1.2743 -0.0933
   36MOL    C30 9200   7.144   4.422   7.086 -0.8315  0.0597 -0.4360
   36MOL    C31 9201   7.059   4.542   7.114  0.2593 -0.0007 -0.0780
   36MOL    C32 9202   7.232   4.740   6.856 -0.2585  0.6563 -0.5440
   36MOL    H33 9203   7.282   4.674   7.067  1.9923 -0.1502 -0.2409
   36MOL    H34 9204   7.089   4.501   6.896 -0.1019 -0.5926  0.4585
   36MOL    H35 9205   7.221   4.415   7.162 -1.1342  3.4804  0.2577
   36MOL    H36 9206   7.102   4.328   7.051 -4.3097  0.9157  1.2168
   36MOL    H37 9207   7.095   4.614   7.187 -0.3845 -0.5938  0.8236
   36MOL    H38 9208   6.952   4.537   7.092  0.8415  1.0877 -3.4193
   36MOL    H39 9209   7.229   4.700   6.754  1.2413 -1.3659  0.1679
   36MOL    H40 9210   7.318   4.804   6.839  0.4268  0.0549  0.5613
   36MOL    C41 9211   7.113   4.827   6.873 -0.0169 -0.0518  0.6321
   36MOL    C42 9212   7.090   4.911   6.751 -0.8531 -0.1207  0.3168
   36MOL    C43 9213   6.957   4.955   6.699 -0.4190  0.5295 -0.2684
   36MOL    C44 9214   7.037   4.848   6.627  0.3323 -0.3686 -0.3550
   36MOL    C45 9215   7.120   4.912   6.999 -0.1746 -0.1434  0.0344
   36MOL    H46 9216   7.037   4.752   6.893  1.7621 -1.9464  0.4571
   36MOL    H47 9217   7.162   4.992   6.754  1.1097 -1.8211 -0.5646
   36MOL    H48 9218   6.872   4.924   6.760  0.7721  0.3969  1.3549
   36MOL    H49 9219   6.950   5.053   6.653  3.0916 -0.3575 -2.8744
   36MOL    H50 9220   7.096   4.866   6.537 -1.7601 -1.3329 -1.9550
   36MOL    H51 9221   7.002   4.745   6.625  0.3975 -0.3917 -0.2971
   36MOL    H52 9222   7.210   4.972   6.981 -0.3934  0.3547  0.6181
   36MOL    H53 9223   7.144   4.844   7.081 -0.2760 -1.1739 -0.7865
   36MOL    C54 9224   7.006   5.001   7.048 -0.1336 -0.1733 -0.5443
   36MOL    C55 9225   6.886   4.933   7.109 -0.5542  0.4488  0.8545
   36MOL    C56 9226   6.771   4.856   7.044  0.0372 -0.3332  0.1884
   36MOL    C57 9227   6.751   5.006   7.089  0.5776  0.1924  0.3614
   36MOL    C58 9228   7.056   5.112   7.146  0.1391 -0.7892  0.9350
   36MOL    H59 9229   6.972   5.058   6.961  1.1834  1.2747 -0.1278
   36MOL    H60 9230   6.914   4.891   7.206 -0.5040 -0.9249  0.2592
   36MOL    H61 9231   6.774   4.834   6.938  1.9961 -1.8678  0.5198
   36MOL    H62 9232   6.725   4.784   7.111 -1.0381  0.2016  0.0319
   36MOL    H63 9233   6.686   5.022   7.174  2.2447  0.7827  1.5536
   36MOL    H64 9234   6.728   5.063   6.999  1.7376  1.7066  0.9855
   36MOL    H65 9235   6.967   5.155   7.192  0.1452 -0.6610  0.8289
   36MOL    H66 9236   7.101   5.069   7.235  0.7475  1.7067  1.8576
   36MOL    C67 9237   7.128   5.229   7.075  0.3976  0.8296 -0.2889
   36MOL    C68 9238   7.030   5.317   7.017 -0.5845  0.1126 -0.0707
   36MOL    C69 9239   7.047   5.428   6.922  0.0595  0.2475  0.1686
   36MOL    C70 9240   6.984   5.298   6.877 -0.4070  0.1282  0.0132
   36MOL    C71 9241   7.202   5.301   7.184  0.4586 -0.4539 -0.2585
   36MOL    H72 9242   7.194   5.201   6.992  0.4597 -0.5125  0.2020
   36MOL    H73 9243   6.947   5.341   7.084 -0.5749 -3.1558  1.1857
   36MOL    H74 9244   6.973   5.507   6.914 -0.1634 -0.1871 -2.4745
   36MOL    H75 9245   7.144   5.456   6.883 -0.6469  2.2608 -0.1874
   36MOL    H76 9246   7.045   5.249   6.801  0.7009  1.8506 -0.2376
   36MOL    H77 9247   6.877   5.292   6.857 -0.0921 -0.8180 -1.4645
   36MOL    H78 9248   7.257   5.230   7.245  0.2182 -0.7946 -0.4328
   36MOL    H79 9249   7.128   5.342   7.253  0.1516 -1.3518 -0.0460
   36MOL    C80 9250   7.310   5.406   7.138 -0.3272  0.3049 -0.4096
   36MOL    C81 9251   7.427   5.326   7.070  0.2842  0.0523  0.0434
   36MOL    C82 9252   7.542   5.385   6.994 -0.3623 -0.4318  0.3632
   36MOL    C83 9253   7.427   5.318   6.918  0.6175 -0.0825 -0.3084
   36MOL    C84 9254   7.366   5.490   7.255  0.1446 -0.1347 -0.2778
   36MOL    H85 9255   7.267   5.470   7.061  0.7236  1.3178 -0.1614
   36MOL    H86 9256   7.468   5.246   7.131  0.3070  1.0347  1.3567
   36MOL    H87 9257   7.636   5.331   7.002 -1.8781 -3.3353 -0.7656
   36MOL    H88 9258   7.544   5.492   6.977 -3.0559 -0.3555  0.3085
   36MOL    H89 9259   7.360   5.395   6.878  1.5146  0.7291 -0.2729
   36MOL    H90 9260   7.443   5.226   6.863  3.3575 -1.6629  2.9616
   36MOL    H91 9261   7.283   5.493   7.325 -1.2906 -1.2780 -1.8879
   36MOL    H92 9262   7.449   5.438   7.304 -0.2436 -0.8628 -0.3832
   36MOL    C93 9263   7.393   5.641   7.214  0.3479  0.1264  0.2285
   36MOL    C94 9264   7.264   5.710   7.174  1.0614  0.1696 -0.3942
   36MOL    C95 9265   7.262   5.845   7.100  0.5131  0.4975  0.0052
   36MOL    C96 9266   7.215   5.721   7.030 -0.6525 -0.5639  0.7214
   36MOL    C97 9267   7.448   5.721   7.332  0.2540  0.0385  0.5320
   36MOL    H98 9268   7.450   5.652   7.122  0.0345 -1.0047 -0.1102
   36MOL    H99 9269   7.193   5.688   7.253 -0.2200 -2.1822 -2.1577
   36MOL   H100 9270   7.190   5.919   7.135  0.1250  0.7224 -1.2428
   36MOL   H101 9271   7.353   5.886   7.057 -0.3501  1.4396 -0.9698
   36MOL   H102 9272   7.108   5.711   7.014 -0.7428  0.8258  0.3750
   36MOL   H103 9273   7.275   5.690   6.945  0.5389  2.7311  0.3007
   36MOL   H104 9274   7.372   5.710   7.410 -2.1691 -1.1593 -1.8989
   36MOL   H105 9275   7.438   5.828   7.311 -1.6123 -0.1950  0.1292
   36MOL   C106 9276   7.586   5.693   7.390  0.3441  0.1799 -0.2519
   36MOL   C107 9277   7.683   5.662   7.280  0.4085 -0.3861 -0.2692
   36MOL   C108 9278   7.829   5.640   7.315 -0.4160 -0.7372 -0.8650
   36MOL   C109 9279   7.751   5.535   7.244  0.7114 -0.4258 -0.1704
   36MOL   C110 9280   7.625   5.810   7.481 -0.1050  0.1871 -0.4245
   36MOL   H111 9281   7.587   5.606   7.456  1.8464  0.7608  0.5128
   36MOL   H112 9282   7.663   5.733   7.201 -1.0384 -0.4202  0.0435
   36MOL   H113 9283   0.060   5.703   7.261  0.2833  2.4639  3.5821
   36MOL   H114 9284   0.012   5.632   7.421  0.1614  1.9472 -0.7445
   36MOL   H115 9285   7.716   5.445   7.294 -0.4131 -1.7363 -3.1979
   36MOL   H116 9286   7.770   5.516   7.139 -1.0636  1.2050 -0.8395
   36MOL   H117 9287   7.731   5.803   7.509 -0.2368 -1.4379 -0.2805
   36MOL   H118 9288   7.624   5.904   7.427 -0.6421  1.4960  1.7944
   36MOL   C119 9289   7.543   5.823   7.612  1.1559  0.3464 -0.6721
   36MOL   C120 9290   7.571   5.730   7.723  0.4088  0.3211  0.1182
   36MOL   C121 9291   7.493   5.604   7.710  0.0334  0.3177  0.1889
   36MOL   C122 9292   7.456   5.702   7.827 -0.3290  0.0556  0.3517
   36MOL   C123 9293   7.542   5.971   7.675  0.0444  0.5682 -0.0770
   36MOL   H124 9294   7.441   5.799   7.583  1.1605 -1.3753  0.6662
   36MOL   H125 9295   7.672   5.696   7.745  0.4236 -0.7715 -1.5472
   36MOL   H126 9296   7.529   5.509   7.748 -0.8614  0.1452  0.6242
   36MOL   H127 9297   7.422   5.586   7.629  0.9394 -3.3058  0.1264
   36MOL   H128 9298   7.359   5.748   7.813 -1.1101 -1.2690  1.2983
   36MOL   H129 9299   7.483   5.680   0.091  0.2595 -2.1894 -0.2501
   36MOL   H130 9300   7.589   5.970   7.773 -0.3002 -0.4643  0.0748
   36MOL   H131 9301   7.587   6.047   7.610  0.6519 -0.4603 -0.8585
   36MOL   C132 9302   7.401   6.036   7.700  0.1618 -0.2012 -0.3065
   36MOL   C133 9303   7.325   6.044   7.568  0.7269  0.8076 -0.2292
   36MOL   C134 9304   7.187   6.094   7.556 -0.0555  0.1964 -0.1896
   36MOL   C135 9305   7.213   5.947   7.539 -0.8262  0.0440 -0.3000
   36MOL   C136 9306   7.419   6.185   7.759  0.1156 -0.5032  0.3036
   36MOL   H137 9307   7.350   5.969   7.768 -1.5878  2.7177  1.3667
   36MOL   H138 9308   7.387   6.079   7.485  0.7253  1.8829  0.2206
   36MOL   H139 9309   7.129   6.109   7.647  0.0505  0.7338 -0.2092
   36MOL   H140 9310   7.167   6.153   7.467 -0.8718  1.8824  1.0820
   36MOL   H141 9311   7.166   5.890   7.619 -0.3801 -0.4434 -0.3876
   36MOL   H142 9312   7.221   5.903   7.440  0.4901  1.3135 -0.7716
   36MOL   H143 9313   7.505   6.226   7.705  0.1658 -0.2155  0.6001
   36MOL   H144 9314   7.335   6.241   7.718  1.1066  0.2443 -0.7588
   36MOL   C145 9315   7.426   6.211   0.072 -0.2000  0.7117 -0.3886
   36MOL   C146 9316   7.293   6.172   0.138 -0.1399  0.0356  0.1617
   36MOL   C147 9317   7.234   6.263   0.252  0.6823  0.2401 -0.2042
   36MOL   C148 9318   7.175   6.267   0.117  0.3981 -0.7008  0.0948
   36MOL   C149 9319   7.551   6.147   0.138 -0.1664  0.0266  0.5524
   36MOL   H150 9320   7.441   6.317   0.094 -0.4236 -0.0818  4.1251
   36MOL   H151 9321   7.280   6.066   0.158 -0.0040 -0.3001 -1.4277
   36MOL   H152 9322   7.192   6.198   0.329  1.2694 -0.2556 -0.2923
   36MOL   H153 9323   7.296   6.346   0.286  0.5908  0.4210 -0.4803
   36MOL   H154 9324   7.190   6.361   0.064  1.0296 -0.0235  1.4442
   36MOL   H155 9325   7.070   6.239   0.107 -0.0325  0.2857  1.6140
   36MOL   H156 9326   7.543   6.039   0.146  3.5631 -0.3237  0.5445
   36MOL   H157 9327   7.634   6.164   0.069  0.6518 -1.8867  1.0174
   36MOL   C158 9328   7.594   6.216   0.270 -0.6978  0.4522  0.4627
   36MOL   C159 9329   7.633   6.362   0.261 -0.2580  0.6590  0.4996
   36MOL   C160 9330   7.543   6.470   0.308  0.7208 -0.0633 -0.7075
   36MOL   C161 9331   7.677   6.446   0.383 -0.2105 -0.7472 -0.1919
   36MOL   C162 9332   7.714   6.132   0.319 -0.4208 -0.0580 -0.1558
   36MOL   H163 9333   7.517   6.211   0.347  0.0761  2.3518  1.3878
   36MOL   H164 9334   7.699   6.385   0.177  0.6536 -0.9877  0.7421
   36MOL   H165 9335   7.458   6.465   0.375  0.8671 -2.4791 -0.6609
   36MOL   H166 9336   7.540   6.562   0.250  0.1793  0.8768  0.7680
   36MOL   H167 9337   7.758   6.518   0.379  0.4193 -1.3863  0.8105
   36MOL   H168 9338   7.661   6.401   0.481 -1.1721 -0.6170 -0.2814
   36MOL   H169 9339   7.784   6.197   0.371 -1.6469 -0.0956  1.5402
   36MOL   H170 9340   7.771   6.088   0.236 -1.2189 -1.6625  0.1273
   36MOL   C171 9341   7.682   6.027   0.432 -0.2774 -0.7286 -0.1212
   36MOL   C172 9342   7.764   5.899   0.408 -0.2693  0.2561 -0.7775
   36MOL   C173 9343   7.719   5.766   0.469  0.5700  0.4720 -0.2577
   36MOL   C174 9344   7.714   5.777   0.320 -1.0041 -0.1741 -0.0754
   36MOL   C175 9345   7.715   6.067   0.576 -0.1474 -0.0361  0.4998
   36MOL   H176 9346   7.579   5.993   0.434 -0.0829 -1.2945  0.5960
   36MOL   H177 9347   0.032   5.916   0.404 -0.2214  0.4530  1.0675
   36MOL   H178 9348   7.790   5.698   0.515  0.0602  0.2999  0.2981
   36MOL   H179 9349   7.622   5.746   0.516  1.2000  0.8534  1.2207
   36MOL   H180 9350   7.625   5.794   0.259 -0.4320  0.4408 -0.7464
   36MOL   H181 9351   7.794   5.718   0.277  0.2968  1.4453  0.0709
   36MOL   H182 9352   7.807   6.123   0.587 -1.1976  1.5923  1.2748
   36MOL   H183 9353   7.733   5.976   0.632 -0.2217 -0.0268  0.5387
   36MOL   C184 9354   7.596   6.139   0.641  0.2503 -0.1209  0.1048
   36MOL   C185 9355   7.649   6.219   0.764  0.5876 -0.6395  0.5303
   36MOL   C186 9356   7.729   6.154   0.873  0.2001 -0.1387 -0.5413
   36MOL   C187 9357   7.599   6.221   0.909 -0.3447  0.1863  1.1083
   36MOL   C188 9358   7.480   6.032   0.680 -0.6108  0.1459 -0.2042
   36MOL   H189 9359   7.559   6.205   0.564  2.2710  0.3450 -0.5064
   36MOL   H190 9360   7.694   6.313   0.734  0.2782 -0.7297 -0.2049
   36MOL   H191 9361   7.820   6.209   0.898 -1.1517  1.3274  1.2074
   36MOL   H192 9362   7.731   6.045   0.874 -1.1449 -0.1601 -0.5198
   36MOL   H193 9363   7.596   6.319   0.958 -1.8677  0.5236  0.3721
   36MOL   H194 9364   7.530   6.147   0.947  1.8678 -1.9262  1.1181
   36MOL   H195 9365   7.492   6.005   0.785  0.8788 -1.6024 -0.8173
   36MOL   H196 9366   7.509   5.935   0.640  0.5927  0.3341  0.1835
   36MOL   C197 9367   7.336   6.079   0.651  0.1691 -0.0638  0.2217
   36MOL   C198 9368   7.305   6.207   0.720 -0.3622 -0.0012  0.2191
   36MOL   C199 9369   7.169   6.277   0.699  0.1136 -0.2306 -0.2513
   36MOL   C200 9370   7.295   6.353   0.675 -0.2271 -0.5925 -0.4397
   36MOL   C201 9371   7.233   5.970   0.686 -0.7666 -0.6175  0.6439
   36MOL   H202 9372   7.340   6.099   0.543  0.5528  0.3595  0.3107
   36MOL   H203 9373   7.331   6.206   0.826  0.5954  0.3000 -0.0066
   36MOL   H204 9374   7.110   6.270   0.607  1.1757 -1.0923 -0.8806
   36MOL   H205 9375   7.109   6.294   0.788 -2.0351 -1.8830 -1.3260
   36MOL   H206 9376   7.340   6.376   0.578 -1.5931  1.5178 -0.6092
   36MOL   H207 9377   7.321   6.422   0.755  0.1646  0.1119 -1.1573
   36MOL   H208 9378   7.277   5.893   0.750  1.0610 -0.0903  0.0439
   36MOL   H209 9379   7.156   6.007   0.753 -1.5634  2.1445 -1.7115
   36MOL   C210 9380   7.166   5.909   0.561 -0.4744 -0.0351  0.2262
   36MOL   C211 9381   7.260   5.827   0.474  0.3430 -0.1982 -0.3845
   36MOL   C212 9382   7.227   5.792   0.332  0.4529  0.4661 -0.2560
   36MOL   C213 9383   7.338   5.889   0.363 -0.4302 -0.5418  0.2693
   36MOL   C214 9384   7.050   5.822   0.614  1.0257  0.9633 -0.0710
   36MOL   H215 9385   7.124   5.993   0.507  1.7151  0.3748 -0.9015
   36MOL   H216 9386   7.316   5.749   0.525 -1.6387  0.2118  2.5256
   36MOL   H217 9387   7.252   5.692   0.296  0.6142 -0.1174  1.4243
   36MOL   H218 9388   7.144   5.840   0.281 -0.5642 -1.1335 -0.1429
   36MOL   H219 9389   7.438   5.855   0.340 -0.1065  1.0159 -0.6458
   36MOL   H220 9390   7.329   5.996   0.349 -0.3673 -0.5410  0.2395
   36MOL   H221 9391   7.091   5.722   0.627  3.1045  1.7127 -0.7180
   36MOL   H222 9392   7.031   5.840   0.720  2.3178  1.9525  0.0021
   36MOL   C223 9393   6.915   5.823   0.535  0.2182 -0.4071  0.2641
   36MOL   C224 9394   6.831   5.954   0.566  0.9161  0.3100 -0.2789
   36MOL   C225 9395   6.846   6.072   0.475 -0.4293 -0.3848 -0.0664
   36MOL   C226 9396   6.719   5.988   0.467 -0.5775 -0.0259  0.3871
   36MOL   C227 9397   6.835   5.698   0.554 -0.4416  0.5063 -0.0852
   36MOL   H228 9398   6.933   5.829   0.428 -0.8674  3.6488  0.2116
   36MOL   H229 9399   6.804   5.957   0.671 -2.8796 -0.7210 -1.1497
   36MOL   H230 9400   6.917   6.063   0.393 -0.2804  1.6824 -0.1869
   36MOL   H231 9401   6.845   6.170   0.521 -0.7294  0.7737 -2.4943
   36MOL   H232 9402   6.630   6.018   0.522  0.2783  0.8673  1.3152
   36MOL   H233 9403   6.709   5.927   0.378  0.0767  1.3893 -0.6816
   36MOL   H234 9404   6.858   5.667   0.656 -0.7747 -2.1445 -0.7631
   36MOL   H235 9405   6.732   5.733   0.543 -0.5435  0.2490  0.0342
   36MOL   C236 9406   6.844   5.581   0.455  1.0900 -1.0918  0.3794
   36MOL   C237 9407   6.987   5.532   0.455 -0.0126 -0.1158  0.8256
   36MOL   C238 9408   7.041   5.460   0.574  0.2677 -0.7738  0.0560
   36MOL   C239 9409   7.010   5.390   0.444  0.1531  0.3489  0.4653
   36MOL   C240 9410   6.795   5.625   0.312 -0.3726 -0.6505  0.5048
   36MOL   H241 9411   6.786   5.493   0.483 -0.0617 -1.4615 -2.9879
   36MOL   H242 9412   7.062   5.600   0.416 -1.1082  0.1568 -0.9032
   36MOL   H243 9413   7.145   5.482   0.595 -0.0052  2.2642 -1.4716
   36MOL   H244 9414   6.978   5.461   0.662  1.9257  1.8793  1.2755
   36MOL   H245 9415   6.928   5.319   0.439  1.2058 -0.7061 -2.8296
   36MOL   H246 9416   7.094   5.364   0.380  1.4671 -0.8334  2.5974
   36MOL   H247 9417   6.838   5.724   0.294 -0.2212 -0.5660  1.3388
   36MOL   H248 9418   6.838   5.551   0.244  0.7909 -0.4152  0.9858
   36MOL   C249 9419   6.650   5.629   0.279  0.3318 -0.0427  0.3308
   36MOL   C250 9420   6.578   5.494   0.256  0.7432 -0.5738 -0.2191
   36MOL   C251 9421   6.520   5.408   0.365  0.0353 -0.1774 -0.3836
   36MOL   C252 9422   6.426   5.486   0.287 -0.0702 -0.1742  0.7992
   36MOL   C253 9423   6.621   5.713   0.153  0.2345  0.1563 -0.0685
   36MOL   H254 9424   6.598   5.676   0.362  1.2141 -0.4355  1.1064
   36MOL   H255 9425   6.621   5.438   0.173  0.4915  0.1059 -0.8097
   36MOL   H256 9426   6.503   5.302   0.345 -0.9997  0.0345 -0.6241
   36MOL   H257 9427   6.537   5.427   0.471  2.4717  0.7014 -0.8948
   36MOL   H258 9428   6.365   5.430   0.216  1.2120 -1.0672  0.3779
   36MOL   H259 9429   6.369   5.548   0.355 -0.6654 -0.6910  0.7773
   36MOL   H260 9430   6.516   5.708   0.122 -0.9767  0.1714  3.7513
   36MOL   H261 9431   6.675   5.674   0.067  3.9005  0.8125  1.8599
   36MOL   H262 9432   6.639   5.818   0.175 -2.5617  0.3711  1.3573
   37MOL     C1 9433   7.347   1.430   0.486  0.3729  1.5518 -0.3807
   37MOL     C2 9434   7.442   1.321   0.534  0.2884 -0.7655  0.0290
   37MOL     C3 9435   7.540   1.347   0.649 -0.7542  0.2205 -0.7516
   37MOL     C4 9436   7.589   1.318   0.512  0.5632  0.0286  1.1031
   37MOL     C5 9437   7.304   1.390   0.347 -0.1700  0.5039 -0.1649
   37MOL     H6 9438   7.258   1.435   0.548  0.1159  2.6558 -0.8245
   37MOL     H7 9439   7.374   1.238   0.556  0.6981 -0.8433  1.0179
   37MOL     H8 9440   7.542   1.447   0.691 -1.5642 -0.0492 -0.0306
   37MOL     H9 9441   7.544   1.264   0.719 -1.3374 -0.0902 -1.0760
   37MOL    H10 9442   7.646   1.225   0.510  2.7865  1.3644 -1.4541
   37MOL    H11 9443   7.638   1.403   0.464  1.6484 -2.2110 -1.9320
   37MOL    H12 9444   7.222   1.319   0.358 -0.7113  0.9765 -1.1527
   37MOL    H13 9445   7.383   1.327   0.305  0.9015  0.6431  1.5741
   37MOL    H14 9446   7.399   1.526   0.485 -0.0009  1.7691  0.6377
   37MOL    C15 9447   7.254   1.504   0.255 -0.2762 -0.2778  0.2887
   37MOL    C16 9448   7.231   1.442   0.119 -0.5665  0.5616 -0.4394
   37MOL    C17 9449   7.332   1.398   0.019 -0.4417 -0.4642  0.9138
   37MOL    C18 9450   7.256   1.525   7.834 -0.0517 -0.2367  0.2843
   37MOL    C19 9451   7.129   1.567   0.306  0.3377  0.3572  0.4572
   37MOL    H20 9452   7.332   1.577   0.233 -0.3530  0.0335  1.0494
   37MOL    H21 9453   7.153   1.367   0.131 -0.8742  0.8613 -0.5430
   37MOL    H22 9454   7.317   1.313   7.792 -0.4398  0.9725 -0.9600
   37MOL    H23 9455   7.438   1.402   0.046 -0.3707 -0.2921  0.6152
   37MOL    H24 9456   7.307   1.621   0.002  2.1864 -1.2218 -1.3952
   37MOL    H25 9457   7.163   1.532   7.778 -0.1469  2.8920  0.7489
   37MOL    H26 9458   7.142   1.608   0.407 -0.0168 -1.0020  1.0672
   37MOL    H27 9459   7.045   1.498   0.315  0.1205  0.2582 -2.0288
   37MOL    C28 9460   7.073   1.695   0.231 -1.4388  0.5883 -0.0896
   37MOL    C29 9461   7.161   1.822   0.258  0.3068 -0.5602 -0.4536
   37MOL    C30 9462   7.277   1.872   0.187 -1.0040  0.5701  0.6765
   37MOL    C31 9463   7.150   1.955   0.182 -0.3434  0.0100 -0.1436
   37MOL    C32 9464   6.926   1.730   0.281 -0.1048 -0.7082 -0.9161
   37MOL    H33 9465   7.066   1.688   0.123 -2.5806  0.5105 -0.0106
   37MOL    H34 9466   7.172   1.845   0.364  0.1507  0.5454 -0.6729
   37MOL    H35 9467   7.303   1.835   0.088 -2.8326  0.7217  0.1070
   37MOL    H36 9468   7.359   1.897   0.253 -0.7582 -0.1897  0.6709
   37MOL    H37 9469   7.100   1.953   0.085 -0.6869  1.1642 -0.0015
   37MOL    H38 9470   7.148   2.049   0.236 -2.2034 -0.3998  0.5395
   37MOL    H39 9471   6.909   1.837   0.263  1.0033 -0.3717  0.0157
   37MOL    H40 9472   6.922   1.726   0.389 -0.7385  1.9119 -0.8121
   37MOL    C41 9473   6.800   1.652   0.218 -0.5813  0.2256  0.1396
   37MOL    C42 9474   6.684   1.752   0.200  0.4427 -0.3615 -0.2480
   37MOL    C43 9475   6.576   1.752   0.093 -0.6105  0.6745 -0.1316
   37MOL    C44 9476   6.673   1.859   0.089  0.4144  0.0020 -0.5085
   37MOL    C45 9477   6.758   1.531   0.297 -0.0577 -0.1748  0.0888
   37MOL    H46 9478   6.835   1.613   0.123  0.2920  0.0688  0.5211
   37MOL    H47 9479   6.669   1.787   0.302 -1.2353 -1.7737  0.0139
   37MOL    H48 9480   6.578   1.672   0.018  1.9164 -0.2847  0.9148
   37MOL    H49 9481   6.477   1.775   0.131 -0.3399  0.1359  0.9167
   37MOL    H50 9482   6.632   1.955   0.121  1.8616  0.7040 -0.7034
   37MOL    H51 9483   6.739   1.855   0.003  0.9189  3.4846 -0.3484
   37MOL    H52 9484   6.726   1.571   0.393  1.2817  1.1729 -0.0231
   37MOL    H53 9485   6.847   1.477   0.328  0.0694  0.4522  0.8242
   37MOL    C54 9486   6.662   1.431   0.225  0.1248 -0.2416 -0.1039
   37MOL    C55 9487   6.734   1.331   0.130 -0.1321 -0.1693 -0.1443
   37MOL    C56 9488   6.780   1.369   7.834 -0.1393  0.2506  0.7045
   37MOL    C57 9489   6.657   1.282   0.012  0.3372 -0.7625 -0.2242
   37MOL    C58 9490   6.595   1.358   0.344 -0.5982  0.2149  0.2836
   37MOL    H59 9491   6.583   1.480   0.168  0.4740  2.0307  1.2792
   37MOL    H60 9492   6.799   1.256   0.174 -0.0224 -1.9811 -3.2432
   37MOL    H61 9493   6.765   1.472   7.804  1.0503  0.0024 -0.8010
   37MOL    H62 9494   6.872   1.322   7.799 -0.7389 -0.6038  0.2361
   37MOL    H63 9495   6.661   1.185   7.803 -0.2197 -1.3302  0.8328
   37MOL    H64 9496   6.567   1.337   7.826  0.2685 -1.3699 -1.3289
   37MOL    H65 9497   6.667   1.302   0.404 -0.3012  0.3205  0.0256
   37MOL    H66 9498   6.558   1.430   0.417  0.2914 -0.5512  1.5157
   37MOL    C67 9499   6.480   1.258   0.313 -0.6766  0.0946 -0.4863
   37MOL    C68 9500   6.467   1.145   0.417  0.0145  0.8921 -0.1867
   37MOL    C69 9501   6.550   1.111   0.540  0.7731 -0.0061 -0.8265
   37MOL    C70 9502   6.410   1.169   0.556  0.1680  0.5062 -0.1480
   37MOL    C71 9503   6.355   1.339   0.287 -0.7201 -0.1065  0.3559
   37MOL    H72 9504   6.498   1.203   0.220  1.8743  0.7638 -0.4140
   37MOL    H73 9505   6.406   1.065   0.375 -1.6966  1.0025  1.9565
   37MOL    H74 9506   6.552   1.013   0.587  0.7981 -1.0108 -2.8646
   37MOL    H75 9507   6.631   1.174   0.575 -0.1806  0.6613  0.2103
   37MOL    H76 9508   6.402   1.272   0.591 -0.9875 -0.2165  1.7777
   37MOL    H77 9509   6.329   1.100   0.580  0.2829 -1.1402 -4.0948
   37MOL    H78 9510   6.386   1.418   0.218 -0.8651  0.6360  1.1289
   37MOL    H79 9511   6.331   1.380   0.386  2.5643 -1.2058  1.6868
   37MOL    C80 9512   6.233   1.262   0.226 -0.2602  0.0358  0.2394
   37MOL    C81 9513   6.277   1.205   0.090 -0.4644  0.4375  0.7975
   37MOL    C82 9514   6.189   1.093   0.039 -0.5778  0.8382  0.7528
   37MOL    C83 9515   6.329   1.061   0.064 -0.1276  0.3122  0.0623
   37MOL    C84 9516   6.101   1.344   0.227  0.3015 -0.2895  0.0304
   37MOL    H85 9517   6.219   1.173   0.288 -0.1231 -0.6880 -0.7648
   37MOL    H86 9518   6.317   1.279   0.020 -0.1517 -0.8863 -0.4408
   37MOL    H87 9519   6.173   1.072   7.773  0.0964 -2.0462  1.1830
   37MOL    H88 9520   6.117   1.046   0.105  0.2565 -1.8501 -0.1780
   37MOL    H89 9521   6.353   0.996   0.148  1.8298 -0.8841 -1.3743
   37MOL    H90 9522   6.390   1.051   7.814  0.3494  1.2723  0.2794
   37MOL    H91 9523   6.111   1.416   0.145  1.5872  0.1955  0.6072
   37MOL    H92 9524   6.029   1.267   0.200 -0.9912  0.0024  2.5580
   37MOL    C93 9525   6.062   1.425   0.345  0.4218  0.4318  0.4988
   37MOL    C94 9526   5.942   1.505   0.305 -0.2287  0.3013  0.1976
   37MOL    C95 9527   5.900   1.640   0.361 -0.2809  0.5791  0.0153
   37MOL    C96 9528   5.948   1.631   0.220 -0.6409  0.2137  0.8975
   37MOL    C97 9529   6.016   1.325   0.454 -0.0013  0.7528 -0.5775
   37MOL    H98 9530   6.145   1.489   0.376  1.0075 -0.5394  0.9460
   37MOL    H99 9531   5.862   1.438   0.273 -2.1192  1.6422  1.9386
   37MOL   H100 9532   5.793   1.657   0.371 -0.1404  0.5901  1.7745
   37MOL   H101 9533   5.950   1.680   0.449  0.7190  1.3968 -0.9173
   37MOL   H102 9534   5.873   1.642   0.142  0.5174 -0.5910 -0.3423
   37MOL   H103 9535   6.048   1.658   0.186 -1.3684 -1.8653 -3.2430
   37MOL   H104 9536   6.086   1.245   0.479 -0.7949  0.5535  1.0878
   37MOL   H105 9537   5.924   1.282   0.416  0.0280 -0.2449  0.4723
   37MOL   C106 9538   5.981   1.388   0.588  0.5280  0.4291  0.2641
   37MOL   C107 9539   5.855   1.314   0.642  0.2705 -0.0794 -0.4292
   37MOL   C108 9540   5.747   1.388   0.716  0.3951 -1.0084 -0.3392
   37MOL   C109 9541   5.720   1.348   0.577  0.0666 -0.0279  0.0421
   37MOL   C110 9542   6.093   1.377   0.686  0.4281 -0.2273  0.3177
   37MOL   H111 9543   5.953   1.492   0.570 -0.1150  0.5910  2.0814
   37MOL   H112 9544   5.854   1.206   0.657 -2.1895  0.0829  0.7546
   37MOL   H113 9545   5.686   1.339   0.792  0.3085 -1.0246 -0.4190
   37MOL   H114 9546   5.754   1.495   0.732 -0.7452 -0.9709 -0.0113
   37MOL   H115 9547   5.727   1.416   0.493  0.3638 -1.0952 -0.8131
   37MOL   H116 9548   5.650   1.265   0.575  1.9158 -1.6493  0.3743
   37MOL   H117 9549   6.075   1.289   0.747 -0.3654  0.1786  0.6734
   37MOL   H118 9550   6.182   1.338   0.636  0.7439  1.2084 -0.2689
   37MOL   C119 9551   6.129   1.505   0.767 -0.1224 -0.0123  0.3197
   37MOL   C120 9552   6.039   1.558   0.871 -0.6529 -0.6146  0.3455
   37MOL   C121 9553   5.926   1.652   0.828  0.5099  0.0059 -0.1482
   37MOL   C122 9554   6.037   1.700   0.922  0.0900  0.4168  0.3557
   37MOL   C123 9555   6.267   1.497   0.830  0.0842  0.4892 -0.3147
   37MOL   H124 9556   6.143   1.583   0.693  1.2148 -0.9562 -0.4606
   37MOL   H125 9557   6.023   1.487   0.953 -1.8447  0.2662  0.8793
   37MOL   H126 9558   5.830   1.628   0.873 -0.1614  2.1800 -0.3918
   37MOL   H127 9559   5.912   1.706   0.735  0.1913 -0.9673 -0.6770
   37MOL   H128 9560   6.120   1.760   0.885 -0.3164  0.7148 -0.0696
   37MOL   H129 9561   6.008   1.706   1.027  0.6353  0.8500  0.4877
   37MOL   H130 9562   6.256   1.502   0.939 -1.4081  0.9454 -0.4784
   37MOL   H131 9563   6.325   1.405   0.821 -0.0125  0.3758  0.2056
   37MOL   C132 9564   6.372   1.607   0.790  0.0497  0.1290  0.2749
   37MOL   C133 9565   6.405   1.594   0.646  0.1884  0.6592  0.3559
   37MOL   C134 9566   6.485   1.706   0.580  0.3165  0.4341 -0.3331
   37MOL   C135 9567   6.352   1.673   0.528 -0.2829 -0.5354 -0.0544
   37MOL   C136 9568   6.501   1.612   0.875  0.2912 -0.4045  0.1524
   37MOL   H137 9569   6.320   1.701   0.807 -0.4413 -0.4957  2.4092
   37MOL   H138 9570   6.449   1.496   0.634  0.2232  0.7086  0.0682
   37MOL   H139 9571   6.512   1.788   0.646 -2.2550 -0.8546  2.4562
   37MOL   H140 9572   6.559   1.673   0.507  1.1263  0.6331  0.3784
   37MOL   H141 9573   6.269   1.742   0.544  2.0662  2.3305  0.1506
   37MOL   H142 9574   6.359   1.624   0.431 -1.3036 -1.4469  0.3251
   37MOL   H143 9575   6.576   1.545   0.835  1.1202  0.7510 -0.2462
   37MOL   H144 9576   6.534   1.713   0.851  0.4411 -0.5270 -0.1577
   37MOL   C145 9577   6.487   1.600   1.027 -0.2546 -0.6837  0.1288
   37MOL   C146 9578   6.620   1.567   1.096 -0.6507 -0.8754  0.1202
   37MOL   C147 9579   6.639   1.450   1.190  0.1376 -0.3340 -0.3804
   37MOL   C148 9580   6.700   1.443   1.055  0.8300  0.2429  0.4296
   37MOL   C149 9581   6.408   1.723   1.096 -1.1814  0.0777  0.2151
   37MOL   H150 9582   6.426   1.512   1.047 -0.5481 -0.3798  0.5891
   37MOL   H151 9583   6.690   1.648   1.117  0.3259 -2.1191  1.7789
   37MOL   H152 9584   6.711   1.463   1.271  1.9085  0.5000 -2.0553
   37MOL   H153 9585   6.544   1.404   1.217  0.2058  0.2669  0.9213
   37MOL   H154 9586   6.670   1.349   1.008  1.6097  0.5291 -0.6433
   37MOL   H155 9587   6.808   1.436   1.060  1.0481  2.7782 -0.2130
   37MOL   H156 9588   6.484   1.800   1.109 -0.1578 -0.9368  0.4010
   37MOL   H157 9589   6.334   1.772   1.033 -0.5027  2.3659  1.1413
   37MOL   C158 9590   6.355   1.696   1.231  0.3642  0.1090  0.9485
   37MOL   C159 9591   6.236   1.605   1.225  0.0596 -0.1783 -0.2433
   37MOL   C160 9592   6.255   1.459   1.239  0.4081 -0.1591 -0.4793
   37MOL   C161 9593   6.194   1.542   1.352 -0.1637 -0.5444 -0.4796
   37MOL   C162 9594   6.303   1.829   1.300  0.3007  0.4271  0.0745
   37MOL   H163 9595   6.431   1.648   1.292  1.0087  0.1986  0.2101
   37MOL   H164 9596   6.144   1.642   1.180 -1.6266 -0.6531  2.6694
   37MOL   H165 9597   6.350   1.420   1.273  0.9833  1.6508  0.0115
   37MOL   H166 9598   6.207   1.393   1.167 -0.2213  0.9436 -1.0761
   37MOL   H167 9599   6.088   1.530   1.369  0.0196 -0.5330  0.6856
   37MOL   H168 9600   6.258   1.551   1.440 -1.9665 -1.7976  0.9839
   37MOL   H169 9601   6.201   1.825   1.339  0.9637 -0.3317  1.7483
   37MOL   H170 9602   6.299   1.901   1.218  0.2473  0.7510  0.3580
   37MOL   C171 9603   6.399   1.899   1.406 -0.3666  0.0129 -0.3222
   37MOL   C172 9604   6.525   1.951   1.338  0.2847 -0.6290 -0.1497
   37MOL   C173 9605   6.650   1.974   1.424  0.7831 -0.0976 -0.1033
   37MOL   C174 9606   6.644   1.870   1.317  0.3115  0.1842 -0.5037
   37MOL   C175 9607   6.329   2.011   1.486 -0.6921  0.7051 -0.5994
   37MOL   H176 9608   6.431   1.826   1.481 -0.3477  0.5754  0.2286
   37MOL   H177 9609   6.509   2.014   1.251  1.1874 -0.2813 -0.0734
   37MOL   H178 9610   6.718   2.057   1.405  1.5070 -0.4837  0.7393
   37MOL   H179 9611   6.649   1.940   1.528 -2.1756 -0.3786 -0.2034
   37MOL   H180 9612   6.651   1.768   1.354  0.8338  0.2841 -0.3163
   37MOL   H181 9613   6.705   1.872   1.226  1.1012 -2.7389 -0.0980
   37MOL   H182 9614   6.390   2.027   1.575  0.1139  0.6407 -1.1251
   37MOL   H183 9615   6.234   1.971   1.521 -0.2462 -0.6646 -0.9092
   37MOL   C184 9616   6.312   2.151   1.424  0.2471 -0.2251 -0.2194
   37MOL   C185 9617   6.298   2.258   1.528 -0.2530  0.2856  0.2330
   37MOL   C186 9618   6.351   2.392   1.498 -0.1304  0.7733  0.1565
   37MOL   C187 9619   6.416   2.312   1.605  0.1497 -0.0089  0.0256
   37MOL   C188 9620   6.195   2.152   1.323  0.0652 -0.0307  0.4511
   37MOL   H189 9621   6.405   2.179   1.374 -0.8913  2.7234 -0.8121
   37MOL   H190 9622   6.200   2.266   1.574 -1.0813 -3.3501 -0.7458
   37MOL   H191 9623   6.306   2.480   1.545  0.4368  1.4401 -0.5327
   37MOL   H192 9624   6.400   2.406   1.402 -0.9558  1.0258 -0.2377
   37MOL   H193 9625   6.379   2.344   1.702  1.3038  1.7511 -0.0948
   37MOL   H194 9626   6.512   2.263   1.591  0.3314  0.1355  0.7300
   37MOL   H195 9627   6.105   2.184   1.375 -1.3866  0.0021 -2.0088
   37MOL   H196 9628   6.167   2.052   1.289 -1.5406  0.2617  0.8713
   37MOL   C197 9629   6.225   2.250   1.197 -0.3190  0.5454 -0.6253
   37MOL   C198 9630   6.102   2.333   1.166  0.2129  0.7174  0.8004
   37MOL   C199 9631   6.112   2.481   1.141  0.4602  0.2020  0.0524
   37MOL   C200 9632   6.052   2.436   1.269 -0.5154 -0.0527 -0.6083
   37MOL   C201 9633   6.274   2.171   1.073 -0.4015  0.3822  0.5727
   37MOL   H202 9634   6.308   2.316   1.220  1.5788 -1.6482 -0.9421
   37MOL   H203 9635   6.034   2.283   1.098  0.7844  1.6054 -0.4558
   37MOL   H204 9636   6.211   2.526   1.144  0.5775 -0.1251  1.2596
   37MOL   H205 9637   6.042   2.538   1.080  0.0835 -1.3929 -1.0342
   37MOL   H206 9638   6.110   2.441   1.361  0.5209  1.6291 -1.3328
   37MOL   H207 9639   5.949   2.467   1.282 -0.2432  0.8096 -0.4669
   37MOL   H208 9640   6.356   2.109   1.110  1.3447  3.7057  2.5266
   37MOL   H209 9641   6.185   2.113   1.047  1.2163 -2.1932  0.5846
   37MOL   C210 9642   6.326   2.240   0.943 -0.1838  0.3831  0.8716
   37MOL   C211 9643   6.406   2.148   0.845 -0.0297  0.1272 -0.3384
   37MOL   C212 9644   6.490   2.029   0.901  0.3272 -0.8278  0.0083
   37MOL   C213 9645   6.358   2.000   0.821 -0.5019 -0.3489  0.2652
   37MOL   C214 9646   6.206   2.294   0.856 -0.8761 -0.2477 -0.6378
   37MOL   H215 9647   6.384   2.330   0.968 -1.2330  1.4068 -0.3054
   37MOL   H216 9648   6.453   2.203   0.763  0.9822  0.2119  0.2957
   37MOL   H217 9649   6.579   2.015   0.839 -0.0402 -0.4415 -0.6097
   37MOL   H218 9650   6.509   2.019   1.007  0.5386  0.9307  0.1503
   37MOL   H219 9651   6.359   1.973   0.716  1.5946 -0.4671  0.2990
   37MOL   H220 9652   6.278   1.963   0.884 -1.6743 -0.6446 -1.3710
   37MOL   H221 9653   6.170   2.212   0.793  2.4050  0.0035 -3.0276
   37MOL   H222 9654   6.139   2.345   0.924  0.1554  0.7632 -0.3582
   37MOL   C223 9655   6.234   2.404   0.746 -0.5108  0.3717  0.3317
   37MOL   C224 9656   6.291   2.532   0.808 -0.1247  0.9773  0.0303
   37MOL   C225 9657   6.438   2.537   0.842 -0.4624  0.8080  1.1034
   37MOL   C226 9658   6.390   2.611   0.714 -0.0692 -0.2260 -0.7970
   37MOL   C227 9659   6.103   2.438   0.666 -0.6085  0.1176 -0.3813
   37MOL   H228 9660   6.313   2.372   0.679 -1.7990 -0.7982 -0.6640
   37MOL   H229 9661   6.214   2.576   0.871 -1.0134 -1.2726  0.5714
   37MOL   H230 9662   6.490   2.442   0.832 -2.4435 -0.1730 -0.3074
   37MOL   H231 9663   6.462   2.602   0.925  2.9479  0.0945  0.7449
   37MOL   H232 9664   6.404   2.718   0.727 -2.1868 -0.2423  2.0561
   37MOL   H233 9665   6.405   2.569   0.615  2.2927 -3.6049  0.9033
   37MOL   H234 9666   6.026   2.469   0.736 -0.5124  2.6311 -1.3337
   37MOL   H235 9667   6.120   2.524   0.602 -0.2765  0.9910  0.8507
   37MOL   C236 9668   6.039   2.318   0.590  0.7074  0.3408  0.3556
   37MOL   C237 9669   5.989   2.364   0.457 -0.2491 -0.2792  0.3016
   37MOL   C238 9670   6.080   2.387   0.345  0.0946 -0.1664  0.3311
   37MOL   C239 9671   5.989   2.267   0.340 -0.0758  0.1968 -0.0188
   37MOL   C240 9672   5.928   2.252   0.673 -0.0720  0.1251  0.0814
   37MOL   H241 9673   6.117   2.243   0.576 -0.1682 -0.2545 -1.5666
   37MOL   H242 9674   5.896   2.418   0.467  1.2861  2.4253  0.3147
   37MOL   H243 9675   6.067   2.486   0.302  2.8081  1.2033  2.4970
   37MOL   H244 9676   6.186   2.363   0.356  0.2046  0.4154  0.5434
   37MOL   H245 9677   6.017   2.168   0.374 -0.4812 -0.1079 -0.5764
   37MOL   H246 9678   5.891   2.267   0.293  1.0175  1.5202 -2.3709
   37MOL   H247 9679   5.953   2.254   0.779  1.9475 -0.4571 -0.3575
   37MOL   H248 9680   5.834   2.307   0.671 -0.3276 -0.3571 -1.6329
   37MOL   C249 9681   5.905   2.103   0.629  0.8601  0.5658 -0.1949
   37MOL   C250 9682   5.781   2.046   0.702  0.4048  0.5339  0.3497
   37MOL   C251 9683   5.644   2.051   0.645  0.0646  1.0620 -0.1000
   37MOL   C252 9684   5.716   1.917   0.662  0.4514 -0.6074  0.2076
   37MOL   C253 9685   6.027   2.017   0.664 -0.0938 -0.3269 -0.0012
   37MOL   H254 9686   5.878   2.106   0.524  0.8374  0.7522 -0.1828
   37MOL   H255 9687   5.795   2.041   0.810  0.5071  1.1288  0.3690
   37MOL   H256 9688   5.569   2.086   0.715 -0.9637 -0.2063 -0.5659
   37MOL   H257 9689   5.640   2.078   0.540  3.1482 -0.9450 -0.8018
   37MOL   H258 9690   5.674   1.850   0.737  0.9106 -0.1134  0.9101
   37MOL   H259 9691   5.746   1.867   0.570  1.6874  0.8392 -0.1835
   37MOL   H260 9692   6.021   1.913   0.632 -1.7261 -0.2533  0.0231
   37MOL   H261 9693   6.031   2.000   0.771  1.0111 -2.2350 -0.3206
   37MOL   H262 9694   6.125   2.045   0.624 -0.5636  2.6083  0.7522
   38MOL     C1 9695   1.898   6.413   3.423  0.2951  0.1742  0.0360
   38MOL     C2 9696   1.828   6.525   3.350  0.2779  0.0328 -0.8072
   38MOL     C3 9697   1.897   6.662   3.333  0.8565 -0.4160 -0.6936
   38MOL     C4 9698   1.768   6.643   3.425  0.3535 -0.5332 -0.5265
   38MOL     C5 9699   1.808   6.308   3.493  0.3223 -0.7946  0.1455
   38MOL     H6 9700   1.965   6.358   3.357  0.2942  1.1687 -0.7974
   38MOL     H7 9701   1.764   6.498   3.266  0.7321  0.4062 -1.2812
   38MOL     H8 9702   1.995   6.677   3.379  2.2261 -0.7103 -3.3777
   38MOL     H9 9703   1.886   6.713   3.237  2.6444  2.1889  0.4277
   38MOL    H10 9704   1.664   6.670   3.410  0.3611 -1.1044 -1.6808
   38MOL    H11 9705   1.801   6.642   3.529  1.7561  2.2875 -0.8809
   38MOL    H12 9706   1.739   6.271   3.417  1.0569  0.5524 -1.2053
   38MOL    H13 9707   1.749   6.359   3.570  1.1508 -1.3433  1.1562
   38MOL    H14 9708   1.970   6.456   3.493  0.2185 -0.0371  0.2455
   38MOL    C15 9709   1.882   6.186   3.553 -0.9266 -0.0508 -0.6531
   38MOL    C16 9710   1.965   6.109   3.449  1.0121  0.4475 -0.0623
   38MOL    C17 9711   1.909   6.011   3.346 -0.7325  0.2795  0.1141
   38MOL    C18 9712   1.993   5.958   3.457  0.6760 -0.0712  0.1896
   38MOL    C19 9713   1.966   6.221   3.674  1.0259  0.0981 -0.0620
   38MOL    H20 9714   1.795   6.128   3.583  0.1543 -1.4852 -0.2354
   38MOL    H21 9715   2.044   6.173   3.412 -0.6678  2.0555 -0.9482
   38MOL    H22 9716   1.961   6.011   3.250 -3.5233 -1.5972 -1.4541
   38MOL    H23 9717   1.803   5.988   3.350 -1.0264  0.8961 -3.2035
   38MOL    H24 9718   1.936   5.920   3.541 -1.3100  0.7117 -0.7824
   38MOL    H25 9719   2.093   5.923   3.430  0.3008  0.2389 -1.6588
   38MOL    H26 9720   2.056   6.261   3.628  0.8997  1.6607  1.0358
   38MOL    H27 9721   1.993   6.131   3.730 -1.1205  0.8448  2.2443
   38MOL    C28 9722   1.901   6.303   3.792 -0.4710 -0.4118 -0.1627
   38MOL    C29 9723   2.016   6.344   3.881 -0.5253  0.5120  0.6039
   38MOL    C30 9724   2.116   6.441   3.829 -0.1909 -0.1372  0.6560
   38MOL    C31 9725   2.028   6.476   3.950  0.0426 -0.2272 -0.3230
   38MOL    C32 9726   1.800   6.230   3.882  0.4287  0.2039  0.0879
   38MOL    H33 9727   1.857   6.395   3.755 -1.6508  0.8153  4.0360
   38MOL    H34 9728   2.077   6.265   3.922 -1.7708  0.3781  2.2246
   38MOL    H35 9729   2.096   6.458   3.723 -0.0795 -0.0812  0.6436
   38MOL    H36 9730   2.222   6.429   3.852 -0.1772 -1.4852 -0.0615
   38MOL    H37 9731   2.075   6.478   4.048 -2.1282  0.3832  0.7297
   38MOL    H38 9732   1.964   6.563   3.931 -0.3209 -0.4340 -0.0619
   38MOL    H39 9733   1.859   6.199   3.969 -1.0204 -0.7381  0.7626
   38MOL    H40 9734   1.769   6.137   3.834  2.8473 -1.9212  2.4622
   38MOL    C41 9735   1.676   6.304   3.933 -0.2996 -0.9188  0.3914
   38MOL    C42 9736   1.588   6.339   3.822 -0.6582  0.0366 -0.2820
   38MOL    C43 9737   1.443   6.327   3.845 -0.0844 -0.2506  0.3496
   38MOL    C44 9738   1.518   6.242   3.738  0.7292 -0.4376 -0.2123
   38MOL    C45 9739   1.706   6.425   4.028  0.4587  0.9510 -0.6254
   38MOL    H46 9740   1.622   6.227   3.988 -1.7017 -1.3089 -1.5038
   38MOL    H47 9741   1.628   6.426   3.770 -0.7112 -0.6240 -1.4344
   38MOL    H48 9742   1.406   6.279   3.935  0.6753 -1.2789  0.1167
   38MOL    H49 9743   1.377   6.401   3.799 -1.3412 -1.2887  0.4641
   38MOL    H50 9744   1.514   6.259   3.631 -0.2682 -1.9770 -0.4336
   38MOL    H51 9745   1.525   6.134   3.748  1.1304 -0.3136  0.9255
   38MOL    H52 9746   1.747   6.510   3.973 -0.1684  0.8045 -1.3218
   38MOL    H53 9747   1.785   6.404   4.100  0.3415  3.0502  0.1396
   38MOL    C54 9748   1.582   6.471   4.115 -0.6077  0.2428 -0.1988
   38MOL    C55 9749   1.577   6.379   4.238  0.2582  0.5711 -0.2839
   38MOL    C56 9750   1.499   6.258   4.255 -0.0766  0.3250 -0.2500
   38MOL    C57 9751   1.450   6.379   4.327  0.0565 -0.0112 -0.1090
   38MOL    C58 9752   1.592   6.620   4.155 -0.2089  0.3670 -0.0859
   38MOL    H59 9753   1.487   6.462   4.062 -1.3398 -0.5678  1.2279
   38MOL    H60 9754   1.670   6.375   4.295  0.4548 -0.8842 -0.6879
   38MOL    H61 9755   1.464   6.219   4.159  1.4955  1.7614 -1.4194
   38MOL    H62 9756   1.562   6.183   4.302 -0.9335  0.2135  0.7435
   38MOL    H63 9757   1.461   6.388   4.435  1.7196  0.0439 -0.2640
   38MOL    H64 9758   1.363   6.428   4.284 -0.9240 -1.4980  0.1608
   38MOL    H65 9759   1.559   6.626   4.259  0.1948 -1.2039  0.1498
   38MOL    H66 9760   1.696   6.650   4.166 -0.8572  2.2630  1.1258
   38MOL    C67 9761   1.529   6.726   4.066  0.3097 -0.3232  0.5710
   38MOL    C68 9762   1.615   6.748   3.944 -0.1740  0.1824  0.1412
   38MOL    C69 9763   1.626   6.886   3.890 -0.1657 -0.1052  0.3062
   38MOL    C70 9764   1.746   6.832   3.956  0.4308 -0.4733  0.1355
   38MOL    C71 9765   1.378   6.705   4.043  0.3389  0.4130 -0.3318
   38MOL    H72 9766   1.534   6.817   4.124  2.6309 -0.3892  0.5359
   38MOL    H73 9767   1.606   6.662   3.878 -3.1320 -0.6217  1.5086
   38MOL    H74 9768   1.619   6.894   3.782  1.8827  0.2508  0.1763
   38MOL    H75 9769   1.570   6.956   3.952  0.7604 -0.2733  1.3426
   38MOL    H76 9770   1.772   6.878   4.051 -2.0851  0.3600  0.4640
   38MOL    H77 9771   1.824   6.783   3.899 -1.2127 -0.3282 -2.2879
   38MOL    H78 9772   1.374   6.628   3.966 -0.2569 -0.7976  0.8910
   38MOL    H79 9773   1.343   6.794   3.992  2.5017  1.5061  0.0594
   38MOL    C80 9774   1.290   6.686   4.162  0.2157 -0.0945 -0.0244
   38MOL    C81 9775   1.155   6.633   4.125 -0.0704 -0.3450  0.6623
   38MOL    C82 9776   1.078   6.546   4.217 -0.3400  0.4172 -0.5937
   38MOL    C83 9777   1.137   6.483   4.093 -0.2142 -0.2690  0.2535
   38MOL    C84 9778   1.278   6.819   4.247  0.3755 -0.4985  0.1305
   38MOL    H85 9779   1.329   6.605   4.224 -0.1620 -1.4342 -1.5092
   38MOL    H86 9780   1.092   6.701   4.068  0.4168 -0.3138  0.1537
   38MOL    H87 9781   0.970   6.558   4.226 -0.4099  0.1868 -1.1329
   38MOL    H88 9782   1.136   6.527   4.308  0.3238 -1.6178 -1.4016
   38MOL    H89 9783   1.212   6.406   4.112 -2.3721 -2.0526  1.7138
   38MOL    H90 9784   1.078   6.471   4.002  0.3434 -1.3210  0.0218
   38MOL    H91 9785   1.276   6.908   4.185  1.2954  0.2284  1.1359
   38MOL    H92 9786   1.178   6.809   4.290  1.0986  0.5048  2.0766
   38MOL    C93 9787   1.356   6.827   4.375  0.0131  0.8112  0.2274
   38MOL    C94 9788   1.359   6.967   4.428  0.5924 -0.2984 -0.2593
   38MOL    C95 9789   1.490   7.033   4.471 -0.3088  0.4683 -0.1226
   38MOL    C96 9790   1.405   7.093   4.357 -0.6162 -0.2139 -0.1001
   38MOL    C97 9791   1.310   6.726   4.490  0.2560  0.3787 -0.8011
   38MOL    H98 9792   1.458   6.800   4.351  0.1103 -1.5347  3.0408
   38MOL    H99 9793   1.274   6.978   4.494 -0.8382 -0.6574 -1.9921
   38MOL   H100 9794   1.481   7.088   4.564  0.1837  1.0872 -0.4394
   38MOL   H101 9795   1.586   6.990   4.440 -1.2668 -1.2095 -0.8207
   38MOL   H102 9796   1.335   7.174   4.379 -0.2908  0.0499 -0.0403
   38MOL   H103 9797   1.436   7.092   4.253  1.2532  0.8408  0.4268
   38MOL   H104 9798   1.281   6.625   4.460  2.2620 -0.3589 -0.3477
   38MOL   H105 9799   1.211   6.758   4.521 -0.2645 -2.9076  1.2296
   38MOL   C106 9800   1.403   6.740   4.618 -0.5155 -0.5565  0.1845
   38MOL   C107 9801   1.337   6.653   4.727 -0.3728  0.0717  0.0919
   38MOL   C108 9802   1.362   6.680   4.874  0.1888  0.5062 -0.1827
   38MOL   C109 9803   1.225   6.708   4.816  0.8374 -0.7766  0.2306
   38MOL   C110 9804   1.543   6.687   4.576 -0.0578 -0.2444  0.1074
   38MOL   H111 9805   1.393   6.844   4.651  2.1328 -0.6250  1.2967
   38MOL   H112 9806   1.328   6.550   4.694  3.7174  0.2110 -1.8545
   38MOL   H113 9807   1.365   6.597   4.945  1.5903  2.2045  1.8015
   38MOL   H114 9808   1.411   6.768   4.916 -0.2961  1.0217 -0.6944
   38MOL   H115 9809   1.204   6.815   4.818  0.9694 -0.7339 -0.3672
   38MOL   H116 9810   1.151   6.641   4.859 -1.1388  0.9571 -0.3556
   38MOL   H117 9811   1.536   6.585   4.540 -0.9741 -0.9332  2.1720
   38MOL   H118 9812   1.581   6.743   4.491  0.1567  2.6644  2.0473
   38MOL   C119 9813   1.645   6.693   4.692 -0.0131  0.5064  0.3278
   38MOL   C120 9814   1.775   6.624   4.641 -0.1484  0.3242 -0.2132
   38MOL   C121 9815   1.798   6.476   4.602  0.3388 -0.7395  0.5928
   38MOL   C122 9816   1.847   6.532   4.732  1.0274 -0.6447 -0.8977
   38MOL   C123 9817   1.667   6.840   4.742 -0.2456 -0.6495  0.4657
   38MOL   H124 9818   1.612   6.632   4.776 -0.3097  1.9741  1.2918
   38MOL   H125 9819   1.833   6.693   4.580  1.6214 -1.8382 -1.0568
   38MOL   H126 9820   1.863   6.471   4.515 -0.5722  2.8654 -0.3800
   38MOL   H127 9821   1.715   6.406   4.601 -0.3560  0.0516 -1.8689
   38MOL   H128 9822   1.793   6.486   4.814 -0.4028  5.0458  1.6196
   38MOL   H129 9823   1.952   6.550   4.752  0.5192 -0.5339  1.9246
   38MOL   H130 9824   1.705   6.897   4.658 -1.4902 -0.0245  0.3164
   38MOL   H131 9825   1.572   6.891   4.751  0.1454  0.5565 -1.8588
   38MOL   C132 9826   1.780   6.852   4.853 -0.2705 -0.1424 -0.0337
   38MOL   C133 9827   1.712   6.833   4.982 -0.6372 -0.0683 -0.6413
   38MOL   C134 9828   1.793   6.773   5.099 -0.1420  0.2823 -0.3123
   38MOL   C135 9829   1.679   6.697   5.030  0.3637 -0.3630 -0.7025
   38MOL   C136 9830   1.830   7.000   4.843  0.1395 -0.0263 -0.7775
   38MOL   H137 9831   1.861   6.781   4.834 -0.0525  0.9024 -3.4116
   38MOL   H138 9832   1.628   6.902   4.995 -0.8375 -0.4871  0.3337
   38MOL   H139 9833   1.886   6.720   5.082 -1.1271 -1.6789  0.2478
   38MOL   H140 9834   1.769   6.794   5.203 -1.4324 -1.8224 -0.1437
   38MOL   H141 9835   1.717   6.612   4.974  1.2607 -0.5187  0.1497
   38MOL   H142 9836   1.595   6.687   5.099  2.8082  0.8543  2.5443
   38MOL   H143 9837   1.741   7.059   4.824  2.0675  2.6096 -1.9363
   38MOL   H144 9838   1.875   7.035   4.936 -1.4288 -0.2571  0.0950
   38MOL   C145 9839   1.934   7.035   4.731  0.1070 -0.5183  0.5837
   38MOL   C146 9840   1.916   7.183   4.698  0.2256 -0.4975 -0.3770
   38MOL   C147 9841   1.954   7.256   4.570  0.2328 -0.6725  0.0505
   38MOL   C148 9842   1.811   7.229   4.600  0.4144 -0.0257  0.5571
   38MOL   C149 9843   2.085   6.990   4.775  0.0045 -0.2188  0.5907
   38MOL   H150 9844   1.905   6.979   4.642 -2.5317 -0.0165  1.0719
   38MOL   H151 9845   1.921   7.244   4.788  0.9714 -0.7030 -0.2825
   38MOL   H152 9846   1.984   7.359   4.587 -2.2548  0.0447  0.2623
   38MOL   H153 9847   1.995   7.222   4.475 -0.3233 -0.0581 -0.4165
   38MOL   H154 9848   1.758   7.149   4.549  0.5633 -0.1394  0.5826
   38MOL   H155 9849   1.752   7.319   4.615  0.7426  0.9464 -3.2187
   38MOL   H156 9850   2.086   6.882   4.764 -0.6958 -0.0168 -1.6300
   38MOL   H157 9851   2.145   7.032   4.694 -0.4803 -2.8197 -1.1549
   38MOL   C158 9852   2.139   7.037   4.911  0.4264 -0.0886  0.5212
   38MOL   C159 9853   2.281   7.101   4.895  0.7182  0.1109  0.0375
   38MOL   C160 9854   2.300   7.233   4.825 -0.0439  0.2982  0.2424
   38MOL   C161 9855   2.314   7.220   4.971 -0.7103 -0.0658 -0.0449
   38MOL   C162 9856   2.144   6.920   5.015  0.8789 -0.4101 -0.1180
   38MOL   H163 9857   2.075   7.119   4.944 -0.9440 -0.6487 -0.6880
   38MOL   H164 9858   2.366   7.034   4.882  1.3133  0.7792  0.4078
   38MOL   H165 9859   2.217   7.277   4.768 -0.0252 -0.5602 -0.4644
   38MOL   H166 9860   2.387   7.238   4.760 -1.3382 -0.9602 -1.6692
   38MOL   H167 9861   2.414   7.230   5.011  0.0795 -1.9837 -1.4965
   38MOL   H168 9862   2.235   7.272   5.026  0.1424 -0.7287  1.8545
   38MOL   H169 9863   2.210   6.843   4.974  0.1093 -1.2636  0.2238
   38MOL   H170 9864   2.048   6.869   5.015 -0.0677  1.3476  0.9899
   38MOL   C171 9865   2.179   6.936   5.164 -0.0692  0.1182 -0.0981
   38MOL   C172 9866   2.323   6.973   5.193  0.2122  0.3177  0.0177
   38MOL   C173 9867   2.417   6.906   5.305  0.1775 -0.1010  0.1909
   38MOL   C174 9868   2.428   6.868   5.158  0.3069 -0.4895 -0.1999
   38MOL   C175 9869   2.078   7.025   5.234 -0.2593 -0.2707 -0.2388
   38MOL   H176 9870   2.151   6.835   5.193 -0.6189  0.8892  2.1000
   38MOL   H177 9871   2.353   7.073   5.166 -1.8473  0.7595 -0.7460
   38MOL   H178 9872   2.485   6.979   5.349 -0.2970  0.7452 -0.4667
   38MOL   H179 9873   2.361   6.849   5.379 -1.4112  0.5106 -0.5327
   38MOL   H180 9874   2.406   6.762   5.147 -0.6960 -0.3907  0.8010
   38MOL   H181 9875   2.518   6.905   5.110  0.4662 -1.0623 -0.3502
   38MOL   H182 9876   1.978   7.016   5.194  0.0281 -2.3068 -0.5445
   38MOL   H183 9877   2.106   7.128   5.211 -1.2650 -0.3569 -1.8577
   38MOL   C184 9878   2.072   6.996   5.388 -0.6267  0.5086 -0.5651
   38MOL   C185 9879   2.000   6.868   5.414  0.2036  0.6202  0.0324
   38MOL   C186 9880   2.013   6.785   5.542 -0.2593 -0.0753 -0.3912
   38MOL   C187 9881   2.071   6.741   5.405  0.2954 -0.3357 -1.2044
   38MOL   C188 9882   2.014   7.121   5.466  0.5346  0.6222  0.1353
   38MOL   H189 9883   2.167   6.992   5.442 -0.7073  0.1048 -0.4518
   38MOL   H190 9884   1.894   6.871   5.386 -0.1701  0.5974  1.4226
   38MOL   H191 9885   1.920   6.733   5.564 -0.6728  0.6436 -0.4044
   38MOL   H192 9886   2.060   6.826   5.631 -0.5701  2.8207 -1.4918
   38MOL   H193 9887   2.022   6.650   5.370  0.2814 -1.0341  0.6064
   38MOL   H194 9888   2.180   6.743   5.411  0.3419 -1.5785 -1.4488
   38MOL   H195 9889   1.996   7.087   5.568  3.2247 -1.4868 -0.0431
   38MOL   H196 9890   1.914   7.154   5.437 -0.4332 -2.1541  0.0814
   38MOL   C197 9891   2.099   7.246   5.478 -0.2357 -0.3666  0.0138
   38MOL   C198 9892   2.105   7.342   5.365 -0.3581 -0.4460 -0.1375
   38MOL   C199 9893   2.117   7.491   5.394  0.6841  0.5491 -0.0842
   38MOL   C200 9894   1.990   7.433   5.336 -0.2559 -0.8352 -0.4350
   38MOL   C201 9895   2.236   7.225   5.537  0.0143  0.4427 -0.4668
   38MOL   H202 9896   2.048   7.305   5.554  1.8948 -2.4345  3.1270
   38MOL   H203 9897   2.164   7.304   5.281  0.2309  2.5805 -1.1462
   38MOL   H204 9898   2.100   7.525   5.496  0.0570  0.5651 -0.1923
   38MOL   H205 9899   2.175   7.553   5.326  0.0818  0.5185 -0.6360
   38MOL   H206 9900   1.905   7.434   5.404 -1.5605  0.0199 -2.0290
   38MOL   H207 9901   1.957   7.456   5.235 -2.4465  0.7113  0.5894
   38MOL   H208 9902   2.292   7.157   5.474  0.0596  0.2852 -0.2567
   38MOL   H209 9903   2.296   7.316   5.531  0.8898 -0.1047 -0.1885
   38MOL   C210 9904   2.234   7.180   5.686  0.2458  0.2244 -0.5318
   38MOL   C211 9905   2.377   7.156   5.725  0.8146  0.4836 -0.1769
   38MOL   C212 9906   2.411   7.052   5.829 -0.1473  0.0356 -0.1637
   38MOL   C213 9907   2.443   7.026   5.689 -0.2296  0.6145  0.3367
   38MOL   C214 9908   2.157   7.273   5.784  0.1643 -0.8481 -0.1144
   38MOL   H215 9909   2.191   7.080   5.693 -0.8424  0.6498 -1.0880
   38MOL   H216 9910   2.439   7.245   5.718  1.7224 -0.1172  0.1381
   38MOL   H217 9911   2.498   7.081   5.888 -0.1757  0.0835 -0.1452
   38MOL   H218 9912   2.329   7.000   5.878  0.2604 -0.7219 -0.2674
   38MOL   H219 9913   2.546   7.039   5.656 -0.6925 -0.2530 -1.5178
   38MOL   H220 9914   2.385   6.955   5.631 -0.7786  1.3442 -0.0136
   38MOL   H221 9915   2.210   7.266   5.879 -0.0513 -0.0389  0.0678
   38MOL   H222 9916   2.178   7.369   5.738 -3.4681  1.0159  1.9192
   38MOL   C223 9917   2.005   7.251   5.819 -0.2315  0.5565  0.1019
   38MOL   C224 9918   1.956   7.372   5.898 -0.1325  0.6546  0.3410
   38MOL   C225 9919   1.919   7.496   5.816 -0.1213  0.4593  0.1692
   38MOL   C226 9920   1.809   7.416   5.886  0.1288  0.0072  0.9723
   38MOL   C227 9921   1.981   7.118   5.903  0.1751  0.8532  0.3701
   38MOL   H228 9922   1.940   7.252   5.731 -2.8502 -0.4947  1.9525
   38MOL   H229 9923   2.006   7.381   5.994 -0.8179 -2.0024  0.9852
   38MOL   H230 9924   1.924   7.492   5.707  1.0558  0.4424  0.2202
   38MOL   H231 9925   1.939   7.595   5.854  3.8383  0.0535 -0.6382
   38MOL   H232 9926   1.768   7.452   5.979 -0.2415 -0.1114  0.8567
   38MOL   H233 9927   1.748   7.346   5.829 -2.4529  2.8934  0.0901
   38MOL   H234 9928   2.066   7.050   5.895  0.4745  0.9973  2.0147
   38MOL   H235 9929   1.990   7.154   6.006 -1.5441 -0.4219  0.9946
   38MOL   C236 9930   1.849   7.048   5.897 -0.1424  0.3486  0.3758
   38MOL   C237 9931   1.865   6.903   5.943  0.4684  0.1624 -0.1552
   38MOL   C238 9932   1.909   6.879   6.091 -0.5205 -0.1442 -0.0480
   38MOL   C239 9933   1.775   6.835   6.046 -0.7423 -0.3211 -0.5260
   38MOL   C240 9934   1.786   7.043   5.748 -0.2331 -0.5087 -0.0552
   38MOL   H241 9935   1.777   7.106   5.955 -0.5592  0.3779 -0.1720
   38MOL   H242 9936   1.929   6.838   5.885 -1.3929 -1.7908 -0.0868
   38MOL   H243 9937   1.981   6.799   6.110  0.9024  0.6557 -1.9367
   38MOL   H244 9938   1.916   6.969   6.152 -3.3059  0.5901 -0.7495
   38MOL   H245 9939   1.691   6.874   6.104 -0.1783  0.7452 -0.4331
   38MOL   H246 9940   1.750   6.731   6.023  0.1373 -0.7280  0.3101
   38MOL   H247 9941   1.783   7.141   5.700 -0.4438  0.6282  2.2261
   38MOL   H248 9942   1.850   6.977   5.689 -2.9828 -0.2461 -3.5065
   38MOL   C249 9943   1.651   6.976   5.746 -0.1271 -0.5466 -0.4425
   38MOL   C250 9944   1.607   6.960   5.607  0.0423  1.0305  0.0427
   38MOL   C251 9945   1.611   6.831   5.521  0.4569  0.4523  0.0401
   38MOL   C252 9946   1.476   6.885   5.574  0.0760  0.0705  0.1547
   38MOL   C253 9947   1.553   7.075   5.823 -0.1164  0.0511 -0.2526
   38MOL   H254 9948   1.651   6.878   5.792 -2.5246  0.9038  2.9394
   38MOL   H255 9949   1.623   7.052   5.551 -0.9762  1.3017  0.1932
   38MOL   H256 9950   1.649   6.864   5.424 -1.1269  2.9709  0.2554
   38MOL   H257 9951   1.650   6.736   5.557  0.9158  0.4623 -0.4235
   38MOL   H258 9952   1.407   6.918   5.497  1.2629  2.4967  0.0756
   38MOL   H259 9953   1.432   6.819   5.648 -0.5692  0.3166 -0.0129
   38MOL   H260 9954   1.572   7.078   5.930 -1.3331  0.8907 -0.0463
   38MOL   H261 9955   1.453   7.033   5.807 -0.3348  0.0519  1.0602
   38MOL   H262 9956   1.549   7.173   5.774 -0.8578 -0.1355 -0.5810
   39MOL     C1 9957   3.815   7.546   4.163  0.7205  0.1556 -0.3400
   39MOL     C2 9958   3.838   7.599   4.020 -0.2545 -0.1746  0.9202
   39MOL     C3 9959   3.884   7.504   3.916  0.0499 -0.2579 -0.5155
   39MOL     C4 9960   3.983   7.600   3.980  0.5573  0.3207 -0.5717
   39MOL     C5 9961   3.667   7.516   4.184 -0.2358  0.0240 -0.3211
   39MOL     H6 9962   3.873   7.454   4.169  0.7279  0.1741 -0.1585
   39MOL     H7 9963   3.786   7.688   3.989  0.8598  0.0358 -0.3816
   39MOL     H8 9964   3.882   7.399   3.941 -4.0066  0.1067  0.9216
   39MOL     H9 9965   3.865   7.523   3.810 -1.0459  0.8919 -0.1214
   39MOL    H10 9966   4.010   7.690   3.925 -0.4009  0.2889 -1.1019
   39MOL    H11 9967   4.064   7.568   4.046  0.6949 -1.0973 -1.4064
   39MOL    H12 9968   3.658   7.450   4.270  0.4427 -0.5041 -0.6548
   39MOL    H13 9969   3.639   7.449   4.103  1.5096 -1.2334  0.0997
   39MOL    H14 9970   3.858   7.619   4.231 -0.8201  0.3780  0.4188
   39MOL    C15 9971   3.563   7.631   4.190 -0.2968 -0.1428 -0.7906
   39MOL    C16 9972   3.416   7.576   4.175 -0.1511  0.7236  0.3670
   39MOL    C17 9973   3.298   7.604   4.261 -0.2051 -0.1653 -0.7526
   39MOL    C18 9974   3.357   7.466   4.268 -0.0023  0.0192  0.5235
   39MOL    C19 9975   3.582   7.735   4.306 -0.1024  0.5640  1.1849
   39MOL    H20 9976   3.588   7.687   4.100 -1.3863 -0.7352 -1.4645
   39MOL    H21 9977   3.392   7.557   4.071  1.5791  0.5696 -0.0287
   39MOL    H22 9978   3.211   7.623   4.198 -1.0310  1.0008  0.7418
   39MOL    H23 9979   3.303   7.656   4.356  0.8819 -0.8290 -0.4278
   39MOL    H24 9980   3.424   7.442   4.350 -1.3195 -0.5381  1.4618
   39MOL    H25 9981   3.291   7.385   4.236  0.8501 -0.2956 -0.4482
   39MOL    H26 9982   3.681   7.720   4.350 -0.7412 -0.7279  2.1920
   39MOL    H27 9983   3.517   7.695   4.383 -1.5228  0.0659 -0.2415
   39MOL    C28 9984   3.554   0.042   4.275 -0.4097  0.5807 -0.3241
   39MOL    C29 9985   3.583   0.127   4.399 -0.2615  0.0334  0.9112
   39MOL    C30 9986   3.724   0.149   4.442  0.3532  0.5996 -0.8597
   39MOL    C31 9987   3.640   0.268   4.397 -0.8672 -0.2157 -0.2095
   39MOL    C32 9988   3.410   0.065   4.221 -0.4376 -0.0942 -0.2412
   39MOL    H33 9989   3.618   0.075   4.193 -0.4855  1.0871 -0.1808
   39MOL    H34 9990   3.507   0.113   4.475  0.0471  0.2253  1.2572
   39MOL    H35 9991   3.805   0.103   4.386  0.1694 -0.2296 -0.4625
   39MOL    H36 9992   3.735   0.130   4.548  0.9361  0.0280 -1.0167
   39MOL    H37 9993   3.666   0.316   4.303 -0.8430  0.6470  0.2367
   39MOL    H38 9994   3.612   0.325   4.485  0.3383  2.6992 -1.6783
   39MOL    H39 9995   3.346   0.039   4.305  1.0574  0.4534  1.1031
   39MOL    H40 9996   3.385   7.837   4.139  0.3978 -1.4775  0.6321
   39MOL    C41 9997   3.378   0.216   4.182  0.2204 -0.5920 -0.6123
   39MOL    C42 9998   3.222   0.238   4.166 -0.8630  0.8316  0.0748
   39MOL    C43 9999   3.152   0.351   4.241 -0.2854  0.5003 -0.2084
   39MOL    C4410000   3.127   0.210   4.282 -0.0158  0.1428  0.6835
   39MOL    C4510001   3.453   0.268   4.050  0.5980  0.8747 -0.3459
   39MOL    H4610002   3.395   0.291   4.259  0.7112 -0.6943 -0.6231
   39MOL    H4710003   3.180   0.202   4.072 -0.9686 -1.7622  1.0835
   39MOL    H4810004   3.210   0.420   4.301 -1.9020  0.7557  1.0872
   39MOL    H4910005   3.075   0.401   4.183 -1.0864  0.1260  0.5255
   39MOL    H5010006   3.029   0.168   4.261  0.7189 -2.1935  1.7604
   39MOL    H5110007   3.163   0.173   4.378  3.1281  2.1330  0.3380
   39MOL    H5210008   3.393   0.244   3.962  0.2702  0.5714 -0.0417
   39MOL    H5310009   3.544   0.207   4.046 -0.8539 -1.2846 -1.1910
   39MOL    C5410010   3.506   0.412   4.042  0.7958  0.4104 -0.0381
   39MOL    C5510011   3.617   0.417   3.929  0.2249  0.2867 -0.3146
   39MOL    C5610012   3.755   0.367   3.942  0.1198  0.8422 -0.5882
   39MOL    C5710013   3.730   0.510   3.931  0.2698  0.0210  0.3239
   39MOL    C5810014   3.390   0.510   4.009 -0.4847  0.3873 -0.0870
   39MOL    H5910015   3.557   0.433   4.136 -0.2762 -1.6729  1.0539
   39MOL    H6010016   3.576   0.396   3.831  3.7254 -0.3301 -1.6880
   39MOL    H6110017   3.762   0.304   4.031  2.1499  0.8071 -0.7517
   39MOL    H6210018   3.800   0.324   3.853 -0.6129 -0.5860 -0.2837
   39MOL    H6310019   3.732   0.579   3.847  3.5625  2.0350  1.9318
   39MOL    H6410020   3.744   0.563   4.025 -1.2700 -0.6622  0.9512
   39MOL    H6510021   3.387   0.524   3.901  0.0972  0.1438 -0.1359
   39MOL    H6610022   3.300   0.463   4.049  0.6339 -0.0377  2.0149
   39MOL    C6710023   3.418   0.651   4.066 -0.1662 -0.4862  0.5161
   39MOL    C6810024   3.320   0.739   4.004  0.0839 -0.3804  0.6415
   39MOL    C6910025   3.350   0.877   3.977 -0.4153  0.5817 -0.4424
   39MOL    C7010026   3.344   0.778   3.863 -0.3470 -0.9277  0.0291
   39MOL    C7110027   3.402   0.644   4.225 -0.2777 -0.6645  0.0378
   39MOL    H7210028   3.520   0.677   4.037 -0.2056 -0.3590  0.4917
   39MOL    H7310029   3.220   0.730   4.045 -0.8263  0.8196 -1.2833
   39MOL    H7410030   3.271   0.950   3.993 -0.3395  0.6148 -0.2215
   39MOL    H7510031   3.448   0.905   4.017 -1.0491  1.1638  0.7147
   39MOL    H7610032   3.441   0.750   3.824  0.6430  2.4524 -0.1516
   39MOL    H7710033   3.258   0.759   3.800 -0.8394  2.3914 -0.4216
   39MOL    H7810034   3.425   0.543   4.260 -1.0805 -0.5038  1.0567
   39MOL    H7910035   3.301   0.672   4.253 -0.2940 -1.0550  0.3703
   39MOL    C8010036   3.496   0.741   4.305  0.7428  0.5259 -0.2044
   39MOL    C8110037   3.646   0.719   4.275 -0.2217  0.0385  0.2219
   39MOL    C8210038   3.751   0.821   4.317 -0.2304  0.4779 -0.4953
   39MOL    C8310039   3.716   0.807   4.177 -0.2261 -0.3079 -0.2830
   39MOL    C8410040   3.467   0.714   4.451 -0.7762  0.1948  0.4692
   39MOL    H8510041   3.460   0.841   4.278  3.8781  1.1061 -2.5516
   39MOL    H8610042   3.682   0.617   4.289  1.2924  0.8330  2.5305
   39MOL    H8710043   3.853   0.791   4.341 -0.2341  1.0788  0.2809
   39MOL    H8810044   3.703   0.901   4.373  0.3672 -0.7203  1.8254
   39MOL    H8910045   3.665   0.890   4.127  0.1972 -0.6918 -1.3813
   39MOL    H9010046   3.788   0.751   4.118 -0.1951  1.5143 -2.0400
   39MOL    H9110047   3.360   0.694   4.462 -0.3349 -2.6308  0.0053
   39MOL    H9210048   3.514   0.617   4.470 -2.9314 -1.2896 -1.3897
   39MOL    C9310049   3.513   0.805   4.565  0.0445  0.9383  0.3420
   39MOL    C9410050   3.430   0.928   4.555 -0.0920 -0.7952 -0.0642
   39MOL    C9510051   3.455   1.053   4.637  0.5099 -0.8489 -0.6438
   39MOL    C9610052   3.477   1.057   4.480 -0.2302  0.2045 -0.4020
   39MOL    C9710053   3.508   0.743   4.706  0.1602  0.0131  0.8117
   39MOL    H9810054   3.618   0.831   4.550  0.7938 -0.3201  3.0736
   39MOL    H9910055   3.324   0.907   4.562  0.5276 -3.3316  2.2384
   39MOL   H10010056   3.368   1.106   4.676  0.4932 -0.8700 -0.6526
   39MOL   H10110057   3.546   1.044   4.696 -0.9714 -0.7388  1.7435
   39MOL   H10210058   3.401   1.111   4.424 -0.6944  0.9294  0.9231
   39MOL   H10310059   3.579   1.061   4.443  0.5021 -2.7814  1.0872
   39MOL   H10410060   3.402   0.729   4.726  0.2955 -0.2872  1.3216
   39MOL   H10510061   3.548   0.816   4.776  0.7098 -1.0552  1.6197
   39MOL   C10610062   3.575   0.608   4.736  0.6303 -0.0074 -0.0750
   39MOL   C10710063   3.725   0.641   4.746  0.1125  0.0937 -0.2406
   39MOL   C10810064   3.822   0.521   4.745  0.6362  0.2479 -0.0791
   39MOL   C10910065   3.816   0.614   4.621  0.3746 -0.0800  0.2202
   39MOL   C11010066   3.517   0.546   4.870 -0.2162 -0.1623  0.3407
   39MOL   H11110067   3.552   0.535   4.659 -2.4752 -0.3519  1.0938
   39MOL   H11210068   3.760   0.724   4.807 -1.8867  1.5562 -1.0134
   39MOL   H11310069   3.904   0.528   4.815  0.1239  0.4757  0.5060
   39MOL   H11410070   3.790   0.418   4.729  1.9118 -0.2022  0.1970
   39MOL   H11510071   3.763   0.589   4.529  0.8263 -1.9631  0.4561
   39MOL   H11610072   3.899   0.684   4.608 -0.2757  0.7782  0.6769
   39MOL   H11710073   3.571   0.453   4.889 -0.1004 -0.3856 -0.9981
   39MOL   H11810074   3.556   0.610   4.948 -0.2684  0.8700 -0.4664
   39MOL   C11910075   3.363   0.504   4.863 -0.0680 -0.8235  0.1489
   39MOL   C12010076   3.347   0.377   4.780 -0.0769  0.5471  0.0504
   39MOL   C12110077   3.338   0.373   4.624 -0.0253 -0.2391 -0.0635
   39MOL   C12210078   3.224   0.324   4.710 -0.0104  0.0265  0.1133
   39MOL   C12310079   3.313   0.485   5.010  0.4980 -1.0920  0.3285
   39MOL   H12410080   3.296   0.578   4.819  1.0045  0.4666  0.6463
   39MOL   H12510081   3.413   0.300   4.821 -1.7038 -0.5367  0.6627
   39MOL   H12610082   3.384   0.300   4.558  0.5639  0.6536 -0.6408
   39MOL   H12710083   3.313   0.459   4.563  2.8258 -0.3528 -1.4458
   39MOL   H12810084   3.146   0.400   4.703  0.5544  0.7958  1.7560
   39MOL   H12910085   3.194   0.219   4.707  1.8693 -0.4882 -1.3027
   39MOL   H13010086   3.351   0.391   5.051  0.6189 -1.0194  0.3810
   39MOL   H13110087   3.357   0.562   5.073  0.4764 -1.7482  1.1571
   39MOL   C13210088   3.161   0.487   5.031  0.8324 -0.3882  0.6337
   39MOL   C13310089   3.100   0.631   5.026 -0.3793  0.4616  0.0523
   39MOL   C13410090   2.963   0.654   4.958  0.1995 -0.9858 -0.5617
   39MOL   C13510091   3.089   0.701   4.893 -0.4314  0.4617  0.6407
   39MOL   C13610092   3.115   0.402   5.159 -1.0177  0.3937  0.4741
   39MOL   H13710093   3.112   0.433   4.950 -0.7967  1.2266  0.5099
   39MOL   H13810094   3.110   0.684   5.120 -1.6342 -1.0900  1.0911
   39MOL   H13910095   2.917   0.562   4.921  1.3277 -0.9898 -2.0011
   39MOL   H14010096   2.898   0.729   5.002  0.9346 -0.3655 -0.5253
   39MOL   H14110097   3.112   0.648   4.801  0.3879  0.2949  0.9372
   39MOL   H14210098   3.084   0.810   4.886  0.3497  0.4665  0.0426
   39MOL   H14310099   3.173   0.418   5.250 -2.7247  0.7782  1.5021
   39MOL   H14410100   3.017   0.444   5.180 -0.6260 -0.1013  3.5254
   39MOL   C14510101   3.108   0.251   5.121  0.5773 -0.5657 -0.5514
   39MOL   C14610102   3.136   0.160   5.237  0.2630  0.5936  0.5386
   39MOL   C14710103   3.211   0.032   5.229  0.0109 -0.1625 -0.4260
   39MOL   C14810104   3.288   0.153   5.278 -0.0503 -0.2225  0.0359
   39MOL   C14910105   2.973   0.230   5.057 -0.2310  0.0432 -0.3058
   39MOL   H15010106   3.184   0.225   5.047  0.2850  0.1082 -1.0965
   39MOL   H15110107   3.067   0.172   5.321 -0.3896  2.0151 -0.1883
   39MOL   H15210108   3.178   7.805   5.308 -3.4393  0.0490 -1.5781
   39MOL   H15310109   3.243   7.831   5.133  0.7092  1.0067 -0.6919
   39MOL   H15410110   3.360   0.200   5.211  1.0092  1.1181  2.0533
   39MOL   H15510111   3.302   0.161   5.385 -0.8385  0.6370  0.0750
   39MOL   H15610112   2.886   0.262   5.114  1.3154  1.3312  1.3790
   39MOL   H15710113   2.970   0.281   4.961  0.6409  0.9517  0.1415
   39MOL   C15810114   2.946   0.081   5.028 -1.0118  0.2955 -0.3357
   39MOL   C15910115   2.857   0.069   4.902  0.6827 -0.1035  0.1468
   39MOL   C16010116   2.894   0.120   4.766  0.1520  0.6489  0.0044
   39MOL   C16110117   2.908   7.814   4.795  0.8189 -1.1300  0.9335
   39MOL   C16210118   2.856   0.033   5.147 -0.1180 -0.2986 -0.0121
   39MOL   H16310119   3.025   0.009   5.006 -0.1176  1.7828 -2.1699
   39MOL   H16410120   2.749   0.066   4.915  0.5429  1.4830 -0.5217
   39MOL   H16510121   2.983   0.183   4.757 -0.1358  0.7128 -2.7734
   39MOL   H16610122   2.812   0.161   4.709  0.4154  2.6959  1.0280
   39MOL   H16710123   2.829   7.753   4.751  0.5753  0.6932 -1.2878
   39MOL   H16810124   3.012   7.785   4.802  1.5154  1.5375  2.1473
   39MOL   H16910125   2.761   0.086   5.151  0.0463 -0.0273  0.3591
   39MOL   H17010126   2.904   0.051   5.243  0.7776  2.9958 -1.0155
   39MOL   C17110127   2.822   7.719   5.133 -0.2411  0.8031  0.1876
   39MOL   C17210128   2.951   7.628   5.145  0.1558 -0.4874 -0.2069
   39MOL   C17310129   2.945   7.481   5.128  0.4643 -0.6078 -0.1354
   39MOL   C17410130   3.012   7.555   5.024  0.3740 -0.2818 -0.0892
   39MOL   C17510131   2.701   7.692   5.236  0.3912 -0.2867  0.0440
   39MOL   H17610132   2.771   7.706   5.038 -1.6691  2.2183  0.7481
   39MOL   H17710133   3.022   7.664   5.219  0.7280 -0.5656 -0.7176
   39MOL   H17810134   3.004   7.428   5.203  0.9046 -1.4418 -1.0588
   39MOL   H17910135   2.853   7.432   5.095  0.6843 -0.3869 -1.0890
   39MOL   H18010136   2.958   7.562   4.930  2.6820  0.0036 -1.4433
   39MOL   H18110137   3.119   7.554   5.003  0.3436  0.1542 -0.2721
   39MOL   H18210138   2.649   7.784   5.261 -0.3042 -0.3336 -1.1984
   39MOL   H18310139   2.755   7.665   5.327 -0.6406 -0.2917  0.6633
   39MOL   C18410140   2.597   7.583   5.197  0.1252  0.0904 -1.5557
   39MOL   C18510141   2.502   7.644   5.097 -0.7856 -0.1823 -0.4542
   39MOL   C18610142   2.428   7.545   5.008  0.2615  0.1577 -0.4500
   39MOL   C18710143   2.521   7.651   4.951 -0.3551  0.4404 -0.4845
   39MOL   C18810144   2.512   7.527   5.322 -0.5022  0.0340 -0.4581
   39MOL   H18910145   2.647   7.490   5.168  0.0519  0.3316 -2.4852
   39MOL   H19010146   2.465   7.740   5.132 -1.6721 -0.8891  0.5882
   39MOL   H19110147   2.321   7.559   4.991 -0.4705 -0.3618  3.3643
   39MOL   H19210148   2.469   7.445   4.996  0.4037  0.1097  0.4390
   39MOL   H19310149   2.474   7.735   4.899 -1.7249  0.7500  1.1811
   39MOL   H19410150   2.616   7.615   4.914  0.0455  1.0737 -0.0751
   39MOL   H19510151   2.426   7.464   5.299 -1.4706  1.7344 -1.5424
   39MOL   H19610152   2.462   7.615   5.361  1.0036  1.4596 -1.6805
   39MOL   C19710153   2.597   7.454   5.437 -0.3621  0.6446  0.3357
   39MOL   C19810154   2.604   7.303   5.416  0.7088  0.2177  0.8313
   39MOL   C19910155   2.731   7.218   5.420  0.3779 -0.0870 -0.6012
   39MOL   C20010156   2.655   7.237   5.289 -0.5848  0.1800 -0.9022
   39MOL   C20110157   2.565   7.495   5.584  0.1533 -0.4661  0.0150
   39MOL   H20210158   2.702   7.482   5.426 -0.3319  0.2900 -0.3360
   39MOL   H20310159   2.523   7.250   5.465 -0.1585 -1.7649 -2.5700
   39MOL   H20410160   2.830   7.265   5.418  0.6432 -0.6681 -1.6319
   39MOL   H20510161   2.732   7.122   5.471 -0.5061  0.9513  1.3946
   39MOL   H20610162   2.713   7.292   5.216 -1.2727 -0.0591 -1.6359
   39MOL   H20710163   2.596   7.155   5.249  0.1747 -1.5998  1.5053
   39MOL   H20810164   2.459   7.520   5.588 -0.5434 -2.6418 -3.0356
   39MOL   H20910165   2.568   7.413   5.655  1.0025 -0.9108 -0.5153
   39MOL   C21010166   2.636   7.629   5.631  0.5800  0.2944  0.4774
   39MOL   C21110167   2.552   7.711   5.716  1.1148 -0.1540  0.0749
   39MOL   C21210168   2.556   0.020   5.705  0.4228 -0.0679  0.4573
   39MOL   C21310169   2.431   7.795   5.665 -0.1295  0.3761 -0.2165
   39MOL   C21410170   2.777   7.593   5.686 -0.1809  0.2100 -0.8237
   39MOL   H21510171   2.659   7.684   5.540  2.1006  2.1529  1.9371
   39MOL   H21610172   2.528   7.675   5.816 -1.2751 -2.0866 -1.1438
   39MOL   H21710173   2.572   0.077   5.796 -0.2340  2.8050 -1.1615
   39MOL   H21810174   2.612   0.067   5.625 -1.2471  3.2584  1.1244
   39MOL   H21910175   2.337   7.807   5.718 -0.2813 -1.3552 -0.0789
   39MOL   H22010176   2.411   7.812   5.560 -1.8637  0.5832  0.1336
   39MOL   H22110177   2.756   7.512   5.755 -2.1355  2.5242  1.3788
   39MOL   H22210178   2.839   7.545   5.611 -0.3440 -3.7005  1.4262
   39MOL   C22310179   2.874   7.702   5.747  0.4970  0.1184 -0.1486
   39MOL   C22410180   2.982   7.738   5.651  0.4652  0.6505 -0.0486
   39MOL   C22510181   2.947   7.826   5.529 -0.0488  0.6380 -1.0524
   39MOL   C22610182   3.030   0.046   5.634  0.6791 -0.3137 -0.2255
   39MOL   C22710183   2.935   7.645   5.879 -0.2278  0.5177 -0.7805
   39MOL   H22810184   2.817   7.793   5.766  0.1551  0.1337 -1.2395
   39MOL   H22910185   3.064   7.667   5.642 -0.8872 -0.5201 -4.7372
   39MOL   H23010186   2.853   0.038   5.511 -0.7618  0.2554  1.3633
   39MOL   H23110187   2.987   7.786   5.436 -0.4512 -0.9234 -0.5801
   39MOL   H23210188   3.121   0.086   5.589 -0.7558  3.1052 -0.2440
   39MOL   H23310189   2.979   0.109   5.706 -1.5152 -0.2956 -1.7445
   39MOL   H23410190   2.855   7.601   5.938  0.5022  0.2242 -0.0173
   39MOL   H23510191   2.996   7.559   5.851  0.6678  0.3690  1.5200
   39MOL   C23610192   3.019   7.746   5.964  0.7526  0.1426 -0.1093
   39MOL   C23710193   3.116   7.657   6.039  0.1461 -0.0997  0.0486
   39MOL   C23810194   3.241   7.598   5.974 -0.2076 -0.6676  0.5605
   39MOL   C23910195   3.256   7.700   6.082 -0.0318 -0.5789 -0.2847
   39MOL   C24010196   2.927   7.823   6.060 -0.2887  0.0119  0.8240
   39MOL   H24110197   3.073   7.813   5.898  0.2450  1.7555  1.0894
   39MOL   H24210198   3.059   7.596   6.108 -1.5892  1.4268  0.0212
   39MOL   H24310199   3.284   7.501   6.000 -1.0756 -0.7393  1.7242
   39MOL   H24410200   3.257   7.622   5.869  2.0313  0.4693  1.1250
   39MOL   H24510201   3.293   7.797   6.050  0.2533 -0.8083 -0.6577
   39MOL   H24610202   3.295   7.662   6.177 -1.3484 -3.1675 -0.7179
   39MOL   H24710203   2.839   0.013   6.002 -0.6667 -1.6877  0.4984
   39MOL   H24810204   2.888   7.769   6.146 -0.2408 -1.7297 -0.2195
   39MOL   C24910205   2.984   0.115   6.112 -0.7732 -0.3161 -0.0497
   39MOL   C25010206   2.891   0.175   6.216  0.1748 -0.2609 -0.7089
   39MOL   C25110207   2.863   0.112   6.343  1.2240 -0.4035  0.1392
   39MOL   C25210208   2.937   0.237   6.348 -0.2478 -0.0643 -0.0773
   39MOL   C25310209   3.004   0.216   5.996  0.6653 -0.7723  0.2850
   39MOL   H25410210   3.087   0.114   6.147 -0.8423 -0.0103  0.1633
   39MOL   H25510211   2.794   0.200   6.173  1.1060 -0.9820 -3.3021
   39MOL   H25610212   2.761   0.111   6.379  1.1092 -0.1170 -0.1831
   39MOL   H25710213   2.923   0.026   6.372  0.6294 -0.4734  1.2033
   39MOL   H25810214   2.878   0.314   6.396  0.5516 -0.6197  1.8510
   39MOL   H25910215   3.043   0.225   6.373 -0.3106 -1.5311 -0.4175
   39MOL   H26010216   3.020   0.315   6.038  1.7179 -0.8689  0.1273
   39MOL   H26110217   2.914   0.233   5.937  1.3401  4.6426  0.5698
   39MOL   H26210218   3.084   0.196   5.925 -0.4136 -0.0238 -1.1799
   40MOL     C110219   1.362   2.858   2.267 -0.1233 -0.5650 -0.0401
   40MOL     C210220   1.303   2.893   2.406  0.2412 -0.1670 -0.0543
   40MOL     C310221   1.202   2.999   2.420  1.1042 -0.0064  0.6130
   40MOL     C410222   1.340   3.019   2.475 -0.0742  0.5173 -0.4869
   40MOL     C510223   1.503   2.808   2.288  0.0339 -0.6408  0.1892
   40MOL     H610224   1.300   2.779   2.225 -0.0162 -0.8719  0.3717
   40MOL     H710225   1.296   2.813   2.480  0.2426  1.0966  1.3492
   40MOL     H810226   1.176   3.054   2.330 -0.9564 -0.3218  0.9994
   40MOL     H910227   1.126   2.982   2.496  0.6403 -3.7127 -0.6034
   40MOL    H1010228   1.345   3.026   2.583 -0.8610  0.0788 -0.4226
   40MOL    H1110229   1.382   3.108   2.428  1.2285 -0.5205 -1.3112
   40MOL    H1210230   1.503   2.727   2.361  1.6595  0.3908  1.3514
   40MOL    H1310231   1.565   2.884   2.336 -2.3470  0.6239  1.3190
   40MOL    H1410232   1.352   2.946   2.204 -0.7065  1.1879  2.4294
   40MOL    C1510233   1.553   2.747   2.159 -0.1809  0.2097  0.3868
   40MOL    C1610234   1.603   2.852   2.065 -0.9010  0.7572  0.2543
   40MOL    C1710235   1.510   2.944   1.986  0.2595 -0.3627  0.3612
   40MOL    C1810236   1.595   2.839   1.914 -0.1935  0.3364 -0.4495
   40MOL    C1910237   1.667   2.641   2.181 -0.2219  0.4569 -0.6268
   40MOL    H2010238   1.466   2.702   2.112  0.4237 -1.1041  0.4856
   40MOL    H2110239   1.693   2.902   2.098  0.2142  0.1830 -1.8296
   40MOL    H2210240   1.538   3.050   1.985 -0.3309 -0.2006  1.0327
   40MOL    H2310241   1.403   2.925   1.982  0.1345  0.5295 -0.9478
   40MOL    H2410242   1.549   2.754   1.865  0.5670  1.1112 -2.5541
   40MOL    H2510243   1.694   2.854   1.872  1.1868  1.4547  3.0490
   40MOL    H2610244   1.732   2.672   2.263 -0.5143  0.5466 -0.4301
   40MOL    H2710245   1.729   2.633   2.091  0.2921 -0.7194 -0.1774
   40MOL    C2810246   1.622   2.501   2.230  0.3745 -0.5340 -0.2369
   40MOL    C2910247   1.746   2.421   2.262 -0.5397 -0.5734  0.0735
   40MOL    C3010248   1.810   2.432   2.394 -0.7271 -0.2621  0.4805
   40MOL    C3110249   1.734   2.303   2.352  0.2218  0.3255  0.3790
   40MOL    C3210250   1.528   2.424   2.121 -0.1279 -0.5189  0.1338
   40MOL    H3310251   1.558   2.488   2.318  0.1998 -2.1761 -0.5937
   40MOL    H3410252   1.816   2.415   2.179 -1.2362 -2.8214 -0.3845
   40MOL    H3510253   1.771   2.499   2.471  0.7626  0.7215  0.3932
   40MOL    H3610254   1.917   2.417   2.406 -0.9602 -2.6331 -0.2413
   40MOL    H3710255   1.634   2.282   2.387 -0.5863 -0.1306 -2.0730
   40MOL    H3810256   1.797   2.221   2.317 -0.3861 -0.0455  0.1599
   40MOL    H3910257   1.598   2.346   2.088 -0.0546 -0.5062  0.2599
   40MOL    H4010258   1.502   2.477   2.029  2.4180 -0.5425 -0.6498
   40MOL    C4110259   1.400   2.356   2.180 -0.2548 -0.1778  0.5269
   40MOL    C4210260   1.341   2.266   2.074  0.4735  0.0362  0.0606
   40MOL    C4310261   1.312   2.116   2.094  0.3894  0.1145 -0.4339
   40MOL    C4410262   1.421   2.160   2.000 -0.2154 -0.0065 -0.3791
   40MOL    C4510263   1.295   2.462   2.232  0.2303  0.2512  0.1827
   40MOL    H4610264   1.425   2.291   2.264  1.1256  1.2657  1.2526
   40MOL    H4710265   1.267   2.318   2.014 -0.5593 -1.1935  0.2582
   40MOL    H4810266   1.344   2.077   2.190 -0.9311 -0.0585 -0.0502
   40MOL    H4910267   1.221   2.078   2.047  1.0986 -0.8994 -0.9946
   40MOL    H5010268   1.409   2.155   1.892  1.2778 -1.6557 -0.4917
   40MOL    H5110269   1.517   2.135   2.044 -0.1425  0.4770 -0.2618
   40MOL    H5210270   1.263   2.520   2.146  0.0909 -0.4534 -0.2441
   40MOL    H5310271   1.344   2.543   2.286 -1.1660  0.6860  0.8282
   40MOL    C5410272   1.180   2.414   2.325  0.0617 -0.5254 -0.3300
   40MOL    C5510273   1.234   2.362   2.461  0.4893  0.0752 -0.8534
   40MOL    C5610274   1.275   2.218   2.468  0.8760 -0.2641 -0.0617
   40MOL    C5710275   1.142   2.261   2.527 -0.2113  0.1527  0.1471
   40MOL    C5810276   1.078   2.526   2.350  0.8829  0.5565  0.0166
   40MOL    H5910277   1.119   2.341   2.272  0.7379 -0.7223 -0.8375
   40MOL    H6010278   1.298   2.432   2.513  0.5773  1.5347 -2.8781
   40MOL    H6110279   1.265   2.156   2.379  0.1481  1.3712 -1.1390
   40MOL    H6210280   1.346   2.180   2.541 -1.1985 -1.0833  1.5824
   40MOL    H6310281   1.144   2.276   2.634  1.0168  1.2664 -0.0227
   40MOL    H6410282   1.054   2.214   2.483  0.6998 -2.6611  1.2107
   40MOL    H6510283   1.014   2.493   2.431  0.4428  0.0204 -0.5399
   40MOL    H6610284   1.118   2.617   2.394 -2.3060  1.4558  1.1991
   40MOL    C6710285   0.988   2.573   2.242 -0.0235  1.0223  0.3883
   40MOL    C6810286   0.917   2.462   2.167 -0.2411 -0.1049 -0.2763
   40MOL    C6910287   0.860   2.483   2.030  0.1457 -0.2211  0.3270
   40MOL    C7010288   0.984   2.402   2.046  0.1235  0.0349 -0.2502
   40MOL    C7110289   0.887   2.672   2.304  0.0299  0.3624 -0.5719
   40MOL    H7210290   1.060   2.624   2.178  1.2272  0.6836  1.5072
   40MOL    H7310291   0.862   2.391   2.230 -1.7305  1.9403  0.7962
   40MOL    H7410292   0.759   2.443   2.022  0.3166 -0.4381 -0.7774
   40MOL    H7510293   0.874   2.572   1.970  0.0449  0.0324  0.6802
   40MOL    H7610294   1.077   2.451   2.019 -0.5416  2.5519  1.8475
   40MOL    H7710295   0.973   2.294   2.034 -2.3612  0.5747 -3.3548
   40MOL    H7810296   0.923   2.714   2.398  1.3205  0.2161 -0.9956
   40MOL    H7910297   0.794   2.618   2.321 -0.9693  1.6042 -1.9603
   40MOL    C8010298   0.838   2.793   2.222  0.3176 -0.5438  0.7622
   40MOL    C8110299   0.961   2.863   2.166  0.1389 -0.5930 -0.1627
   40MOL    C8210300   0.963   2.972   2.064  0.4083 -0.0870 -0.0256
   40MOL    C8310301   1.002   2.829   2.025  0.2085 -0.4725 -0.6835
   40MOL    C8410302   0.754   2.898   2.297 -0.1066 -0.0698 -0.7548
   40MOL    H8510303   0.786   2.754   2.135  1.0220 -0.7573  0.4270
   40MOL    H8610304   1.042   2.866   2.239 -0.0763  0.9857  0.0429
   40MOL    H8710305   1.040   3.047   2.046  0.7238 -0.5626 -0.6802
   40MOL    H8810306   0.860   3.003   2.046 -0.1927 -1.9621  0.0784
   40MOL    H8910307   0.924   2.780   1.966 -0.8533 -0.9957  1.1115
   40MOL    H9010308   1.104   2.819   1.990  1.1994 -1.4315  2.3108
   40MOL    H9110309   0.812   2.977   2.345 -0.5201 -0.2863  0.0990
   40MOL    H9210310   0.715   2.954   2.212  1.0839  0.0301 -1.2399
   40MOL    C9310311   0.638   2.850   2.383  0.5065  0.4911  0.1430
   40MOL    C9410312   0.662   2.889   2.526  0.5425  0.1249  0.2613
   40MOL    C9510313   0.607   2.812   2.642  0.1016 -1.1072  0.0485
   40MOL    C9610314   0.760   2.819   2.609 -0.1937 -0.5014  1.2267
   40MOL    C9710315   0.493   2.904   2.338  0.3284 -0.0580  1.1373
   40MOL    H9810316   0.647   2.742   2.370 -1.6145  0.1556  1.1969
   40MOL    H9910317   0.641   2.994   2.544  1.3540  0.0472  1.7341
   40MOL   H10010318   0.579   2.873   2.728 -0.2846  1.2233 -1.6735
   40MOL   H10110319   0.546   2.724   2.622  0.7445 -2.0712  2.1589
   40MOL   H10210320   0.817   2.878   2.680  0.4349  0.4859 -0.0931
   40MOL   H10310321   0.811   2.729   2.574  0.9482  0.5738  0.0823
   40MOL   H10410322   0.510   3.009   2.314 -1.1241  0.3537  1.8306
   40MOL   H10510323   0.411   2.897   2.410 -1.3608  0.0048 -0.7270
   40MOL   C10610324   0.451   2.824   2.207  0.7803 -0.5210 -0.0574
   40MOL   C10710325   0.414   2.685   2.256 -1.0312 -0.3757  0.1426
   40MOL   C10810326   0.381   2.572   2.166 -0.3385  0.7271 -0.7898
   40MOL   C10910327   0.509   2.567   2.248 -0.9716 -0.8272  0.4131
   40MOL   C11010328   0.330   2.887   2.140 -0.6980 -0.2789  0.5859
   40MOL   H11110329   0.533   2.812   2.137 -0.6969 -1.4756 -1.6724
   40MOL   H11210330   0.353   2.695   2.345  0.3151  0.0933  1.0300
   40MOL   H11310331   0.303   2.503   2.197  0.9142 -0.1360  0.5126
   40MOL   H11410332   0.412   2.568   2.062  1.1468  0.5395 -0.3545
   40MOL   H11510333   0.600   2.575   2.189 -2.1912 -2.5418 -1.7595
   40MOL   H11610334   0.516   2.513   2.342  2.6078  2.0999  1.9665
   40MOL   H11710335   0.281   2.811   2.080  1.0828  1.2812 -3.0019
   40MOL   H11810336   0.277   2.933   2.223 -2.5948 -2.8175  0.8544
   40MOL   C11910337   0.374   2.998   2.039  0.0688 -0.0371 -0.7963
   40MOL   C12010338   0.433   2.929   1.911  0.0754 -0.1006 -0.0782
   40MOL   C12110339   0.577   2.893   1.883 -0.4231  0.2951 -0.0466
   40MOL   C12210340   0.514   3.005   1.808 -0.8568  0.6947 -0.1926
   40MOL   C12310341   0.253   3.085   1.998 -0.6497 -0.5244 -1.0647
   40MOL   H12410342   0.450   3.062   2.085 -3.3743  2.1889  2.0822
   40MOL   H12510343   0.363   2.857   1.869  0.9534  0.0469 -1.8302
   40MOL   H12610344   0.608   2.809   1.820 -0.9166 -0.7810  1.1283
   40MOL   H12710345   0.650   2.924   1.957  2.3167  0.4315 -2.7180
   40MOL   H12810346   0.544   3.106   1.834  2.5518 -0.1862 -0.5160
   40MOL   H12910347   0.503   2.983   1.702 -0.3667  0.1301 -0.1280
   40MOL   H13010348   0.292   3.140   1.912 -0.3697  1.4015  0.2738
   40MOL   H13110349   0.177   3.020   1.955  0.3961 -1.4499 -1.5515
   40MOL   C13210350   0.188   3.180   2.100  0.2652  0.4241 -0.8883
   40MOL   C13310351   0.040   3.171   2.093  0.0556 -0.8844  0.1639
   40MOL   C13410352   7.797   3.211   2.211 -0.1545  0.1767 -0.3244
   40MOL   C13510353   7.805   3.065   2.166 -0.2827  0.1745  0.3267
   40MOL   C13610354   0.241   3.325   2.079  0.5814 -0.0789 -0.3793
   40MOL   H13710355   0.219   3.145   2.199  0.2672 -2.2450 -1.7973
   40MOL   H13810356   7.832   3.203   2.000  2.4568 -0.4140 -0.9482
   40MOL   H13910357   0.016   3.248   2.295  1.3620 -2.0355 -0.3576
   40MOL   H14010358   7.701   3.259   2.189 -1.0102 -1.9960 -1.5034
   40MOL   H14110359   0.028   2.991   2.215 -2.0817 -1.6574 -0.0848
   40MOL   H14210360   7.715   3.032   2.115  0.3200 -0.9333 -0.0349
   40MOL   H14310361   0.226   3.369   1.981  0.2267 -0.2032 -0.3809
   40MOL   H14410362   0.191   3.389   2.152  0.9437 -2.2730  1.8983
   40MOL   C14510363   0.388   3.353   2.104 -0.2687  0.1955  0.0158
   40MOL   C14610364   0.425   3.499   2.076 -0.5241 -0.5448  0.4363
   40MOL   C14710365   0.414   3.558   1.933 -0.1947 -0.7034  0.2467
   40MOL   C14810366   0.333   3.613   2.043 -0.9082 -0.2153  0.5090
   40MOL   C14910367   0.421   3.326   2.253 -0.6418 -0.2201 -0.6013
   40MOL   H15010368   0.442   3.294   2.031  0.5768 -0.6275  1.2822
   40MOL   H15110369   0.523   3.533   2.110 -0.5293  0.1024 -0.1890
   40MOL   H15210370   0.509   3.600   1.900 -0.5612 -0.0329  0.0353
   40MOL   H15310371   0.358   3.494   1.865 -0.7354 -1.1834  1.1229
   40MOL   H15410372   0.229   3.584   2.027 -0.9178  1.0311 -2.0065
   40MOL   H15510373   0.363   3.711   2.079 -1.1190 -0.1441  0.4885
   40MOL   H15610374   0.355   3.384   2.317  0.2883  0.2503 -0.0543
   40MOL   H15710375   0.393   3.224   2.280  0.3061 -0.4562 -0.4674
   40MOL   C15810376   0.566   3.343   2.299 -0.6184 -0.1117 -0.4664
   40MOL   C15910377   0.662   3.267   2.205  0.6163  0.6466  0.0549
   40MOL   C16010378   0.749   3.339   2.100  0.3512  0.7396 -0.5678
   40MOL   C16110379   0.810   3.282   2.222  0.4098  0.2335 -0.6133
   40MOL   C16210380   0.593   3.282   2.439 -0.0205  0.5433 -0.2463
   40MOL   H16310381   0.597   3.448   2.303 -0.5727 -0.1120 -0.7778
   40MOL   H16410382   0.626   3.168   2.181  1.3997  0.2244  0.6225
   40MOL   H16510383   0.747   3.448   2.101  1.1733  0.7729 -1.9113
   40MOL   H16610384   0.780   3.283   2.012  2.7410  0.4550  0.4058
   40MOL   H16710385   0.874   3.195   2.206 -1.3713 -1.0254 -1.0143
   40MOL   H16810386   0.843   3.352   2.299  0.0720 -0.2206 -0.0479
   40MOL   H16910387   0.698   3.252   2.450 -0.6295 -1.2445  0.9331
   40MOL   H17010388   0.549   3.184   2.455  3.0908 -1.3947 -2.8986
   40MOL   C17110389   0.547   3.381   2.551  0.5866 -0.4805 -0.1884
   40MOL   C17210390   0.513   3.299   2.680 -0.1255 -0.3760 -0.0297
   40MOL   C17310391   0.391   3.351   2.757  0.2615  0.2969 -0.6767
   40MOL   C17410392   0.397   3.208   2.692 -0.4630  0.1526  0.0389
   40MOL   C17510393   0.652   3.496   2.576 -0.5046 -0.0792  0.1124
   40MOL   H17610394   0.459   3.425   2.504  1.3093  0.0111 -1.1138
   40MOL   H17710395   0.604   3.254   2.718  1.3292  1.3727 -1.3392
   40MOL   H17810396   0.395   3.362   2.865  0.4136 -0.2549 -0.6225
   40MOL   H17910397   0.332   3.421   2.699 -2.4927 -1.7084 -0.3945
   40MOL   H18010398   0.339   3.192   2.601 -2.8231 -1.7909  1.8094
   40MOL   H18110399   0.407   3.125   2.762 -0.3154  0.1567  0.0229
   40MOL   H18210400   0.708   3.520   2.486  0.1004 -0.1055  0.4763
   40MOL   H18310401   0.718   3.440   2.642 -1.6399 -0.1672  1.1844
   40MOL   C18410402   0.590   3.623   2.641  0.2995  0.0674  0.1884
   40MOL   C18510403   0.556   3.735   2.542  0.0047 -0.6144  0.4488
   40MOL   C18610404   0.439   3.829   2.566 -0.5748 -0.3433  0.2572
   40MOL   C18710405   0.450   3.749   2.440  0.6455 -1.2014  0.4235
   40MOL   C18810406   0.681   3.666   2.752 -0.5689 -0.2491  0.2347
   40MOL   H18910407   0.498   3.582   2.685  2.2387 -2.9359  1.6060
   40MOL   H19010408   0.650   3.785   2.517  0.1686 -1.5860 -0.8683
   40MOL   H19110409   0.465   3.934   2.556  0.2984 -0.5430  0.3853
   40MOL   H19210410   0.369   3.800   2.644 -0.6131 -0.0808  0.3181
   40MOL   H19310411   0.485   3.806   2.354 -0.2182 -1.6280 -0.2151
   40MOL   H19410412   0.393   3.660   2.414 -2.5093  1.1366 -0.9943
   40MOL   H19510413   0.771   3.707   2.706 -0.8916 -0.9517 -1.0598
   40MOL   H19610414   0.715   3.580   2.811 -1.2888 -0.3214  0.5418
   40MOL   C19710415   0.631   3.763   2.858  1.1309  0.1613 -0.0624
   40MOL   C19810416   0.749   3.841   2.917 -0.1080  0.5568 -0.1107
   40MOL   C19910417   0.743   3.989   2.940 -0.2579 -0.1466 -0.4060
   40MOL   C20010418   0.832   3.935   2.834 -0.2885 -0.0190  0.4810
   40MOL   C20110419   0.537   3.687   2.948  0.2606  0.1779 -1.0504
   40MOL   H20210420   0.583   3.846   2.807  1.1908  0.8905  1.0349
   40MOL   H20310421   0.802   3.785   2.993 -3.7832 -0.1041  2.0793
   40MOL   H20410422   0.651   4.042   2.919 -0.9407 -1.3980 -0.5996
   40MOL   H20510423   0.796   4.021   3.030 -1.8033  1.6344 -0.1073
   40MOL   H20610424   0.798   3.983   2.742  1.2925  0.4132  0.0973
   40MOL   H20710425   0.940   3.935   2.844 -0.3334 -3.3606  1.4465
   40MOL   H20810426   0.472   3.617   2.896  1.8178 -2.4102  0.3309
   40MOL   H20910427   0.600   3.630   3.018 -0.5535  0.4196 -0.1077
   40MOL   C21010428   0.440   3.773   3.028 -0.1765  0.1836 -0.7363
   40MOL   C21110429   0.312   3.818   2.949  0.1676 -0.3015  0.4956
   40MOL   C21210430   0.222   3.933   3.000 -0.6040  0.4243 -0.3386
   40MOL   C21310431   0.313   3.951   2.877  0.3469 -0.5410 -0.5391
   40MOL   C21410432   0.410   3.716   3.166  0.2110 -0.5335  0.6264
   40MOL   H21510433   0.496   3.861   3.059  0.1273 -0.3700  0.2936
   40MOL   H21610434   0.257   3.740   2.898 -0.4304  0.3534  0.1228
   40MOL   H21710435   0.116   3.912   2.987 -0.0173 -1.9267 -1.5763
   40MOL   H21810436   0.259   3.980   3.091 -0.8433  0.9811 -0.5265
   40MOL   H21910437   0.260   3.951   2.782  1.4469  0.3142 -1.1620
   40MOL   H22010438   0.381   4.036   2.888  1.1357 -1.4933  2.3576
   40MOL   H22110439   0.507   3.691   3.208 -0.0522 -2.2748  0.2257
   40MOL   H22210440   0.353   3.788   3.225 -0.8195 -0.9827  0.1895
   40MOL   C22310441   0.330   3.580   3.183  1.1145 -0.0527 -0.2411
   40MOL   C22410442   0.180   3.582   3.156 -0.3779 -0.4043  0.7872
   40MOL   C22510443   0.133   3.535   3.016  0.2089  0.1684 -0.8692
   40MOL   C22610444   0.092   3.458   3.140 -0.6031  0.3642  0.6367
   40MOL   C22710445   0.357   3.516   3.324  0.3967  0.6423  0.3338
   40MOL   H22810446   0.374   3.513   3.110 -0.7703 -0.1485 -1.3253
   40MOL   H22910447   0.127   3.672   3.185 -1.1218  0.2228 -2.2798
   40MOL   H23010448   0.208   3.494   2.949 -0.5628  1.7286 -2.7474
   40MOL   H23110449   0.064   3.610   2.978 -1.6085  0.1221  2.1883
   40MOL   H23210450   7.828   3.456   3.174 -1.4528  3.0901 -1.6396
   40MOL   H23310451   0.146   3.368   3.169 -1.1407  0.0208  0.5783
   40MOL   H23410452   0.338   3.597   3.395 -3.2036  0.3709 -0.2376
   40MOL   H23510453   0.273   3.453   3.352  1.0729 -0.2993  0.2746
   40MOL   C23610454   0.489   3.435   3.343  0.3423 -0.2241  1.1230
   40MOL   C23710455   0.481   3.304   3.256 -0.7247  0.1654 -0.4305
   40MOL   C23810456   0.532   3.288   3.112  0.0883 -0.3465 -0.4956
   40MOL   C23910457   0.606   3.223   3.228 -0.3720 -0.4270  0.2940
   40MOL   C24010458   0.518   3.398   3.481 -0.4826 -0.1508 -0.3246
   40MOL   H24110459   0.570   3.497   3.303 -1.2975  0.8680 -0.5694
   40MOL   H24210460   0.402   3.235   3.286  1.9047 -2.0817  1.6045
   40MOL   H24310461   0.467   3.233   3.044 -1.0823 -2.9526  2.5807
   40MOL   H24410462   0.587   3.372   3.071  0.2290  1.0657  2.5156
   40MOL   H24510463   0.710   3.252   3.236  0.3919 -3.1052  0.5582
   40MOL   H24610464   0.596   3.117   3.253 -0.2510 -0.2281  1.1919
   40MOL   H24710465   0.433   3.342   3.519 -0.4686  0.5380  0.7679
   40MOL   H24810466   0.602   3.328   3.481 -1.7089 -1.6599 -0.6969
   40MOL   C24910467   0.528   3.510   3.588  0.0749 -0.3607  0.4345
   40MOL   C25010468   0.645   3.601   3.557  0.0702  0.8908  0.1282
   40MOL   C25110469   0.721   3.691   3.652 -0.2883  0.3603 -0.3487
   40MOL   C25210470   0.784   3.561   3.604 -0.5765 -0.2390  0.2321
   40MOL   C25310471   0.528   3.457   3.733  0.2698 -0.4809  0.2170
   40MOL   H25410472   0.438   3.570   3.576 -0.8321 -1.8659 -0.4932
   40MOL   H25510473   0.638   3.644   3.458 -1.4518 -0.6660 -0.4652
   40MOL   H25610474   0.761   3.787   3.621  2.3981 -0.1017  1.4952
   40MOL   H25710475   0.698   3.692   3.759  0.2738 -3.1236 -0.1498
   40MOL   H25810476   0.879   3.571   3.552  0.1610  0.0792  1.6152
   40MOL   H25910477   0.798   3.477   3.671  1.7828 -1.9522 -2.2943
   40MOL   H26010478   0.441   3.395   3.756 -0.3848  1.1732  2.3437
   40MOL   H26110479   0.532   3.544   3.798 -2.4305  0.9947 -1.5031
   40MOL   H26210480   0.617   3.397   3.751 -0.8497 -3.0171 -2.2948
   41MOL     C110481   5.516   0.193   2.553 -0.3155 -0.1454  0.5345
   41MOL     C210482   5.569   0.235   2.425  0.5087 -0.0222 -0.4011
   41MOL     C310483   5.722   0.275   2.416  0.0980 -0.2366 -0.5109
   41MOL     C410484   5.615   0.374   2.406  0.2282 -0.5647  0.0099
   41MOL     C510485   5.455   0.048   2.568  0.7483 -0.3713  0.2053
   41MOL     H610486   5.599   0.187   2.624 -1.7631 -0.6029  2.2465
   41MOL     H710487   5.523   0.192   2.336  1.4157 -0.0625 -0.8519
   41MOL     H810488   5.787   0.278   2.503  4.0643  0.3265 -3.3683
   41MOL     H910489   5.779   0.250   2.326  0.4031 -1.2269 -0.0575
   41MOL    H1010490   5.600   0.416   2.307  2.8195  0.4313 -0.0025
   41MOL    H1110491   5.606   0.444   2.489 -1.1257  0.0287 -0.6258
   41MOL    H1210492   5.419   0.036   2.670  1.4914  2.3176  0.8332
   41MOL    H1310493   5.531   7.810   2.556  0.7854 -0.1967 -0.7034
   41MOL    H1410494   5.444   0.269   2.584  0.0330  0.6835 -0.6679
   41MOL    C1510495   5.329   0.030   2.479  0.1393  0.2837  0.3592
   41MOL    C1610496   5.278   7.733   2.499  0.3640 -0.1867 -0.2526
   41MOL    C1710497   5.341   7.620   2.422 -0.2195  0.1562  0.0629
   41MOL    C1810498   5.193   7.650   2.401  0.0783 -0.4195  0.4517
   41MOL    C1910499   5.208   0.119   2.508 -0.2270 -0.4466  0.5538
   41MOL    H2010500   5.350   0.035   2.372  0.0316 -4.5788  0.0123
   41MOL    H2110501   5.268   7.715   2.606  0.0987 -0.3230 -0.2987
   41MOL    H2210502   5.361   7.522   2.466 -1.6715 -0.7505 -1.2558
   41MOL    H2310503   5.407   7.650   2.341 -0.2775 -0.7473 -0.3269
   41MOL    H2410504   5.167   7.677   2.298 -0.8381 -1.1649  0.4856
   41MOL    H2510505   5.121   7.576   2.431 -1.3180  0.6414 -0.2075
   41MOL    H2610506   5.223   0.154   2.610  1.0064  0.4168  0.0977
   41MOL    H2710507   5.117   0.060   2.515  0.9291 -2.2525  0.9101
   41MOL    C2810508   5.186   0.237   2.415 -0.3297  0.3549  1.2140
   41MOL    C2910509   5.103   0.349   2.470  0.4453 -0.0992 -0.2842
   41MOL    C3010510   5.160   0.458   2.546  0.0649 -0.4940 -0.7328
   41MOL    C3110511   5.092   0.489   2.416 -0.7343  0.7384 -0.4891
   41MOL    C3210512   5.121   0.184   2.288  0.2638  0.0673  0.5829
   41MOL    H3310513   5.283   0.284   2.398  0.2442 -1.4321 -0.6867
   41MOL    H3410514   5.011   0.301   2.502 -0.5011  1.7467 -0.1281
   41MOL    H3510515   5.268   0.450   2.552 -0.0827 -2.1539  0.0008
   41MOL    H3610516   5.104   0.484   2.635  1.2486  2.6682 -0.8486
   41MOL    H3710517   5.147   0.511   2.326 -0.9702 -0.6950 -1.0068
   41MOL    H3810518   4.988   0.520   2.406 -0.1912  3.0401  0.7252
   41MOL    H3910519   5.016   0.174   2.318  0.0485 -1.2684 -0.5559
   41MOL    H4010520   5.149   0.082   2.264  0.3139 -0.3870  2.5313
   41MOL    C4110521   5.133   0.265   2.155  0.6098  0.5129 -0.2779
   41MOL    C4210522   5.047   0.188   2.059  0.1176 -0.4511 -0.3936
   41MOL    C4310523   4.968   0.266   1.956 -0.3488  0.2243  0.0265
   41MOL    C4410524   4.893   0.187   2.064 -0.2665  0.0498 -0.3002
   41MOL    C4510525   5.277   0.269   2.096 -0.0441  0.0072  0.2932
   41MOL    H4610526   5.093   0.366   2.167 -0.2810  0.2095 -0.6652
   41MOL    H4710527   5.084   0.093   2.023 -0.3375  0.0583 -2.2804
   41MOL    H4810528   4.959   0.373   1.974  0.4057  0.3968 -0.6140
   41MOL    H4910529   4.993   0.233   1.856  0.1661 -1.3947  0.6725
   41MOL    H5010530   4.832   0.102   2.036 -1.0033  0.2421  0.6892
   41MOL    H5110531   4.844   0.250   2.139 -0.8318  0.3484 -0.9123
   41MOL    H5210532   5.296   0.164   2.073  0.0127 -0.2842  1.6392
   41MOL    H5310533   5.346   0.299   2.175 -0.1022 -1.1104  0.7726
   41MOL    C5410534   5.301   0.355   1.969  0.1405 -1.2517  0.0697
   41MOL    C5510535   5.356   0.488   2.008  0.2001  0.1306  0.8137
   41MOL    C5610536   5.273   0.592   2.064  0.0001  0.1761 -0.1027
   41MOL    C5710537   5.334   0.615   1.925 -0.8286 -0.0219  0.2532
   41MOL    C5810538   5.404   0.307   1.867  0.2584  0.7087 -0.3361
   41MOL    H5910539   5.205   0.363   1.918 -0.1739 -1.5730  0.6110
   41MOL    H6010540   5.446   0.474   2.068 -0.4163  0.2278  1.7698
   41MOL    H6110541   5.166   0.570   2.061 -0.0989 -0.7101  4.7740
   41MOL    H6210542   5.302   0.654   2.149 -1.3735 -0.1793  0.6562
   41MOL    H6310543   5.417   0.682   1.905 -2.1531  1.2412 -1.1061
   41MOL    H6410544   5.274   0.595   1.837  0.2643  0.4347 -0.6013
   41MOL    H6510545   5.472   0.388   1.838 -0.5020  1.5457  0.1926
   41MOL    H6610546   5.462   0.230   1.917  0.9811  1.3232 -0.2035
   41MOL    C6710547   5.343   0.233   1.745 -0.3069  0.1732 -0.0372
   41MOL    C6810548   5.283   0.097   1.781 -0.3988  0.1279 -0.2930
   41MOL    C6910549   5.343   7.814   1.724  0.2255 -0.1306  0.3094
   41MOL    C7010550   5.350   7.831   1.875 -0.2464  0.6848 -0.0948
   41MOL    C7110551   5.243   0.322   1.667 -0.3808 -0.2242  0.1857
   41MOL    H7210552   5.430   0.210   1.682  1.2913  1.5785  1.6246
   41MOL    H7310553   5.174   0.098   1.784 -0.3704  0.3215  2.7037
   41MOL    H7410554   5.282   7.730   1.693 -1.0109  0.4754  1.0698
   41MOL    H7510555   5.441   7.817   1.676  0.7612 -0.5558  1.3572
   41MOL    H7610556   5.442   0.015   1.928 -0.2986  1.4673 -0.3470
   41MOL    H7710557   5.288   7.753   1.918 -0.7734  0.6212 -0.9730
   41MOL    H7810558   5.281   0.424   1.667  0.0630 -0.3888  0.0435
   41MOL    H7910559   5.145   0.319   1.715 -0.0792 -1.6779  0.7564
   41MOL    C8010560   5.218   0.291   1.518  0.4784 -0.4807  0.3089
   41MOL    C8110561   5.345   0.268   1.437  0.1019  0.0536  0.2756
   41MOL    C8210562   5.348   0.210   1.289  0.0609  0.4531  0.0941
   41MOL    C8310563   5.399   0.130   1.409 -0.6369  0.0124  0.4562
   41MOL    C8410564   5.134   0.406   1.449  0.1973  0.2937 -0.8253
   41MOL    H8510565   5.159   0.201   1.503 -0.6316  0.0188  1.6447
   41MOL    H8610566   5.420   0.345   1.456  3.2743 -2.2834 -2.1998
   41MOL    H8710567   5.422   0.244   1.217 -0.7964 -0.0507 -1.0265
   41MOL    H8810568   5.254   0.170   1.251  0.3640 -1.3341  1.1650
   41MOL    H8910569   5.347   0.044   1.453 -0.3028  0.1588  1.1436
   41MOL    H9010570   5.507   0.118   1.403 -0.7400 -0.8712  0.1349
   41MOL    H9110571   5.193   0.497   1.455  0.2084  0.2723 -0.5671
   41MOL    H9210572   5.127   0.372   1.346 -0.6420 -0.6531 -0.4608
   41MOL    C9310573   4.991   0.443   1.499  0.4525 -0.1414  0.5633
   41MOL    C9410574   4.931   0.553   1.410  0.6121  0.0775  0.3402
   41MOL    C9510575   4.855   0.665   1.460 -1.1024 -0.1955  0.3143
   41MOL    C9610576   4.994   0.690   1.404  0.0552  0.7692 -0.0956
   41MOL    C9710577   4.898   0.318   1.509  0.1886  0.3351 -0.1845
   41MOL    H9810578   5.002   0.482   1.600  1.7607 -0.1576  0.4399
   41MOL    H9910579   4.900   0.519   1.311  1.1935  0.2017  0.1109
   41MOL   H10010580   4.774   0.707   1.401  1.7954  1.1775 -2.8174
   41MOL   H10110581   4.833   0.665   1.567 -2.0515  1.6666  0.1422
   41MOL   H10210582   5.001   0.728   1.303  0.4895 -0.1836 -0.4263
   41MOL   H10310583   5.068   0.712   1.481 -1.0612 -1.7427  1.7875
   41MOL   H10410584   4.938   0.247   1.582 -1.4941  1.2304  1.6644
   41MOL   H10510585   4.889   0.261   1.417 -0.2425  0.1573 -0.0330
   41MOL   C10610586   4.749   0.340   1.548 -0.5671  0.5785  0.2018
   41MOL   C10710587   4.666   0.216   1.522  0.7514 -0.2155 -0.1705
   41MOL   C10810588   4.532   0.229   1.450 -0.5950 -0.5843  0.6014
   41MOL   C10910589   4.636   0.148   1.390 -0.2234  0.7936  0.8639
   41MOL   C11010590   4.733   0.402   1.686  0.3334 -0.3472 -0.4104
   41MOL   H11110591   4.709   0.415   1.479  0.5470 -0.0395 -1.1486
   41MOL   H11210592   4.682   0.141   1.600  1.4607  0.3118  0.1981
   41MOL   H11310593   4.448   0.189   1.506 -0.9221  0.7943  1.1178
   41MOL   H11410594   4.505   0.325   1.406  1.7871 -0.2024 -0.1333
   41MOL   H11510595   4.679   0.190   1.300 -0.1460 -0.6105  0.2224
   41MOL   H11610596   4.616   0.041   1.393  0.9036  0.5799  0.8705
   41MOL   H11710597   4.752   0.330   1.765  3.9671  2.3663  1.3005
   41MOL   H11810598   4.812   0.475   1.703  0.3379  0.0184 -1.8899
   41MOL   C11910599   4.595   0.466   1.725 -0.3162  0.2661 -0.2881
   41MOL   C12010600   4.601   0.479   1.872  0.8929 -0.1942  0.0028
   41MOL   C12110601   4.589   0.349   1.950  0.4865  0.0319 -0.0327
   41MOL   C12210602   4.482   0.448   1.954  0.1695 -0.3237 -0.3915
   41MOL   C12310603   4.572   0.605   1.655  0.3868  0.0105 -0.7671
   41MOL   H12410604   4.524   0.389   1.696  0.8898 -1.0548  0.2042
   41MOL   H12510605   4.672   0.549   1.916  1.0233  1.1128 -2.1805
   41MOL   H12610606   4.636   0.325   2.045 -1.1709 -2.4413  0.2114
   41MOL   H12710607   4.568   0.255   1.899 -0.2947 -0.4221  1.1134
   41MOL   H12810608   4.390   0.442   1.898  0.3147 -0.4582 -0.6172
   41MOL   H12910609   4.474   0.495   2.052  0.0377 -1.0082 -0.0728
   41MOL   H13010610   4.635   0.680   1.703 -0.5525  0.6328 -0.5098
   41MOL   H13110611   4.605   0.606   1.551  0.6693 -0.1127 -0.6810
   41MOL   C13210612   4.427   0.663   1.632  0.0685  0.0810 -0.1306
   41MOL   C13310613   4.347   0.580   1.533 -0.0781  0.7803 -0.1332
   41MOL   C13410614   4.190   0.580   1.542 -0.1175 -0.4228 -0.2631
   41MOL   C13510615   4.261   0.455   1.574 -0.8154 -0.2124 -0.3350
   41MOL   C13610616   4.430   0.810   1.587  0.0793  0.2906 -0.1866
   41MOL   H13710617   4.381   0.664   1.731  0.3903  0.7321  0.0150
   41MOL   H13810618   4.399   0.573   1.438 -0.2503 -2.9988  0.0108
   41MOL   H13910619   4.139   0.641   1.616  0.2702 -0.3183 -0.0814
   41MOL   H14010620   4.134   0.587   1.449 -0.5159 -1.9235 -0.1517
   41MOL   H14110621   4.270   0.421   1.677  0.3580 -0.4016 -0.4812
   41MOL   H14210622   4.243   0.370   1.507 -3.1108 -0.7208  0.9173
   41MOL   H14310623   4.510   0.829   1.514 -0.2774  1.5882 -0.2610
   41MOL   H14410624   4.345   0.836   1.524 -0.2899 -0.3770  0.0358
   41MOL   C14510625   4.432   0.926   1.694 -0.6602  0.2189  0.2688
   41MOL   C14610626   4.319   0.912   1.796 -0.0794  0.1351 -0.0381
   41MOL   C14710627   4.266   1.033   1.861  0.4122 -0.5876  0.2748
   41MOL   C14810628   4.180   0.951   1.768 -0.0505  0.1406 -0.2061
   41MOL   C14910629   4.569   0.936   1.768 -0.0353 -0.1782 -0.3356
   41MOL   H15010630   4.408   1.019   1.642  2.1141  0.5145 -0.5492
   41MOL   H15110631   4.340   0.827   1.860  3.1016  0.2956 -0.7863
   41MOL   H15210632   4.239   1.030   1.966 -0.4773 -0.1127  0.0696
   41MOL   H15310633   4.299   1.129   1.821  0.5512  0.1259  2.0798
   41MOL   H15410634   4.163   1.002   1.673  0.2233 -1.7991 -1.3162
   41MOL   H15510635   4.105   0.880   1.802 -1.9809  1.0219 -2.5269
   41MOL   H15610636   4.564   0.854   1.839 -1.0436  0.4084  0.2797
   41MOL   H15710637   4.657   0.915   1.706  0.8446  0.7870  0.5585
   41MOL   C15810638   4.596   1.068   1.839  0.7396  0.2337  0.0195
   41MOL   C15910639   4.615   1.179   1.734 -0.4430 -0.0077  0.5754
   41MOL   C16010640   4.507   1.275   1.684 -0.2389  0.1057  0.1602
   41MOL   C16110641   4.621   1.332   1.763 -0.0556 -0.5914  0.0057
   41MOL   C16210642   4.724   1.065   1.928 -0.7698  0.0014  0.7102
   41MOL   H16310643   4.517   1.098   1.908  2.2488  0.9535  1.4752
   41MOL   H16410644   4.685   1.151   1.655  0.2882  3.4248 -0.1050
   41MOL   H16510645   4.411   1.280   1.734  1.5795  1.7429  3.6598
   41MOL   H16610646   4.500   1.298   1.578  0.1241 -1.3717 -0.2090
   41MOL   H16710647   4.691   1.394   1.708 -2.1394 -0.4356 -2.5964
   41MOL   H16810648   4.609   1.364   1.866  0.1357 -2.4928  0.6455
   41MOL   H16910649   4.756   1.167   1.953 -1.8783  0.0909  1.7779
   41MOL   H17010650   4.802   1.031   1.859 -1.5086 -0.8235  0.2757
   41MOL   C17110651   4.721   0.985   2.065 -0.7999 -0.4116 -0.2204
   41MOL   C17210652   4.859   0.943   2.107  0.5601 -0.0996 -0.0762
   41MOL   C17310653   4.898   0.803   2.164  0.0790  0.0246  0.2069
   41MOL   C17410654   4.940   0.845   2.023  0.0473  0.1816 -0.1336
   41MOL   C17510655   4.651   1.065   2.173 -0.0854  1.0059  0.2010
   41MOL   H17610656   4.649   0.906   2.045  1.0201 -1.5460 -2.5728
   41MOL   H17710657   4.918   1.027   2.144 -1.8016  1.4527  0.2600
   41MOL   H17810658   4.962   0.823   2.250  1.8264 -1.6631 -0.6461
   41MOL   H17910659   4.814   0.735   2.180 -1.6421  2.0910  0.2450
   41MOL   H18010660   4.899   0.785   1.943 -0.1287 -1.9212  1.4745
   41MOL   H18110661   5.040   0.889   2.018 -0.6311  1.8264  0.3955
   41MOL   H18210662   4.586   1.138   2.125  3.0415  3.1370 -0.9467
   41MOL   H18310663   4.724   1.123   2.229 -0.6308  0.5658  1.3931
   41MOL   C18410664   4.553   0.980   2.266  0.7482 -0.0426 -0.0329
   41MOL   C18510665   4.443   0.907   2.190  0.1447 -0.1751 -0.3091
   41MOL   C18610666   4.369   0.795   2.258 -0.1227  0.0147  0.3707
   41MOL   C18710667   4.463   0.756   2.145 -0.6602  0.2377  0.4176
   41MOL   C18810668   4.488   1.064   2.380 -0.6854  0.4628  0.2324
   41MOL   H18910669   4.620   0.915   2.323 -0.7711 -0.7732  0.9576
   41MOL   H19010670   4.372   0.977   2.145 -0.9549 -0.8135  0.4409
   41MOL   H19110671   4.265   0.766   2.244  0.3169 -1.4600  0.0997
   41MOL   H19210672   4.411   0.759   2.352  1.0435  0.5151  0.0558
   41MOL   H19310673   4.412   0.729   2.052 -1.6099 -0.1735  1.0523
   41MOL   H19410674   4.537   0.689   2.189 -1.0809  0.3267  1.2570
   41MOL   H19510675   4.435   0.993   2.444 -0.1124  0.5584  0.8256
   41MOL   H19610676   4.406   1.119   2.336  0.4624  0.3403 -2.1055
   41MOL   C19710677   4.582   1.133   2.477  0.0408  0.5328 -0.4923
   41MOL   C19810678   4.643   1.037   2.585 -0.8309  0.2518  0.1005
   41MOL   C19910679   4.765   1.082   2.661 -0.6223 -0.0496 -0.5814
   41MOL   C20010680   4.775   0.972   2.561 -1.1429 -0.4119 -0.0244
   41MOL   C20110681   4.505   1.239   2.548  0.1024 -0.2907 -0.0429
   41MOL   H20210682   4.667   1.177   2.425  1.9293 -1.3240  0.9389
   41MOL   H20310683   4.575   0.967   2.634 -0.4248 -1.3449 -1.5897
   41MOL   H20410684   4.825   1.168   2.632  0.6055 -0.2554  1.2641
   41MOL   H20510685   4.772   1.050   2.765 -0.5700 -3.0063 -1.4602
   41MOL   H20610686   4.814   0.982   2.460  0.5210  1.7087  0.7935
   41MOL   H20710687   4.788   0.871   2.600  0.3740  0.8044  2.7409
   41MOL   H20810688   4.397   1.232   2.555  0.3647 -1.9177  3.6974
   41MOL   H20910689   4.535   1.238   2.653 -1.1722 -3.2345  0.3383
   41MOL   C21010690   4.531   1.384   2.485 -0.0296 -0.3910 -0.3934
   41MOL   C21110691   4.667   1.430   2.515 -0.1826  0.0791  0.3421
   41MOL   C21210692   4.704   1.581   2.541 -0.1580  0.1879  0.1497
   41MOL   C21310693   4.713   1.472   2.649  0.0160 -0.5234  0.1087
   41MOL   C21410694   4.466   1.428   2.345 -0.7357  0.3970 -0.2722
   41MOL   H21510695   4.466   1.445   2.549  0.1527 -1.0312  0.4080
   41MOL   H21610696   4.743   1.374   2.460 -0.4670 -0.6223  0.6637
   41MOL   H21710697   4.790   1.630   2.495 -1.2588  1.9563 -0.0324
   41MOL   H21810698   4.619   1.648   2.538 -0.7314 -0.5784 -1.8253
   41MOL   H21910699   4.812   1.438   2.681 -1.5150 -3.3485  2.0942
   41MOL   H22010700   4.641   1.489   2.728  0.5828  0.4617  0.4166
   41MOL   H22110701   4.506   1.524   2.313  2.5720 -1.0244 -0.5638
   41MOL   H22210702   4.507   1.356   2.274 -0.2331  0.6442 -0.2352
   41MOL   C22310703   4.313   1.424   2.325  0.2697  0.2075  0.0605
   41MOL   C22410704   4.280   1.438   2.178  0.3730 -0.3411  0.7281
   41MOL   C22510705   4.318   1.334   2.073  0.0638  0.0516 -0.0295
   41MOL   C22610706   4.173   1.363   2.108 -0.1962 -0.2503 -0.8905
   41MOL   C22710707   4.251   1.531   2.413  0.7554 -0.6350  0.1780
   41MOL   H22810708   4.274   1.328   2.358  3.0485 -1.1486 -0.4707
   41MOL   H22910709   4.294   1.542   2.149  0.3569 -0.6658 -0.4710
   41MOL   H23010710   4.356   1.242   2.115 -2.2214 -1.2102 -0.6411
   41MOL   H23110711   4.352   1.378   1.979 -0.6775 -0.2817 -0.4593
   41MOL   H23210712   4.114   1.431   2.047  1.3965  1.1493 -0.9186
   41MOL   H23310713   4.125   1.281   2.162 -0.6020  1.7946  1.9660
   41MOL   H23410714   4.270   1.511   2.518 -0.6016 -2.9602  0.0069
   41MOL   H23510715   4.294   1.630   2.393 -1.2063  0.6421  2.0598
   41MOL   C23610716   4.096   1.549   2.396 -0.4866  0.1192 -0.3188
   41MOL   C23710717   4.054   1.680   2.444 -0.5231  0.0051  0.2167
   41MOL   C23810718   4.079   1.807   2.373 -0.7777 -0.2049  0.9245
   41MOL   C23910719   3.939   1.755   2.376 -0.4009 -0.2153 -0.4598
   41MOL   C24010720   4.025   1.433   2.486 -0.0914  0.4573  0.7632
   41MOL   H24110721   4.071   1.536   2.291 -2.2545  1.2530 -0.0543
   41MOL   H24210722   4.068   1.703   2.549 -1.3180 -0.5761  0.4542
   41MOL   H24310723   4.113   1.879   2.447  2.3765 -0.3743 -0.2877
   41MOL   H24410724   4.139   1.793   2.283  0.1004 -1.0595  1.6253
   41MOL   H24510725   3.903   1.703   2.288 -0.2047  0.1967 -0.7878
   41MOL   H24610726   3.861   1.797   2.440 -0.6170 -1.5133  0.1380
   41MOL   H24710727   4.075   1.336   2.474  1.3432  1.3186 -0.3533
   41MOL   H24810728   4.048   1.454   2.590  1.0730 -1.6839  0.9913
   41MOL   C24910729   3.877   1.411   2.483  0.0961  0.0351  0.8600
   41MOL   C25010730   3.839   1.335   2.606  0.9268  0.1025 -0.0239
   41MOL   C25110731   3.816   1.405   2.739  0.3034  0.7180  0.2276
   41MOL   C25210732   3.698   1.339   2.665 -0.3193  0.8528 -0.4813
   41MOL   C25310733   3.841   1.342   2.347 -0.1607  0.1920 -0.3107
   41MOL   H25410734   3.846   1.515   2.491  0.8977  0.1917  1.9978
   41MOL   H25510735   3.879   1.234   2.619 -0.6724 -0.2698  2.3192
   41MOL   H25610736   3.834   1.345   2.827 -1.8525 -0.4762 -0.1030
   41MOL   H25710737   3.834   1.513   2.736  1.5519  0.4933 -0.6416
   41MOL   H25810738   3.659   1.245   2.703 -0.5335  1.5574  1.0732
   41MOL   H25910739   3.628   1.402   2.609 -2.0124 -1.6495 -1.2824
   41MOL   H26010740   3.739   1.321   2.315  0.6939  1.1964 -3.8546
   41MOL   H26110741   3.899   1.250   2.347  0.7898  0.7844  0.0078
   41MOL   H26210742   3.883   1.403   2.267  1.9841 -1.7132 -0.6898
   42MOL     C110743   1.124   6.017   5.416 -0.2288 -0.0847 -0.7034
   42MOL     C210744   1.144   5.954   5.275  0.2973 -0.1290  0.2524
   42MOL     C310745   1.063   6.002   5.155  0.3065 -0.5988 -0.5790
   42MOL     C410746   1.044   5.862   5.214  0.2915 -0.0537 -0.2491
   42MOL     C510747   1.179   6.157   5.424 -0.6899 -0.3081  0.5232
   42MOL     H610748   1.018   6.034   5.433 -0.3456 -1.6030  0.2280
   42MOL     H710749   1.246   5.923   5.251  1.2909  0.6954  3.2114
   42MOL     H810750   0.977   6.064   5.181  0.7064  1.6301 -4.1186
   42MOL     H910751   1.109   6.014   5.057 -2.1265  0.2216 -1.6713
   42MOL    H1010752   1.083   5.774   5.163 -0.5468  0.3802 -1.6595
   42MOL    H1110753   0.951   5.840   5.267  1.0081  0.2105  1.1624
   42MOL    H1210754   1.157   6.208   5.331  0.0932 -1.5508 -0.3607
   42MOL    H1310755   1.287   6.160   5.412 -0.7514 -0.1605  0.0065
   42MOL    H1410756   1.147   5.949   5.498 -0.8903 -0.0476 -0.4883
   42MOL    C1510757   1.145   6.230   5.550  0.0313  0.2175 -0.3470
   42MOL    C1610758   1.187   6.148   5.669  0.6579  0.2313  0.3185
   42MOL    C1710759   1.104   6.036   5.736 -0.0464  0.0094 -0.2073
   42MOL    C1810760   1.129   6.169   5.812  0.1623 -0.8462  0.6073
   42MOL    C1910761   1.216   6.365   5.567  0.5805  0.4597 -0.0719
   42MOL    H2010762   1.036   6.243   5.551  0.1107  0.8728  1.8292
   42MOL    H2110763   1.295   6.135   5.670  0.8892  1.9918 -0.4806
   42MOL    H2210764   1.158   5.947   5.768  1.2587  1.1247  0.7839
   42MOL    H2310765   0.999   6.023   5.711  0.8287 -2.8114 -2.6770
   42MOL    H2410766   1.033   6.216   5.831  0.5241  0.4576 -0.7206
   42MOL    H2510767   1.203   6.164   5.892 -0.9027 -0.7229  1.6168
   42MOL    H2610768   1.321   6.352   5.541  0.4692  1.7023 -1.2189
   42MOL    H2710769   1.220   6.406   5.668  0.7245  2.1499 -0.7491
   42MOL    C2810770   1.148   6.472   5.474 -0.6392 -0.0689  0.5618
   42MOL    C2910771   1.252   6.573   5.451 -0.8829 -0.7978 -1.1189
   42MOL    C3010772   1.382   6.554   5.376  0.1354  0.0580 -0.2285
   42MOL    C3110773   1.275   6.632   5.318  0.3206 -0.7991  0.3034
   42MOL    C3210774   1.015   6.533   5.524  0.2909 -0.7425 -0.0983
   42MOL    H3310775   1.134   6.427   5.375  0.1555  1.9253 -0.4785
   42MOL    H3410776   1.239   6.655   5.522  1.8911  0.5113 -2.0346
   42MOL    H3510777   1.392   6.450   5.345  0.1697 -0.0229  0.0487
   42MOL    H3610778   1.473   6.608   5.401 -0.8835  0.8585  1.8246
   42MOL    H3710779   1.213   6.599   5.234 -2.1069 -2.1937  2.5829
   42MOL    H3810780   1.288   6.740   5.317 -1.6510 -0.5449 -0.5030
   42MOL    H3910781   1.030   6.597   5.611 -0.7666  2.5838 -2.2366
   42MOL    H4010782   0.940   6.460   5.554 -0.8997  1.4185  2.3439
   42MOL    C4110783   0.934   6.612   5.414  0.2706 -0.1207  0.5608
   42MOL    C4210784   0.851   6.723   5.480  0.0698 -0.1564  0.0627
   42MOL    C4310785   0.819   6.851   5.407 -0.2227 -0.9025  0.3621
   42MOL    C4410786   0.920   6.855   5.516  0.5170  0.1639 -0.9382
   42MOL    C4510787   0.842   6.508   5.332 -0.1785 -0.7520 -0.9727
   42MOL    H4610788   1.008   6.650   5.344  1.4829 -0.6362  1.5423
   42MOL    H4710789   0.785   6.689   5.560  1.4743  0.2904  1.4457
   42MOL    H4810790   0.862   6.858   5.307  1.7179 -1.7762  1.1047
   42MOL    H4910791   0.731   6.911   5.424  0.0826 -0.8723  1.8735
   42MOL    H5010792   0.879   6.892   5.610  0.6960 -1.5110 -0.1852
   42MOL    H5110793   1.022   6.886   5.493  0.7219  2.9031  3.1271
   42MOL    H5210794   0.750   6.482   5.383  0.4739  1.1821  1.2956
   42MOL    H5310795   0.897   6.415   5.317  0.9378 -0.0503 -1.2861
   42MOL    C5410796   0.804   6.570   5.196 -0.3279  0.4205  0.5330
   42MOL    C5510797   0.924   6.592   5.100 -0.3641  0.3605 -0.2213
   42MOL    C5610798   0.966   6.731   5.060 -0.2651 -0.7101 -0.0889
   42MOL    C5710799   0.892   6.648   4.960 -0.1113  0.0416 -1.3640
   42MOL    C5810800   0.697   6.475   5.123 -0.4231  0.3995 -0.2570
   42MOL    H5910801   0.756   6.667   5.210  0.6690  0.8920  0.6985
   42MOL    H6010802   1.001   6.517   5.110 -0.7785 -0.1246 -0.6735
   42MOL    H6110803   0.909   6.806   5.114 -0.6398 -0.5865 -0.6543
   42MOL    H6210804   1.073   6.752   5.058 -0.5345  1.3676  3.1777
   42MOL    H6310805   0.945   6.582   4.892 -0.8441 -2.6481  0.5499
   42MOL    H6410806   0.792   6.683   4.936 -0.0096  1.5828  0.3270
   42MOL    H6510807   0.697   6.495   5.016  0.1119 -0.4360 -0.4184
   42MOL    H6610808   0.742   6.377   5.142  0.2438  0.9224  0.9149
   42MOL    C6710809   0.550   6.480   5.177  0.6347 -1.0838 -0.8654
   42MOL    C6810810   0.501   6.626   5.183 -0.4544  0.5860  0.7920
   42MOL    C6910811   0.373   6.651   5.258 -0.4710 -0.3086 -0.0677
   42MOL    C7010812   0.502   6.710   5.302 -0.0266 -0.4043  0.7218
   42MOL    C7110813   0.452   6.397   5.090 -0.0943  0.3054 -0.2893
   42MOL    H7210814   0.554   6.442   5.278  0.4275 -0.4397 -0.6137
   42MOL    H7310815   0.520   6.682   5.092 -1.7375 -1.7107 -0.9458
   42MOL    H7410816   0.301   6.723   5.219  0.7841  2.2734  2.2333
   42MOL    H7510817   0.335   6.571   5.321 -1.5889  0.6681  0.5266
   42MOL    H7610818   0.544   6.675   5.396  0.5876 -0.3042  0.4870
   42MOL    H7710819   0.538   6.809   5.275  2.6935 -1.3440  0.7949
   42MOL    H7810820   0.469   6.408   4.983  1.1746 -1.3690 -0.2877
   42MOL    H7910821   0.351   6.427   5.117 -1.2730 -2.4029 -1.4620
   42MOL    C8010822   0.456   6.244   5.104  0.3422  0.4125  0.2381
   42MOL    C8110823   0.381   6.191   4.983 -0.1817 -0.3201  0.1513
   42MOL    C8210824   0.413   6.055   4.913 -0.2019  0.0047  0.4474
   42MOL    C8310825   0.444   6.182   4.841 -0.5837  0.0657 -0.1532
   42MOL    C8410826   0.405   6.188   5.237 -0.4651 -0.2066 -0.6326
   42MOL    H8510827   0.561   6.212   5.097  0.5582  0.8520  1.3031
   42MOL    H8610828   0.281   6.233   4.994  0.2253  1.3730 -2.1418
   42MOL    H8710829   0.325   6.008   4.869  0.2400 -0.3279 -0.0858
   42MOL    H8810830   0.497   5.996   4.947  2.2424  2.4265 -1.2371
   42MOL    H8910831   0.550   6.203   4.845 -0.9607  1.9332  0.2230
   42MOL    H9010832   0.395   6.226   4.754  0.5882  1.2041 -0.2439
   42MOL    H9110833   0.431   6.252   5.321  1.5044 -2.3099  0.3765
   42MOL    H9210834   0.296   6.198   5.241 -0.4917 -0.6495 -0.2137
   42MOL    C9310835   0.449   6.046   5.271 -0.3200  0.3544 -0.0501
   42MOL    C9410836   0.585   6.028   5.335 -0.1061 -0.8420 -0.0377
   42MOL    C9510837   0.655   5.900   5.324 -0.5557  0.1091  0.2269
   42MOL    C9610838   0.704   6.020   5.244 -0.5173 -1.1091 -0.2745
   42MOL    C9710839   0.346   5.986   5.369 -0.4831  0.1303  0.6000
   42MOL    H9810840   0.453   5.978   5.186  1.3973 -1.7447  1.6562
   42MOL    H9910841   0.596   6.086   5.426 -2.0460 -0.6559  0.0942
   42MOL   H10010842   0.706   5.866   5.414 -3.1074  4.7880  3.6504
   42MOL   H10110843   0.595   5.823   5.278 -1.3932  1.1264 -0.4082
   42MOL   H10210844   0.798   6.065   5.276 -0.7972  0.3164 -1.4110
   42MOL   H10310845   0.687   6.047   5.140  2.4034 -0.4641 -0.6321
   42MOL   H10410846   0.329   6.060   5.447 -1.0881 -0.2479  0.8327
   42MOL   H10510847   0.393   5.904   5.424  0.1963 -0.4937 -0.8701
   42MOL   C10610848   0.207   5.939   5.308  0.2309  0.3412 -0.4165
   42MOL   C10710849   0.227   5.795   5.258 -0.3981  0.6267 -0.7883
   42MOL   C10810850   0.149   5.738   5.132 -0.2057  0.4503 -0.0795
   42MOL   C10910851   0.297   5.756   5.128 -0.0279 -0.1813 -0.0785
   42MOL   C11010852   0.098   5.934   5.415 -0.6319  0.8671  0.7073
   42MOL   H11110853   0.183   5.996   5.218  1.2519  2.0252  0.3590
   42MOL   H11210854   0.252   5.721   5.333  2.1261 -0.6590 -2.8318
   42MOL   H11310855   0.106   5.639   5.145  1.4748 -0.2068  0.5771
   42MOL   H11410856   0.091   5.794   5.059 -0.4902  1.3223  0.8218
   42MOL   H11510857   0.350   5.836   5.078 -0.4146 -1.0072 -1.8740
   42MOL   H11610858   0.349   5.660   5.128 -1.3295 -0.9105  1.2320
   42MOL   H11710859   0.052   5.835   5.425  0.6601  0.5041  3.7867
   42MOL   H11810860   0.143   5.929   5.514 -0.7028 -1.7320  0.6353
   42MOL   C11910861   7.827   6.044   5.400 -0.4970  0.2664 -0.9741
   42MOL   C12010862   0.047   6.185   5.386  0.1238  0.2613 -0.4121
   42MOL   C12110863   0.086   6.276   5.505  0.2996  0.5959 -0.2259
   42MOL   C12210864   7.799   6.298   5.427 -0.1477 -0.5863 -0.0305
   42MOL   C12310865   7.739   6.009   5.287  0.3208 -0.1643 -0.2347
   42MOL   H12410866   7.776   6.031   5.495  2.0216  0.9964  0.5207
   42MOL   H12510867   0.094   6.202   5.289 -1.4730 -1.4734 -1.5229
   42MOL   H12610868   0.165   6.350   5.492  0.4912  0.2974 -0.7698
   42MOL   H12710869   0.080   6.230   5.603  0.9249  2.3156  0.6488
   42MOL   H12810870   7.701   6.276   5.469  0.0980 -0.7261  0.4826
   42MOL   H12910871   7.797   6.376   5.352  1.0526  0.2403  0.7755
   42MOL   H13010872   7.698   6.095   5.234 -1.1589  0.2558  1.5170
   42MOL   H13110873   7.788   5.953   5.208  0.9863  0.7549 -0.4785
   42MOL   C13210874   7.614   5.922   5.328  0.4247  0.0148 -0.4957
   42MOL   C13310875   7.565   5.826   5.220  0.4109 -0.2212 -0.1011
   42MOL   C13410876   7.508   5.693   5.248 -0.2310  0.0855 -0.1438
   42MOL   C13510877   7.646   5.699   5.202 -0.0001 -0.4931  0.4834
   42MOL   C13610878   7.498   6.019   5.368  0.9501  0.3756  0.2861
   42MOL   H13710879   7.647   5.861   5.412 -0.9495  0.3497  0.3094
   42MOL   H13810880   7.511   5.865   5.134 -1.5089 -2.3354  0.0968
   42MOL   H13910881   7.485   5.686   5.354  1.2127 -1.2787  0.0835
   42MOL   H14010882   7.426   5.662   5.184 -1.0694  0.6572  0.6222
   42MOL   H14110883   7.730   5.697   5.271 -0.4137 -0.4634  0.9885
   42MOL   H14210884   7.663   5.659   5.102  0.6984 -3.0869  1.5929
   42MOL   H14310885   7.546   6.110   5.405 -0.1934  1.3109 -0.4816
   42MOL   H14410886   7.449   6.052   5.276  1.1070 -1.1986 -0.3843
   42MOL   C14510887   7.395   5.963   5.469 -0.4034 -0.2847  0.4264
   42MOL   C14610888   7.366   6.075   5.568  0.0738 -0.3590  0.2596
   42MOL   C14710889   7.337   6.040   5.710 -0.1029  0.2064 -0.2582
   42MOL   C14810890   7.466   6.114   5.670  0.3289  0.4100  0.1155
   42MOL   C14910891   7.268   5.905   5.390  0.8198 -0.0537 -0.3560
   42MOL   H15010892   7.438   5.881   5.526  0.4450 -0.4566 -0.4466
   42MOL   H15110893   7.306   6.156   5.527  0.7730  0.5099  0.9484
   42MOL   H15210894   7.253   6.089   5.759 -0.0723  0.8979 -0.8899
   42MOL   H15310895   7.368   5.944   5.751 -0.4268 -0.2406 -1.0513
   42MOL   H15410896   7.562   6.064   5.664 -0.8173 -1.9332  0.6766
   42MOL   H15510897   7.468   6.222   5.687  1.8179  0.2193  1.1920
   42MOL   H15610898   7.235   5.977   5.315 -0.4210 -2.6470 -2.3776
   42MOL   H15710899   7.308   5.841   5.313  0.6008  0.2756 -0.7461
   42MOL   C15810900   7.152   5.832   5.464 -0.2315 -0.5733 -0.1919
   42MOL   C15910901   7.186   5.693   5.520  0.9257  0.6037 -0.0390
   42MOL   C16010902   7.227   5.677   5.664 -0.2132 -0.1620 -0.0606
   42MOL   C16110903   7.100   5.616   5.623 -0.2228 -0.1522  0.1478
   42MOL   C16210904   7.024   5.823   5.373  0.0194 -0.0182  0.3097
   42MOL   H16310905   7.123   5.898   5.546  1.0744  2.5046 -2.0687
   42MOL   H16410906   7.228   5.629   5.443  0.5862  0.7683 -0.3651
   42MOL   H16510907   7.224   5.776   5.709 -0.7995  0.3880 -1.2966
   42MOL   H16610908   7.304   5.604   5.687 -0.0353 -0.9782 -3.0387
   42MOL   H16710909   7.087   5.508   5.611 -2.8408  0.4332 -3.3240
   42MOL   H16810910   7.019   5.675   5.666  0.9125  2.2983 -1.0012
   42MOL   H16910911   6.954   5.752   5.417  0.1422 -0.7756 -0.6812
   42MOL   H17010912   7.053   5.776   5.279  1.2510  2.4475 -0.5719
   42MOL   C17110913   6.946   5.950   5.339 -0.5120  0.0021 -0.4588
   42MOL   C17210914   6.862   5.926   5.214 -0.4223  0.1026  0.0121
   42MOL   C17310915   6.862   6.023   5.094 -0.0919 -0.4292  0.1885
   42MOL   C17410916   6.941   5.900   5.094 -0.2432 -0.7580  0.1842
   42MOL   C17510917   6.855   5.995   5.456 -0.1270  0.0309  0.2987
   42MOL   H17610918   7.010   6.035   5.317  1.3082 -1.1428  0.3276
   42MOL   H17710919   6.767   5.875   5.232 -1.0215  1.4493  0.7246
   42MOL   H17810920   6.768   6.022   5.039 -0.8409  0.9526  1.4040
   42MOL   H17910921   6.912   6.118   5.113 -2.0884  0.7977 -0.5738
   42MOL   H18010922   7.048   5.911   5.109 -0.2074  0.6259 -1.0427
   42MOL   H18110923   6.914   5.818   5.028 -0.2719  0.6437 -1.5887
   42MOL   H18210924   6.912   5.991   5.549  2.0799  1.5094 -0.9540
   42MOL   H18310925   6.782   5.914   5.467 -0.7574  0.3937 -1.1280
   42MOL   C18410926   6.782   6.128   5.447  0.2400  0.0559  0.2447
   42MOL   C18510927   6.865   6.231   5.514 -0.7218 -0.5021  0.2535
   42MOL   C18610928   6.876   6.376   5.468 -0.1283 -0.4474 -0.0320
   42MOL   C18710929   6.992   6.283   5.453 -0.2501  0.1512  0.0474
   42MOL   C18810930   6.645   6.118   5.519 -0.0271 -0.7056  0.4354
   42MOL   H18910931   6.783   6.151   5.341 -0.5795 -2.1863 -0.2798
   42MOL   H19010932   6.878   6.215   5.621 -2.3132 -1.6427  0.2912
   42MOL   H19110933   6.890   6.458   5.537  0.3411  1.7276 -2.6458
   42MOL   H19210934   6.810   6.405   5.387 -0.1270  0.1512  0.1823
   42MOL   H19310935   7.071   6.276   5.528  0.8437  1.0043 -1.0019
   42MOL   H19410936   7.023   6.255   5.352  1.7306  0.9017  0.4281
   42MOL   H19510937   6.621   6.219   5.553 -0.3801 -1.7111  3.3904
   42MOL   H19610938   6.652   6.057   5.610 -1.6951 -0.5912  0.6682
   42MOL   C19710939   6.523   6.069   5.435  0.1063 -0.1349  0.5285
   42MOL   C19810940   6.495   6.163   5.318 -0.1173 -0.3098 -0.2788
   42MOL   C19910941   6.394   6.149   5.207  0.7978  0.7486  0.2150
   42MOL   C20010942   6.540   6.132   5.178  0.4036 -0.2045 -0.4480
   42MOL   C20110943   6.394   6.067   5.512 -0.1628 -0.1510 -1.0693
   42MOL   H20210944   6.545   5.967   5.403 -2.4287 -0.5224 -0.0578
   42MOL   H20310945   6.501   6.267   5.349  0.9309  0.3843 -2.6734
   42MOL   H20410946   6.323   6.066   5.206 -0.2378  1.6191 -2.6034
   42MOL   H20510947   6.349   6.239   5.166  0.7724  0.3630 -0.6123
   42MOL   H20610948   6.569   6.029   5.157  0.4972 -0.6063  1.5492
   42MOL   H20710949   6.614   6.201   5.136 -0.1135 -0.2920 -1.4987
   42MOL   H20810950   6.401   6.133   5.598  1.7893 -2.2527  0.4328
   42MOL   H20910951   6.313   6.113   5.455  0.9440  1.2020 -1.5805
   42MOL   C21010952   6.358   5.927   5.560 -0.0802  0.3342 -0.1201
   42MOL   C21110953   6.259   5.916   5.678  0.1463  0.5698 -0.5085
   42MOL   C21210954   6.289   5.810   5.778  0.0015  0.6417  0.1128
   42MOL   C21310955   6.289   5.959   5.812  0.3076 -0.3167 -0.4056
   42MOL   C21410956   6.309   5.838   5.440 -0.0129 -0.5552  0.0533
   42MOL   H21510957   6.445   5.879   5.604  0.1382  1.1664  0.3580
   42MOL   H21610958   6.156   5.937   5.651  0.1440 -1.7745 -2.4593
   42MOL   H21710959   6.208   5.747   5.815  0.3270 -1.2142 -2.1702
   42MOL   H21810960   6.378   5.752   5.753  0.0948  0.4673  0.8487
   42MOL   H21910961   6.206   5.976   5.881 -0.1085  0.3674 -1.0563
   42MOL   H22010962   6.383   6.004   5.841 -1.1454  2.9435 -0.4953
   42MOL   H22110963   6.201   5.855   5.442 -0.3278 -2.5990  1.9124
   42MOL   H22210964   6.336   5.882   5.344 -1.7316 -0.0334 -0.2106
   42MOL   C22310965   6.347   5.688   5.433  0.2645 -0.1683 -0.2532
   42MOL   C22410966   6.497   5.677   5.409  0.1441  0.3993 -0.1024
   42MOL   C22510967   6.599   5.667   5.520 -0.9223  0.0179  1.0614
   42MOL   C22610968   6.564   5.542   5.443  0.1527  0.2557 -0.8242
   42MOL   C22710969   6.264   5.628   5.322 -0.2735  0.5771  0.0891
   42MOL   H22810970   6.323   5.646   5.531  0.9270  1.4366  0.6250
   42MOL   H22910971   6.531   5.727   5.318  1.6444 -1.8428 -0.8232
   42MOL   H23010972   6.571   5.669   5.625  3.5339  1.7758  2.3061
   42MOL   H23110973   6.687   5.729   5.504 -1.2776 -0.0696 -1.5386
   42MOL   H23210974   6.637   5.498   5.375  2.9968  0.1906  2.1348
   42MOL   H23310975   6.502   5.470   5.497  0.0575  0.9494  0.0063
   42MOL   H23410976   6.282   5.693   5.237  1.6998  1.3642  1.0742
   42MOL   H23510977   6.312   5.532   5.302  0.4396  0.9341  0.0845
   42MOL   C23610978   6.115   5.603   5.354  0.0041 -0.7658  0.3501
   42MOL   C23710979   6.101   5.518   5.477 -0.5561  0.5673  0.7775
   42MOL   C23810980   6.070   5.585   5.610 -0.2936 -0.6164  0.2120
   42MOL   C23910981   5.969   5.499   5.550 -0.0742 -0.0812  0.6568
   42MOL   C24010982   6.034   5.546   5.235  0.2168 -0.0370 -0.2643
   42MOL   H24110983   6.062   5.696   5.373 -3.0751 -2.1718 -0.9484
   42MOL   H24210984   6.163   5.431   5.460  1.3384  1.9705  0.3218
   42MOL   H24310985   6.114   5.558   5.706 -0.4092 -0.5290  0.2905
   42MOL   H24410986   6.048   5.691   5.601 -0.3392 -0.8060 -2.1107
   42MOL   H24510987   5.877   5.539   5.507  2.2115  3.1329 -1.4678
   42MOL   H24610988   5.951   5.410   5.610 -2.2186 -1.2274 -1.5569
   42MOL   H24710989   6.091   5.477   5.173  2.5927  0.0158  1.7793
   42MOL   H24810990   5.948   5.495   5.279  0.1450  0.1351 -0.2042
   42MOL   C24910991   5.972   5.652   5.143 -0.5358  0.9995  0.7064
   42MOL   C25010992   5.860   5.734   5.199 -0.3626 -0.1807 -0.5010
   42MOL   C25110993   5.886   5.865   5.279 -0.1317  0.1007 -0.4346
   42MOL   C25210994   5.822   5.870   5.140  0.3433  0.2173 -0.6328
   42MOL   C25310995   5.955   5.602   4.994  1.1165  0.8643 -0.4538
   42MOL   H25410996   6.053   5.725   5.140 -0.3746  0.8274  0.8554
   42MOL   H25510997   5.766   5.679   5.210 -0.9921  1.3983  2.7947
   42MOL   H25610998   5.829   5.871   5.372 -0.1370  2.1807 -0.5539
   42MOL   H25710999   5.991   5.893   5.282 -0.3259  0.8601 -0.6772
   42MOL   H25811000   5.715   5.889   5.133  0.6473  2.0529 -0.7200
   42MOL   H25911001   5.883   5.906   5.057 -2.3924 -0.7785 -3.1716
   42MOL   H26011002   5.930   5.694   4.941  3.4420  1.5751 -0.3854
   42MOL   H26111003   5.873   5.531   4.991  1.8487  0.0090 -0.5712
   42MOL   H26211004   6.048   5.570   4.946  0.9743 -0.2732  0.0178
   43MOL     C111005   2.876   7.381   2.180  0.2960 -0.4435 -0.5809
   43MOL     C211006   2.910   7.502   2.093  0.5406 -0.6063  0.2519
   43MOL     C311007   3.043   7.577   2.085  0.3078  0.7511  0.0555
   43MOL     C411008   2.923   7.637   2.165  0.7070  0.3013  0.3816
   43MOL     C511009   2.948   7.253   2.133 -0.0716  0.1495  0.1610
   43MOL     H611010   2.910   7.405   2.281 -0.5440 -0.2577 -0.3378
   43MOL     H711011   2.845   7.501   2.005 -2.2498 -0.0987  2.2323
   43MOL     H811012   3.122   7.534   2.145  1.2404  0.7897 -1.1351
   43MOL     H911013   3.070   7.636   1.998  0.8811 -0.5108 -0.6283
   43MOL    H1011014   2.868   7.721   2.124  0.8311 -0.5817 -1.6455
   43MOL    H1111015   2.931   7.635   2.273 -1.4859 -0.3835  0.5625
   43MOL    H1211016   3.057   7.266   2.133  0.1533 -1.4168 -1.9853
   43MOL    H1311017   2.917   7.241   2.029 -1.6365 -0.1763  0.6515
   43MOL    H1411018   2.768   7.368   2.184  0.3085 -0.0677  3.1543
   43MOL    C1511019   2.906   7.123   2.200  0.3215  0.7127  0.9808
   43MOL    C1611020   2.970   7.002   2.119 -0.1071 -0.0319 -0.2066
   43MOL    C1711021   2.975   6.859   2.182  0.3624 -0.7242  0.7020
   43MOL    C1811022   3.103   6.940   2.150 -0.1260 -0.4401 -0.7153
   43MOL    C1911023   2.927   7.120   2.358  0.1783  1.4565 -0.0757
   43MOL    H2011024   2.800   7.101   2.189  0.7243 -1.3094  0.8894
   43MOL    H2111025   2.950   7.006   2.012 -1.1283 -1.1736 -0.0686
   43MOL    H2211026   2.944   6.781   2.113 -3.2649 -0.1724  1.6409
   43MOL    H2311027   2.957   6.834   2.286 -0.7235  2.0685  1.2299
   43MOL    H2411028   3.157   6.972   2.239  0.1625  0.9249 -1.3724
   43MOL    H2511029   3.151   6.914   2.056 -1.3592  0.7241 -1.6789
   43MOL    H2611030   3.024   7.162   2.384  1.4909 -1.7814  0.5029
   43MOL    H2711031   2.959   7.022   2.393 -1.8618 -0.2200 -2.6635
   43MOL    C2811032   2.820   7.187   2.447 -0.1526 -0.1710 -0.5739
   43MOL    C2911033   2.874   7.211   2.588 -0.2013 -0.6823 -0.1552
   43MOL    C3011034   2.991   7.306   2.622 -0.5878 -0.0464  0.0385
   43MOL    C3111035   2.849   7.342   2.668  0.3309  0.3598  0.1200
   43MOL    C3211036   2.686   7.108   2.459 -0.3651 -0.3711  0.0222
   43MOL    H3311037   2.798   7.282   2.399  0.6806 -0.0618 -0.7502
   43MOL    H3411038   2.876   7.117   2.642 -1.8228 -1.7380 -1.8770
   43MOL    H3511039   3.035   7.366   2.543  0.2866 -1.8817 -0.9141
   43MOL    H3611040   3.055   7.267   2.700 -1.9417 -0.1775  1.1140
   43MOL    H3711041   2.794   7.423   2.621  0.4509 -0.1536 -0.9262
   43MOL    H3811042   2.844   7.339   2.777 -3.0583  0.4805  0.0062
   43MOL    H3911043   2.687   7.044   2.547 -0.5724  0.6985  0.8127
   43MOL    H4011044   2.692   7.030   2.383  3.1648 -1.4282  1.2725
   43MOL    C4111045   2.559   7.197   2.452  0.1456 -0.1099 -0.4464
   43MOL    C4211046   2.461   7.125   2.542 -0.9018  0.1382  0.0196
   43MOL    C4311047   2.361   7.208   2.627  0.4905  0.3144  0.1962
   43MOL    C4411048   2.465   7.130   2.698  0.0203 -1.1751 -0.4656
   43MOL    C4511049   2.505   7.210   2.311  0.7834  0.0593  0.2525
   43MOL    H4611050   2.571   7.293   2.502  0.3530  0.0065 -0.7194
   43MOL    H4711051   2.418   7.035   2.497 -0.2385 -0.8018  1.2180
   43MOL    H4811052   2.366   7.317   2.625 -1.2774  0.4403  1.4548
   43MOL    H4911053   2.260   7.175   2.647  0.8893 -0.8065  0.3996
   43MOL    H5011054   2.437   7.036   2.747 -1.6835 -0.6542 -0.3888
   43MOL    H5111055   2.537   7.197   2.744 -0.3918 -1.0173 -0.0437
   43MOL    H5211056   2.444   7.121   2.293  1.9218 -0.8303  0.7736
   43MOL    H5311057   2.593   7.206   2.247 -0.5440 -2.3708 -1.5150
   43MOL    C5411058   2.438   7.350   2.277 -0.5957 -0.0235 -0.0214
   43MOL    C5511059   2.520   7.479   2.303 -0.3685 -0.1135 -0.2636
   43MOL    C5611060   2.529   7.540   2.438 -0.2389  0.1532 -0.5609
   43MOL    C5711061   2.454   7.612   2.335 -0.6880 -0.3987  0.1562
   43MOL    C5811062   2.366   7.351   2.138 -0.4595  0.2832  0.1435
   43MOL    H5911063   2.354   7.346   2.346 -0.5865 -0.7005 -0.0463
   43MOL    H6011064   2.614   7.490   2.249 -1.6338  3.2619 -1.8363
   43MOL    H6111065   2.472   7.495   2.518 -0.1322 -0.1330 -0.6442
   43MOL    H6211066   2.629   7.570   2.468 -0.8381  2.0786 -0.4527
   43MOL    H6311067   2.500   7.697   2.285 -1.6757  1.2197  1.9289
   43MOL    H6411068   2.345   7.616   2.340 -0.6831  3.0015 -1.2619
   43MOL    H6511069   2.288   7.275   2.137 -0.3896  0.1968  1.2766
   43MOL    H6611070   2.298   7.435   2.145 -1.7364 -0.9266  2.9089
   43MOL    C6711071   2.446   7.337   2.003 -0.1643  0.4655 -0.2161
   43MOL    C6811072   2.450   7.193   1.958  0.2831  0.4448  0.3302
   43MOL    C6911073   2.528   7.137   1.840 -0.5255 -0.1381  0.2300
   43MOL    C7011074   2.553   7.089   1.986 -0.8695 -0.2326  0.6840
   43MOL    C7111075   2.397   7.435   1.895  0.3273 -0.5260 -0.1283
   43MOL    H7211076   2.549   7.364   2.028 -0.7347  1.7225  0.8387
   43MOL    H7311077   2.345   7.163   1.958 -0.5707  3.2889  0.2210
   43MOL    H7411078   2.468   7.083   1.766 -1.2276  2.7833 -1.4255
   43MOL    H7511079   2.612   7.198   1.807  0.8230 -1.5800  0.9289
   43MOL    H7611080   2.647   7.125   2.028 -1.0229  1.6875 -0.5317
   43MOL    H7711081   2.509   7.006   2.040 -0.8363 -0.4548  0.3687
   43MOL    H7811082   2.349   7.518   1.948 -0.5991 -1.1382  0.0127
   43MOL    H7911083   2.314   7.398   1.835 -1.5821  2.5385  0.5062
   43MOL    C8011084   2.504   7.490   1.801  0.3172  0.5201  0.1535
   43MOL    C8111085   2.557   7.630   1.843 -0.1776  0.5104 -0.4589
   43MOL    C8211086   2.704   7.666   1.840 -0.5702 -0.1361 -0.2212
   43MOL    C8311087   2.638   7.635   1.970  0.4094  0.3978  0.6901
   43MOL    C8411088   2.446   7.503   1.656 -0.3658  0.1762  0.0401
   43MOL    H8511089   2.586   7.419   1.790 -0.4979 -0.2036 -1.3880
   43MOL    H8611090   2.481   7.705   1.823  1.0769  1.5835 -1.2744
   43MOL    H8711091   2.736   7.770   1.827 -2.2228  0.3002 -0.8354
   43MOL    H8811092   2.777   7.593   1.804  0.0953  0.3523  0.1182
   43MOL    H8911093   2.657   7.537   2.013 -3.1939 -0.6071  0.2277
   43MOL    H9011094   2.644   7.719   2.038 -2.7042  0.6283  0.7724
   43MOL    H9111095   2.378   7.422   1.628 -1.4088 -0.0423  2.9936
   43MOL    H9211096   2.374   7.585   1.656 -0.1720  0.3550 -1.0096
   43MOL    C9311097   2.551   7.515   1.539  0.4917 -0.6552  0.6020
   43MOL    C9411098   2.627   7.388   1.517  0.4230  0.4645 -0.0788
   43MOL    C9511099   2.750   7.392   1.437  0.4677 -0.0274 -0.0426
   43MOL    C9611100   2.749   7.351   1.580 -0.6704  0.4190 -0.0301
   43MOL    C9711101   2.484   7.559   1.408  0.7045  0.7546  0.0173
   43MOL    H9811102   2.623   7.591   1.570 -1.1258  1.8854 -1.7435
   43MOL    H9911103   2.566   7.308   1.476  0.7283  1.9638 -3.6866
   43MOL   H10011104   2.782   7.312   1.370 -0.0614 -0.0140 -0.3138
   43MOL   H10111105   2.802   7.487   1.422  0.4676 -0.1353 -0.7838
   43MOL   H10211106   2.769   7.246   1.603  0.5110  0.2569 -1.7445
   43MOL   H10311107   2.794   7.416   1.655 -1.0540 -1.7938  2.1990
   43MOL   H10411108   2.404   7.487   1.390  1.0220  0.4073  0.0070
   43MOL   H10511109   2.547   7.536   1.323 -2.0101  0.6811 -2.0441
   43MOL   C10611110   2.442   7.711   1.408 -0.3144  0.4783 -0.6753
   43MOL   C10711111   2.563   7.798   1.391  0.8445 -0.1737 -0.5888
   43MOL   C10811112   2.555   0.104   1.436 -0.0769  0.7075 -0.0846
   43MOL   C10911113   2.647   0.005   1.510 -0.4435  0.5083 -0.5337
   43MOL   C11011114   2.341   7.726   1.288 -0.0451 -0.2441 -0.3815
   43MOL   H11111115   2.394   7.743   1.501  1.0418 -3.4581  1.4710
   43MOL   H11211116   2.615   7.789   1.296 -0.0456  1.9332 -1.2973
   43MOL   H11311117   2.617   0.179   1.388 -0.5305  0.8658 -0.4219
   43MOL   H11411118   2.474   0.138   1.501 -0.4628  1.8025 -1.1219
   43MOL   H11511119   2.755   0.007   1.494 -0.3066 -0.5668  0.2015
   43MOL   H11611120   2.617   7.818   1.612  2.0095  0.4103  0.2012
   43MOL   H11711121   2.391   7.686   1.199 -0.8457  0.7463 -1.2928
   43MOL   H11811122   2.260   7.656   1.308 -0.0731 -0.5847 -1.6454
   43MOL   C11911123   2.292   0.034   1.254 -0.1880  0.3477  0.6256
   43MOL   C12011124   2.246   0.038   1.111  0.0171 -0.3993 -0.3996
   43MOL   C12111125   2.339   0.044   0.991 -0.2038 -0.1002  0.0297
   43MOL   C12211126   2.255   0.167   1.029  0.0091  0.3907  0.2830
   43MOL   C12311127   2.188   0.081   1.361  0.1532  0.2013  0.3127
   43MOL   H12411128   2.379   0.100   1.248  2.0418 -2.1231  3.5887
   43MOL   H12511129   2.151   7.824   1.102 -0.0249 -0.7411  1.7413
   43MOL   H12611130   2.321   7.819   0.905 -1.9378 -1.6988  1.5491
   43MOL   H12711131   2.442   0.051   1.026  0.2444  1.5623 -1.5005
   43MOL   H12811132   2.307   0.257   1.061 -1.5803  1.4944 -0.2009
   43MOL   H12911133   2.166   0.190   0.971 -0.1280  0.5592  0.5604
   43MOL   H13011134   2.109   0.007   1.350  1.9459 -1.9957  1.7940
   43MOL   H13111135   2.228   0.070   1.461 -0.5159  2.2963  0.8555
   43MOL   C13211136   2.119   0.219   1.349 -0.0172  0.5857  0.0052
   43MOL   C13311137   2.203   0.310   1.433 -0.3473 -0.3257 -0.0787
   43MOL   C13411138   2.227   0.454   1.392 -0.0372  0.2145  0.4088
   43MOL   C13511139   2.343   0.355   1.389  0.2782 -0.8154  0.6409
   43MOL   C13611140   1.980   0.221   1.407  0.4395 -1.0450  0.3183
   43MOL   H13711141   2.122   0.251   1.245  0.6352  1.2197  0.2113
   43MOL   H13811142   2.195   0.299   1.541 -1.4271  1.8660  0.0966
   43MOL   H13911143   2.187   0.487   1.296  0.4646 -2.5210 -0.7923
   43MOL   H14011144   2.211   0.523   1.474  1.3524 -0.2578  1.0861
   43MOL   H14111145   2.378   0.317   1.293 -1.4151  1.4596 -0.9174
   43MOL   H14211146   2.419   0.356   1.467 -0.8294  1.0859  1.7195
   43MOL   H14311147   1.929   0.127   1.386 -2.3476  0.4379  0.1938
   43MOL   H14411148   1.983   0.224   1.516 -0.9827 -0.1509  0.3386
   43MOL   C14511149   1.894   0.337   1.349 -0.3812 -0.2231 -0.3739
   43MOL   C14611150   1.854   0.283   1.213 -0.1108  0.3903  0.1817
   43MOL   C14711151   1.786   0.375   1.117  0.5648  0.4244 -0.3683
   43MOL   C14811152   1.927   0.325   1.090 -0.1804 -0.3543  0.4019
   43MOL   C14911153   1.763   0.381   1.423 -0.2059  0.4514 -0.1771
   43MOL   H15011154   1.955   0.426   1.333  0.7159 -0.8047  0.4834
   43MOL   H15111155   1.828   0.178   1.214 -0.7038  0.5170 -0.8420
   43MOL   H15211156   1.700   0.333   1.064  1.3721 -0.3726 -1.0636
   43MOL   H15311157   1.774   0.480   1.144  0.5516  0.1363  0.7455
   43MOL   H15411158   2.012   0.388   1.114  0.2066 -0.9410  0.5939
   43MOL   H15511159   1.939   0.252   1.010 -0.1411  0.9239 -0.7656
   43MOL   H15611160   1.720   0.450   1.350 -1.8803 -0.1742  0.2022
   43MOL   H15711161   1.696   0.295   1.432  1.1525 -0.5493  0.4899
   43MOL   C15811162   1.775   0.448   1.559 -0.2980  0.0464  0.1874
   43MOL   C15911163   1.639   0.492   1.613 -0.3258  0.4231 -0.2073
   43MOL   C16011164   1.541   0.377   1.653 -0.4527 -0.2145  0.1069
   43MOL   C16111165   1.597   0.470   1.760  0.1416 -0.0003  0.5812
   43MOL   C16211166   1.882   0.566   1.562  0.1117  0.4848  0.5343
   43MOL   H16311167   1.802   0.368   1.628 -0.3582  0.1368  0.3176
   43MOL   H16411168   1.602   0.580   1.561  1.2222  0.7909 -0.6988
   43MOL   H16511169   1.567   0.271   1.653  0.5262  0.0146  1.1230
   43MOL   H16611170   1.437   0.399   1.631 -0.1034 -1.1833 -2.7572
   43MOL   H16711171   1.533   0.549   1.800  0.5231  0.8074 -0.3824
   43MOL   H16811172   1.661   0.421   1.832 -1.9650 -0.9458  1.8743
   43MOL   H16911173   1.839   0.647   1.505 -1.5208  1.6024  3.2709
   43MOL   H17011174   1.979   0.536   1.522 -0.3201 -0.4762  0.1820
   43MOL   C17111175   1.920   0.617   1.699  0.0941  0.2121  0.6473
   43MOL   C17211176   2.010   0.521   1.773 -0.0057  0.1648  0.1158
   43MOL   C17311177   2.027   0.526   1.924  0.3201  0.6554  0.1244
   43MOL   C17411178   1.963   0.405   1.864  0.2478 -0.3674 -0.7473
   43MOL   C17511179   1.987   0.761   1.682  0.6549 -0.1133 -0.1768
   43MOL   H17611180   1.828   0.629   1.757 -0.8485 -2.2566 -0.2943
   43MOL   H17711181   2.106   0.500   1.727  0.4915  0.0607  1.1652
   43MOL   H17811182   2.124   0.507   1.971 -0.5775  3.0120  3.0882
   43MOL   H17911183   1.972   0.602   1.978  0.6969  2.1445 -1.5308
   43MOL   H18011184   1.856   0.392   1.876  0.4388 -0.0992  1.4777
   43MOL   H18111185   2.029   0.319   1.872 -0.1304 -0.5958 -0.0607
   43MOL   H18211186   2.047   0.752   1.591  0.1549  2.9413 -0.8597
   43MOL   H18311187   2.059   0.777   1.762  1.3666  0.0108 -0.8336
   43MOL   C18411188   1.881   0.880   1.682  0.1067 -0.3851 -0.1740
   43MOL   C18511189   1.940   1.015   1.647 -0.1778  0.8691  0.9161
   43MOL   C18611190   1.890   1.100   1.538  0.4189 -0.3043 -0.3962
   43MOL   C18711191   2.022   1.028   1.520  0.1593 -0.1123 -0.4714
   43MOL   C18811192   1.827   0.888   1.827  0.4831 -0.2375  0.8536
   43MOL   H18911193   1.793   0.857   1.622 -0.7609 -0.9189  1.2834
   43MOL   H19011194   1.980   1.069   1.733  0.5703  2.1217 -0.2120
   43MOL   H19111195   1.876   1.207   1.553 -1.5034 -0.5075 -0.5748
   43MOL   H19211196   1.803   1.059   1.488 -0.5146  1.0482  0.1011
   43MOL   H19311197   2.119   1.078   1.518  0.1054 -0.0698 -2.2591
   43MOL   H19411198   2.027   0.936   1.463  0.8992  0.9183 -2.1258
   43MOL   H19511199   1.891   0.954   1.885  0.0776  0.2928  0.6945
   43MOL   H19611200   1.826   0.795   1.884  0.3336 -0.4766  0.4614
   43MOL   C19711201   1.690   0.965   1.831  0.3008 -0.4016  0.1502
   43MOL   C19811202   1.687   1.075   1.927  0.2983  0.0470 -0.1823
   43MOL   C19911203   1.631   1.219   1.910  0.7843  0.2203  0.2781
   43MOL   C20011204   1.781   1.194   1.924 -0.5989  0.0058  0.2650
   43MOL   C20111205   1.571   0.880   1.857 -0.4800 -0.1928  1.1221
   43MOL   H20211206   1.671   1.018   1.738  0.6466 -0.8086 -0.1557
   43MOL   H20311207   1.671   1.038   2.028 -1.0213  1.3785  0.1077
   43MOL   H20411208   1.590   1.256   1.817  1.3922  1.2769  0.4126
   43MOL   H20511209   1.587   1.268   1.997  2.3902  1.7494  0.2679
   43MOL   H20611210   1.852   1.206   1.843  0.8707 -0.4313  1.4653
   43MOL   H20711211   1.818   1.218   2.024  0.8516  0.9395 -0.4897
   43MOL   H20811212   1.580   0.798   1.786 -3.4320  0.0481  0.3769
   43MOL   H20911213   1.572   0.846   1.961  1.6293 -0.2109  1.1072
   43MOL   C21011214   1.435   0.937   1.834 -0.1623  0.0372 -0.1230
   43MOL   C21111215   1.384   0.900   1.697 -0.1166 -0.0266  1.1680
   43MOL   C21211216   1.273   0.977   1.620  0.4928  0.1093 -0.3602
   43MOL   C21311217   1.418   0.983   1.567  0.3628 -0.0800 -0.1545
   43MOL   C21411218   1.334   0.898   1.939  0.5488 -0.5051 -0.0218
   43MOL   H21511219   1.449   1.045   1.845  0.9412 -0.1294  0.2381
   43MOL   H21611220   1.380   0.793   1.677 -1.0079 -0.0071  1.2114
   43MOL   H21711221   1.203   0.928   1.553  0.2973 -0.0408 -0.0471
   43MOL   H21811222   1.252   1.079   1.652  1.5987  0.0980  0.4179
   43MOL   H21911223   1.429   0.944   1.466 -0.5787 -1.2845  0.1940
   43MOL   H22011224   1.464   1.080   1.582 -1.8961  1.4805 -2.9646
   43MOL   H22111225   1.298   0.796   1.944  1.1568 -0.7097  0.2468
   43MOL   H22211226   1.376   0.910   2.039 -1.6908  1.2612  0.7647
   43MOL   C22311227   1.208   0.988   1.948  0.0825 -0.3097 -0.3044
   43MOL   C22411228   1.208   1.062   2.079  0.3521 -0.0910  0.0177
   43MOL   C22511229   1.306   1.181   2.090 -0.2006 -0.0053 -0.2540
   43MOL   C22611230   1.159   1.202   2.095  0.3925  0.3165  0.1769
   43MOL   C22711231   1.080   0.906   1.921 -0.4189 -0.3794  0.2373
   43MOL   H22811232   1.225   1.066   1.874  0.8630 -0.0708  0.1201
   43MOL   H22911233   1.181   0.998   2.163  2.3479 -0.2793  0.5397
   43MOL   H23011234   1.346   1.235   2.004  0.1293  0.9615  0.4985
   43MOL   H23111235   1.353   1.185   2.188 -0.6261  1.1874 -0.0971
   43MOL   H23211236   1.126   1.225   2.196  0.2318 -3.0281  0.9607
   43MOL   H23311237   1.124   1.265   2.014 -0.0533 -1.5428 -1.1208
   43MOL   H23411238   1.089   0.839   1.836 -0.1967  0.9028 -0.7706
   43MOL   H23511239   1.084   0.840   2.008  0.5616 -0.4813  0.1250
   43MOL   C23611240   0.950   0.979   1.908 -0.2339  0.3773  0.0499
   43MOL   C23711241   0.838   0.886   1.929 -0.2928  0.5345  0.8189
   43MOL   C23811242   0.806   0.823   2.051  0.1017  0.2873  0.1399
   43MOL   C23911243   0.710   0.937   1.996 -0.3347  0.2150  0.2801
   43MOL   C24011244   0.939   1.061   1.777  0.0075  0.7162  0.3830
   43MOL   H24111245   0.959   1.057   1.984 -1.4284  2.5829 -2.0000
   43MOL   H24211246   0.820   0.818   1.846 -1.5999  0.6812  0.9666
   43MOL   H24311247   0.765   0.722   2.051  1.0644 -0.1055 -1.0480
   43MOL   H24411248   0.855   0.848   2.145 -1.3715  0.9583  0.7453
   43MOL   H24511249   0.716   1.030   2.053  0.7385 -0.5786  1.5130
   43MOL   H24611250   0.617   0.890   1.965 -0.0653 -1.5728  2.0291
   43MOL   H24711251   1.030   1.116   1.753 -0.2963  0.7128 -0.8434
   43MOL   H24811252   0.925   0.994   1.692 -0.4833  1.5936 -0.2357
   43MOL   C24911253   0.817   1.159   1.784  0.6079 -0.9255  0.4704
   43MOL   C25011254   0.801   1.219   1.646 -0.5439 -0.4300 -0.3343
   43MOL   C25111255   0.690   1.178   1.556  0.1044  0.4960 -0.2879
   43MOL   C25211256   0.685   1.311   1.618 -0.0454 -0.1400 -0.0102
   43MOL   C25311257   0.853   1.263   1.882  0.2725  0.0970 -0.2773
   43MOL   H25411258   0.721   1.113   1.808  0.0132  0.4685  0.8236
   43MOL   H25511259   0.899   1.248   1.610 -0.0241 -1.1794  0.4560
   43MOL   H25611260   0.710   1.169   1.449 -0.8569 -0.0448 -0.4312
   43MOL   H25711261   0.611   1.113   1.593  0.1401  0.8604  0.4417
   43MOL   H25811262   0.690   1.397   1.550  0.0035 -0.1411 -0.0076
   43MOL   H25911263   0.603   1.326   1.688 -0.4658 -1.9806 -0.0829
   43MOL   H26011264   0.839   1.223   1.982  0.1272  1.3090  0.1964
   43MOL   H26111265   0.795   1.355   1.872  0.9513  0.8871  2.6536
   43MOL   H26211266   0.956   1.295   1.868  0.2592 -0.5199 -1.9045
   44MOL     C111267   2.130   1.838   3.806 -0.0607 -0.3896 -0.0160
   44MOL     C211268   2.151   1.836   3.657  0.0945 -0.0271  0.0402
   44MOL     C311269   2.156   1.709   3.574 -0.2220  0.7590  0.0424
   44MOL     C411270   2.283   1.789   3.610 -0.0628  0.2417  0.4752
   44MOL     C511271   1.991   1.801   3.855  0.0894  0.0640  0.3859
   44MOL     H611272   2.189   1.756   3.848  0.4302 -0.4713 -0.8476
   44MOL     H711273   2.109   1.926   3.611 -3.1082 -0.2575  2.3155
   44MOL     H811274   2.136   1.620   3.634  0.8982  0.0171 -0.6571
   44MOL     H911275   2.109   1.703   3.476  1.1544  0.4860 -0.6000
   44MOL    H1011276   2.320   1.837   3.519  1.0373  1.8145  1.7292
   44MOL    H1111277   2.353   1.742   3.679  0.3092  1.7933  1.1817
   44MOL    H1211278   1.948   1.731   3.783  0.1384  0.3595  0.0699
   44MOL    H1311279   1.927   1.890   3.847 -0.9990 -0.6553  0.9621
   44MOL    H1411280   2.171   1.934   3.839 -0.7960 -0.0064 -0.2065
   44MOL    C1511281   1.984   1.742   4.000 -0.3889 -0.1732  1.2784
   44MOL    C1611282   2.028   1.846   4.107 -0.5107  0.4154 -0.4781
   44MOL    C1711283   2.166   1.902   4.118  0.1877 -0.1439  0.0780
   44MOL    C1811284   2.116   1.813   4.233 -0.1648 -0.3643  0.1267
   44MOL    C1911285   1.855   1.662   4.026 -0.7959  0.3621 -0.2712
   44MOL    H2011286   2.056   1.661   3.989 -0.3816 -0.1296  0.9963
   44MOL    H2111287   1.950   1.920   4.125  2.1792  2.2758  4.4453
   44MOL    H2211288   2.178   2.008   4.139 -0.1368 -0.1288  0.1768
   44MOL    H2311289   2.242   1.864   4.049 -0.4966  0.5655 -1.0890
   44MOL    H2411290   2.174   1.722   4.242  0.1479 -0.1704  0.0787
   44MOL    H2511291   2.087   1.857   4.328  0.7466  0.3239  0.0963
   44MOL    H2611292   1.862   1.609   4.120  1.2857  0.5169 -0.3148
   44MOL    H2711293   1.832   1.591   3.947  1.7616 -0.5110 -0.2559
   44MOL    C2811294   1.724   1.757   4.032  1.0865  0.5723  0.4562
   44MOL    C2911295   1.644   1.732   4.153  0.3205  0.2122  0.0506
   44MOL    C3011296   1.692   1.794   4.283 -0.1019 -0.0293 -0.4509
   44MOL    C3111297   1.568   1.839   4.213 -0.2913 -0.2890 -0.0123
   44MOL    C3211298   1.649   1.736   3.902 -0.3369  0.5291  0.7308
   44MOL    H3311299   1.757   1.860   4.033  0.5381  0.7486  0.3464
   44MOL    H3411300   1.583   1.641   4.155 -1.0652  1.1353  0.7300
   44MOL    H3511301   1.786   1.849   4.282  1.0008 -1.8415  0.2636
   44MOL    H3611302   1.666   1.746   4.377  0.8769  1.7139  0.7254
   44MOL    H3711303   1.561   1.939   4.171 -2.7192  0.1116  1.2588
   44MOL    H3811304   1.485   1.804   4.275  0.6413  0.4567  1.6997
   44MOL    H3911305   1.621   1.631   3.888 -1.8766  0.6512  2.7611
   44MOL    H4011306   1.726   1.747   3.825  0.7017  1.9029  1.9523
   44MOL    C4111307   1.519   1.824   3.880  0.6121 -0.5230 -0.0632
   44MOL    C4211308   1.412   1.733   3.836 -0.2354 -0.2839 -0.0215
   44MOL    C4311309   1.258   1.763   3.843  0.6143  0.1184 -0.5529
   44MOL    C4411310   1.335   1.677   3.951 -0.8643 -0.9627  0.1578
   44MOL    C4511311   1.533   1.938   3.773  0.6749 -0.1746 -0.5820
   44MOL    H4611312   1.494   1.879   3.971 -1.8125  1.6510 -1.9760
   44MOL    H4711313   1.433   1.684   3.741  0.3984  3.0112 -1.6446
   44MOL    H4811314   1.234   1.866   3.869 -3.0195 -1.1994  1.5977
   44MOL    H4911315   1.200   1.715   3.765  0.1247 -0.0788 -0.0701
   44MOL    H5011316   1.335   1.569   3.951 -2.0812 -0.9790  1.8794
   44MOL    H5111317   1.373   1.713   4.047 -0.1632 -2.0772  0.3050
   44MOL    H5211318   1.436   1.980   3.745  1.4741  1.2274 -1.2650
   44MOL    H5311319   1.567   1.900   3.677 -2.5959 -0.3513 -1.7319
   44MOL    C5411320   1.634   2.045   3.816  0.1496 -0.3317 -0.2624
   44MOL    C5511321   1.683   2.120   3.688  0.6801 -0.3669 -0.8937
   44MOL    C5611322   1.760   2.041   3.586 -0.6687  0.1983  0.1446
   44MOL    C5711323   1.832   2.144   3.666 -0.5350  0.0069 -1.0361
   44MOL    C5811324   1.558   2.141   3.920  0.0360 -0.3334 -0.0654
   44MOL    H5911325   1.722   2.004   3.866  1.0364  1.5138 -0.2488
   44MOL    H6011326   1.619   2.200   3.650  0.6867  0.5469  0.9450
   44MOL    H6111327   1.779   1.936   3.605  0.8348  0.3947 -0.2571
   44MOL    H6211328   1.734   2.057   3.482 -1.3284  1.8690  0.5455
   44MOL    H6311329   1.857   2.235   3.612 -0.4048  1.7228  1.8009
   44MOL    H6411330   1.895   2.100   3.743 -0.9280  0.0711 -0.6692
   44MOL    H6511331   1.482   2.192   3.861 -0.4930 -1.7220 -0.5994
   44MOL    H6611332   1.514   2.079   3.998 -0.7166  2.2368  1.6245
   44MOL    C6711333   1.656   2.247   3.981 -1.1136  0.1896  0.3258
   44MOL    C6811334   1.578   2.376   4.018  0.1492  0.8388 -0.8605
   44MOL    C6911335   1.633   2.516   4.020 -0.1534 -0.5511  0.4051
   44MOL    C7011336   1.541   2.468   3.913 -0.1914  0.0455  0.8099
   44MOL    C7111337   1.727   2.187   4.100 -0.6323 -0.9927  0.0725
   44MOL    H7211338   1.731   2.277   3.909  0.6081  0.6949  2.2814
   44MOL    H7311339   1.513   2.367   4.104  1.9866  0.8009  0.5541
   44MOL    H7411340   1.597   2.577   4.102 -1.4904 -1.3467  0.4247
   44MOL    H7511341   1.740   2.528   4.002  0.0301 -4.1933 -1.5673
   44MOL    H7611342   1.587   2.451   3.816 -1.8045 -1.3212  0.2625
   44MOL    H7711343   1.439   2.501   3.924  0.0517  0.3805  2.1819
   44MOL    H7811344   1.762   2.088   4.071  2.1672  0.4048 -1.5272
   44MOL    H7911345   1.658   2.177   4.184 -2.0460 -1.3740 -1.1035
   44MOL    C8011346   1.853   2.263   4.163  0.4127 -0.2064  0.5345
   44MOL    C8111347   1.970   2.251   4.065  0.2547 -0.1987  0.2477
   44MOL    C8211348   2.092   2.336   4.092 -0.2288  0.6056  0.1640
   44MOL    C8311349   2.009   2.344   3.960 -0.4367  0.1898  1.1025
   44MOL    C8411350   1.891   2.203   4.298  0.2868  0.1296  0.1663
   44MOL    H8511351   1.828   2.369   4.169 -0.9780 -0.2413 -3.1206
   44MOL    H8611352   1.980   2.155   4.015  0.5043  0.1183 -0.3146
   44MOL    H8711353   2.191   2.295   4.072  1.1312  2.5311  2.6241
   44MOL    H8811354   2.087   2.428   4.150  1.0802  1.0031 -0.3262
   44MOL    H8911355   1.944   2.429   3.941 -0.8543  0.0131  1.7265
   44MOL    H9011356   2.057   2.300   3.873  0.7720  0.9338  1.3797
   44MOL    H9111357   1.879   2.094   4.302  4.2481 -0.3485  1.0760
   44MOL    H9211358   1.999   2.204   4.300  0.3182  1.4318 -1.2731
   44MOL    C9311359   1.821   2.273   4.418 -0.1437  0.3178 -0.3688
   44MOL    C9411360   1.679   2.220   4.436  0.1037  0.4055 -0.2207
   44MOL    C9511361   1.596   2.301   4.532  0.3839 -0.7956 -0.4320
   44MOL    C9611362   1.569   2.308   4.389  0.1376  0.1148 -0.2480
   44MOL    C9711363   1.900   2.249   4.550  0.6751  0.7571  0.0922
   44MOL    H9811364   1.817   2.381   4.407  0.4508  0.0732 -3.4834
   44MOL    H9911365   1.657   2.114   4.429  2.7786 -0.3040  1.3772
   44MOL   H10011366   1.528   2.239   4.590 -0.6305  1.0795  0.4402
   44MOL   H10111367   1.636   2.385   4.589 -1.9100 -1.2538  1.9334
   44MOL   H10211368   1.482   2.251   4.356  0.6217 -0.6015 -0.2898
   44MOL   H10311369   1.585   2.404   4.340  0.1738 -0.0942 -0.6483
   44MOL   H10411370   1.921   2.144   4.570  2.4262  0.6265 -2.2236
   44MOL   H10511371   1.836   2.274   4.635  0.3228 -0.6046  0.2273
   44MOL   C10611372   2.035   2.329   4.568  0.1812  0.1608 -0.3084
   44MOL   C10711373   2.009   2.462   4.628  0.4769 -0.4484  0.3242
   44MOL   C10811374   2.114   2.574   4.638  0.6557  0.1076 -0.5725
   44MOL   C10911375   2.002   2.582   4.536 -0.1395 -0.3043  0.0931
   44MOL   C11011376   2.131   2.257   4.659 -0.0773 -0.7130 -0.7751
   44MOL   H11111377   2.081   2.344   4.471  0.3735  0.3427 -0.1877
   44MOL   H11211378   1.926   2.466   4.699  1.0366  2.6139  0.9123
   44MOL   H11311379   2.119   2.630   4.731  3.1470  2.2423 -1.9123
   44MOL   H11411380   2.214   2.534   4.621 -0.2944 -2.0658 -1.1536
   44MOL   H11511381   2.036   2.574   4.433 -1.1390 -1.0959 -0.1821
   44MOL   H11611382   1.922   2.653   4.552  0.2189 -0.3365  2.1023
   44MOL   H11711383   2.213   2.322   4.690  0.1526 -1.4089  0.1140
   44MOL   H11811384   2.090   2.224   4.755  1.2718 -0.3997 -0.0626
   44MOL   C11911385   2.193   2.132   4.601 -0.2112 -0.1146  0.3316
   44MOL   C12011386   2.318   2.162   4.520 -0.3230  0.0774  0.3295
   44MOL   C12111387   2.319   2.180   4.366  0.0728  0.1244 -0.8154
   44MOL   C12211388   2.368   2.055   4.431 -0.6657 -0.2501  0.0153
   44MOL   C12311389   2.223   2.022   4.709 -0.7975  0.2814 -0.3722
   44MOL   H12411390   2.127   2.088   4.527  0.7736  0.1297 -0.6931
   44MOL   H12511391   2.393   2.219   4.573 -0.1186  2.1444 -2.0952
   44MOL   H12611392   2.390   2.246   4.317 -0.8589  0.7718 -1.2998
   44MOL   H12711393   2.231   2.159   4.306 -0.7148 -2.1442  1.0741
   44MOL   H12811394   2.305   1.966   4.430 -3.1254  1.4562 -2.0619
   44MOL   H12911395   2.475   2.034   4.428 -0.8860 -1.9037  2.4268
   44MOL   H13011396   2.301   1.957   4.669  0.1035  0.9792  0.2199
   44MOL   H13111397   2.276   2.060   4.796 -0.4761  0.0178 -0.4511
   44MOL   C13211398   2.104   1.944   4.759 -0.6626 -0.4208 -0.5348
   44MOL   C13311399   2.148   1.856   4.879 -0.8272  0.2135  0.4887
   44MOL   C13411400   2.046   1.802   4.981 -0.7950  0.2157 -0.7589
   44MOL   C13511401   2.145   1.912   5.013  1.2181  0.1441 -0.6446
   44MOL   C13611402   2.053   1.845   4.654 -0.4138 -0.0908 -0.0314
   44MOL   H13711403   2.023   2.009   4.791 -0.5056 -0.1885 -0.6081
   44MOL   H13811404   2.223   1.785   4.843 -3.2406 -2.0897 -0.1145
   44MOL   H13911405   1.945   1.842   4.990 -0.0027  1.8368  1.3769
   44MOL   H14011406   2.057   1.702   5.023 -2.8871  0.3770  0.2445
   44MOL   H14111407   2.099   2.010   5.006  0.7656 -0.2150 -2.8647
   44MOL   H14211408   2.222   1.898   5.089  0.6922  0.8813  0.0438
   44MOL   H14311409   2.050   1.906   4.564 -2.7716 -0.7342 -0.4206
   44MOL   H14411410   2.131   1.771   4.637  0.8213  1.3237 -0.6374
   44MOL   C14511411   1.912   1.779   4.675  0.6017 -0.5722  0.4047
   44MOL   C14611412   1.804   1.884   4.655 -0.7181  0.5629  0.0286
   44MOL   C14711413   1.670   1.868   4.721  0.6996  0.1077 -0.0713
   44MOL   C14811414   1.764   1.984   4.763 -0.0783  0.9029 -0.4398
   44MOL   C14911415   1.878   1.662   4.581  0.1396  0.0929 -0.8972
   44MOL   H15011416   1.909   1.740   4.777  1.5615 -0.0116  0.6510
   44MOL   H15111417   1.801   1.920   4.552  0.7475 -1.1215 -0.6376
   44MOL   H15211418   1.576   1.901   4.678  1.2371  0.0438 -1.2882
   44MOL   H15311419   1.659   1.776   4.779 -4.0953  0.9662  0.5540
   44MOL   H15411420   1.817   1.988   4.858  0.9951  0.4109 -1.0091
   44MOL   H15511421   1.732   2.085   4.737 -2.9864  0.0297 -0.3808
   44MOL   H15611422   1.770   1.651   4.575 -0.0163  1.6513 -1.1456
   44MOL   H15711423   1.905   1.688   4.479 -1.0366  1.4003 -0.8970
   44MOL   C15811424   1.945   1.528   4.618  0.4836 -0.2417  0.0319
   44MOL   C15911425   1.901   1.417   4.521 -0.0235  1.2750  0.6042
   44MOL   C16011426   1.961   1.420   4.386 -0.2783  0.4121 -0.2436
   44MOL   C16111427   1.986   1.301   4.481 -0.3820 -0.3559  0.8752
   44MOL   C16211428   1.930   1.480   4.766 -0.3108  0.1679 -0.1195
   44MOL   H16311429   2.049   1.550   4.597  0.1743  3.7362  2.2669
   44MOL   H16411430   1.793   1.406   4.517 -0.0219  1.5949 -0.3362
   44MOL   H16511431   2.051   1.476   4.362  1.3699 -0.1268  4.2603
   44MOL   H16611432   1.890   1.406   4.305 -0.1854  1.6355 -0.5465
   44MOL   H16711433   1.944   1.207   4.448  2.5405 -0.7633 -1.9915
   44MOL   H16811434   2.086   1.298   4.524 -0.7248 -0.0486  1.7111
   44MOL   H16911435   2.007   1.532   4.823  0.3314 -0.0400 -0.7925
   44MOL   H17011436   1.970   1.379   4.763  1.4759  0.7976  1.7218
   44MOL   C17111437   1.793   1.484   4.845  0.5248  0.4472  0.0097
   44MOL   C17211438   1.687   1.412   4.761  0.1893  0.0298 -0.0070
   44MOL   C17311439   1.536   1.416   4.780  0.5003 -0.5752  0.3024
   44MOL   C17411440   1.600   1.481   4.656  0.0094 -0.2372  0.7250
   44MOL   C17511441   1.808   1.430   4.987  0.3903 -0.3128  0.4581
   44MOL   H17611442   1.765   1.589   4.844  0.6480  0.4889  0.5704
   44MOL   H17711443   1.733   1.318   4.730  1.4913  0.0722  1.7101
   44MOL   H17811444   1.484   1.323   4.758  1.2670 -0.6437 -1.3241
   44MOL   H17911445   1.482   1.491   4.836  0.6113 -1.0469  1.0435
   44MOL   H18011446   1.580   1.588   4.647  0.6350 -0.2486 -0.9269
   44MOL   H18111447   1.579   1.425   4.566  0.4386  0.7974 -0.0272
   44MOL   H18211448   1.901   1.462   5.033  0.5750  1.3300 -1.0028
   44MOL   H18311449   1.812   1.323   4.972 -1.0138 -0.1947 -0.9306
   44MOL   C18411450   1.693   1.460   5.089 -0.1090  0.1633  0.3487
   44MOL   C18511451   1.692   1.604   5.142  0.4077  0.1577 -0.5365
   44MOL   C18611452   1.573   1.668   5.196  0.4013 -0.3550  0.0958
   44MOL   C18711453   1.631   1.716   5.057  0.2445  0.2833 -0.3137
   44MOL   C18811454   1.684   1.364   5.210  0.2513 -0.5729  0.1436
   44MOL   H18911455   1.599   1.447   5.034 -0.1335 -0.6224  0.5698
   44MOL   H19011456   1.778   1.631   5.204 -0.2822 -0.2137  0.5956
   44MOL   H19111457   1.584   1.728   5.286  0.6707  1.0675 -0.8651
   44MOL   H19211458   1.491   1.598   5.205 -1.8782  2.1981 -0.2501
   44MOL   H19311459   1.689   1.807   5.048 -1.2693  1.6608  2.9586
   44MOL   H19411460   1.575   1.693   4.967  0.3109  0.6754 -0.4549
   44MOL   H19511461   1.616   1.393   5.290  1.5240 -1.1913  1.4656
   44MOL   H19611462   1.777   1.361   5.267  0.2689  0.3942  0.1724
   44MOL   C19711463   1.641   1.211   5.186  0.2849  0.4351 -0.1265
   44MOL   C19811464   1.499   1.204   5.137  0.1839  0.4240  0.0421
   44MOL   C19911465   1.452   1.071   5.089 -0.1996 -0.4678 -0.1648
   44MOL   C20011466   1.464   1.182   4.992  0.7120 -0.1954 -0.0483
   44MOL   C20111467   1.669   1.127   5.314  0.2037  0.3849 -0.4594
   44MOL   H20211468   1.698   1.169   5.104  0.2088 -0.2251  0.1599
   44MOL   H20311469   1.429   1.275   5.180 -1.5273 -0.7320 -0.8127
   44MOL   H20411470   1.525   0.989   5.093  0.3753  0.1312  3.2377
   44MOL   H20511471   1.352   1.043   5.122 -1.6054  2.2032 -1.9942
   44MOL   H20611472   1.544   1.152   4.924 -0.3084 -0.3283 -1.2104
   44MOL   H20711473   1.370   1.214   4.947  1.6350 -1.2590 -2.8422
   44MOL   H20811474   1.676   1.196   5.397 -0.4536  0.4876 -0.4916
   44MOL   H20911475   1.594   1.051   5.337 -1.0835  1.5979 -0.6024
   44MOL   C21011476   1.799   1.043   5.314  0.0350 -0.0282 -0.3058
   44MOL   C21111477   1.919   1.121   5.274 -0.8243 -0.0313  0.5978
   44MOL   C21211478   2.059   1.061   5.251 -0.3977 -0.6927  0.3547
   44MOL   C21311479   1.980   1.122   5.133  0.8897 -0.2233  0.4547
   44MOL   C21411480   1.824   0.977   5.454  0.5864  0.2597 -0.4849
   44MOL   H21511481   1.789   0.964   5.239 -0.0306  1.7881 -2.2412
   44MOL   H21611482   1.925   1.215   5.329  2.8012  1.0057 -1.3793
   44MOL   H21711483   2.157   1.105   5.259  0.4233 -2.2881 -0.6569
   44MOL   H21811484   2.065   0.953   5.263 -1.2223 -0.9046 -0.9778
   44MOL   H21911485   2.010   1.214   5.083 -1.6269 -0.5217 -1.6710
   44MOL   H22011486   1.933   1.054   5.062  0.4564  0.5519 -0.0065
   44MOL   H22111487   1.926   0.941   5.469 -0.1767 -0.7085  2.7086
   44MOL   H22211488   1.811   1.055   5.529  1.4443 -0.1520  0.0972
   44MOL   C22311489   1.733   0.862   5.494 -0.2690  0.2997 -0.0219
   44MOL   C22411490   1.765   0.837   5.641 -0.4266 -1.0349 -0.8372
   44MOL   C22511491   1.690   0.915   5.752  0.2862  0.1042  0.9629
   44MOL   C22611492   1.675   0.764   5.727 -0.5712  0.1144 -0.4144
   44MOL   C22711493   1.776   0.730   5.420  1.1283 -0.3396 -0.6141
   44MOL   H22811494   1.627   0.878   5.475 -0.1232 -1.3505 -2.3771
   44MOL   H22911495   1.869   0.813   5.663 -0.1281  0.2661 -0.7762
   44MOL   H23011496   1.609   0.985   5.732  0.1167 -0.6314 -0.9904
   44MOL   H23111497   1.745   0.944   5.842  3.0698 -0.8076 -0.4009
   44MOL   H23211498   1.705   0.706   5.814 -2.0978 -1.1265 -0.6993
   44MOL   H23311499   1.595   0.716   5.672  0.1410 -0.7865 -0.6831
   44MOL   H23411500   1.872   0.753   5.373  0.9235 -0.1038 -0.9184
   44MOL   H23511501   1.829   0.659   5.484 -1.7235 -0.4471  1.7256
   44MOL   C23611502   1.675   0.667   5.324  0.6394 -0.0478  0.3170
   44MOL   C23711503   1.535   0.631   5.394  0.2679 -0.0193 -0.4902
   44MOL   C23811504   1.423   0.745   5.399 -0.2687  0.4521 -0.1216
   44MOL   C23911505   1.404   0.622   5.316  0.2484  0.5909  0.1406
   44MOL   C24011506   1.733   0.544   5.246  0.2715 -0.2816 -0.0342
   44MOL   H24111507   1.647   0.741   5.249 -0.3932 -0.9633 -0.2110
   44MOL   H24211508   1.545   0.562   5.477 -0.7644 -0.1272 -0.4485
   44MOL   H24311509   1.365   0.762   5.489 -2.8353 -0.2209 -1.5869
   44MOL   H24411510   1.440   0.835   5.340  0.7916  0.9186  0.8695
   44MOL   H24511511   1.388   0.641   5.210  0.3696 -2.3993 -0.4716
   44MOL   H24611512   1.333   0.552   5.360  0.2471 -0.7842 -1.9533
   44MOL   H24711513   1.780   0.468   5.308 -0.2247  1.3253  2.3726
   44MOL   H24811514   1.654   0.489   5.196 -1.1344  0.9459  0.7948
   44MOL   C24911515   1.838   0.578   5.132  0.1790 -0.8135 -0.1246
   44MOL   C25011516   1.769   0.644   5.006 -0.4097 -0.2645  0.2602
   44MOL   C25111517   1.752   0.790   4.982  0.9211  0.7043 -0.3064
   44MOL   C25211518   1.847   0.706   4.895 -0.3015 -0.8610  0.5996
   44MOL   C25311519   1.923   0.452   5.094  0.0912 -0.2991 -0.2822
   44MOL   H25411520   1.910   0.650   5.170  2.0968 -1.7717 -1.8681
   44MOL   H25511521   1.690   0.576   4.976 -0.6702  0.1181  0.0750
   44MOL   H25611522   1.655   0.826   4.949  0.4137 -1.5475 -1.3820
   44MOL   H25711523   1.800   0.864   5.047  1.1978  0.4511 -0.2214
   44MOL   H25811524   1.813   0.698   4.792 -3.0974  3.5511  1.0587
   44MOL   H25911525   1.955   0.720   4.904 -0.2346  0.8160 -2.2347
   44MOL   H26011526   2.006   0.484   5.031  0.0566 -0.2778 -0.3172
   44MOL   H26111527   1.865   0.376   5.041 -0.9491  1.3544 -1.5865
   44MOL   H26211528   1.975   0.395   5.170  1.9151 -0.6671 -1.7845
   45MOL     C111529   0.319   5.679   0.115 -0.2581 -0.1000 -0.7275
   45MOL     C211530   0.348   5.615   0.256 -0.0861 -0.1196  0.2820
   45MOL     C311531   0.428   5.705   0.356  0.1581 -0.3183  0.3698
   45MOL     C411532   0.494   5.582   0.295 -0.0101 -0.3816  0.7964
   45MOL     C511533   0.181   5.704   0.060  0.0407  0.6959  0.0719
   45MOL     H611534   0.373   5.774   0.106  0.2932 -0.4292 -0.9470
   45MOL     H711535   0.277   5.535   0.273 -0.1145  0.0302  0.8831
   45MOL     H811536   0.457   5.803   0.318 -0.2328 -0.8410 -1.3104
   45MOL     H911537   0.401   5.705   0.461  2.4409  1.3090  0.9945
   45MOL    H1011538   0.510   5.502   0.367 -0.5576 -0.3134  1.0003
   45MOL    H1111539   0.574   5.600   0.223 -0.9818 -1.8536 -0.6926
   45MOL    H1211540   0.130   5.777   0.123 -1.2560  0.6176 -0.8735
   45MOL    H1311541   0.125   5.611   0.071  1.9043 -0.3890  0.6091
   45MOL    H1411542   0.375   5.616   0.045 -0.5083  1.3252 -2.2537
   45MOL    C1511543   0.166   5.740   7.751  0.1088 -0.1026 -0.5199
   45MOL    C1611544   0.208   5.890   7.736 -0.1412 -0.1275 -0.5343
   45MOL    C1711545   0.130   6.013   7.787 -0.4726 -0.2357 -0.2786
   45MOL    C1811546   0.135   5.981   7.637 -0.5760  0.2589  0.3360
   45MOL    C1911547   0.239   5.652   7.652 -0.6451 -0.1372 -0.0770
   45MOL    H2011548   0.058   5.738   7.732 -0.2058  3.0452  0.6095
   45MOL    H2111549   0.316   5.903   7.729 -0.1184 -0.0682 -0.0942
   45MOL    H2211550   0.180   6.106   7.816 -2.5340  1.1949 -1.2049
   45MOL    H2311551   0.048   5.973   0.007 -1.3715  2.9044  0.7298
   45MOL    H2411552   0.035   5.962   7.598 -1.1108 -0.2779  1.9347
   45MOL    H2511553   0.198   6.045   7.576 -2.4467  1.2456 -0.6282
   45MOL    H2611554   0.346   5.671   7.658 -0.7400  0.7164 -0.9088
   45MOL    H2711555   0.220   5.686   7.551 -1.1064 -2.0545 -0.6506
   45MOL    C2811556   0.217   5.497   7.663 -0.3734 -0.1438 -0.1985
   45MOL    C2911557   0.308   5.417   7.581 -0.3539  0.3682 -0.4131
   45MOL    C3011558   0.465   5.429   7.582  0.7683 -0.3206  0.2294
   45MOL    C3111559   0.394   5.318   7.655 -0.4824 -0.1508  0.5068
   45MOL    C3211560   0.072   5.457   7.642  0.4905  0.0914 -0.3838
   45MOL    H3311561   0.238   5.475   7.767  0.3127 -1.5018 -0.6253
   45MOL    H3411562   0.269   5.385   7.484  0.2632 -5.3320  1.0680
   45MOL    H3511563   0.504   5.520   7.627  2.4570 -0.3708 -1.0918
   45MOL    H3611564   0.520   5.404   7.492  0.2527 -1.7047  0.2926
   45MOL    H3711565   0.408   5.310   7.762 -0.1300 -0.7833  0.4167
   45MOL    H3811566   0.396   5.221   7.605 -0.0075 -0.7063  1.5907
   45MOL    H3911567   0.053   5.460   7.534 -0.8205 -1.0757 -0.2136
   45MOL    H4011568   0.007   5.536   7.678 -1.3407 -2.5722  2.4624
   45MOL    C4111569   0.032   5.316   7.684  0.4997  0.1203  0.1927
   45MOL    C4211570   7.736   5.267   7.623  0.5865 -0.7743 -0.1706
   45MOL    C4311571   7.711   5.126   7.593 -0.5047 -0.0969 -0.1105
   45MOL    C4411572   7.721   5.227   7.474  0.2388 -0.0957 -0.6298
   45MOL    C4511573   0.035   5.304   0.003  0.6816  0.0402  0.5090
   45MOL    H4611574   0.107   5.249   7.642 -0.5945 -1.9978  1.5121
   45MOL    H4711575   7.662   5.336   7.664 -0.2185 -1.2313 -0.8593
   45MOL    H4811576   7.800   5.065   7.606 -0.9229 -0.7507 -0.2748
   45MOL    H4911577   7.615   5.074   7.605 -1.4928  1.9634  1.0731
   45MOL    H5011578   7.634   5.264   7.419  0.3839 -1.2340 -1.6296
   45MOL    H5111579   7.810   5.227   7.412 -0.0851  2.8369 -1.1641
   45MOL    H5211580   7.774   5.331   0.034  1.2245  0.7941  1.6129
   45MOL    H5311581   0.095   5.380   0.052  1.2897 -0.5274  0.6619
   45MOL    C5411582   0.048   5.152   0.052  0.1749 -0.1576 -0.2215
   45MOL    C5511583   0.189   5.086   0.015  0.1612 -0.1623 -0.2768
   45MOL    C5611584   0.216   5.003   7.728  0.0185 -0.4151  0.2074
   45MOL    C5711585   0.200   4.925   0.017 -0.0546  0.0969 -0.4689
   45MOL    C5811586   0.023   5.132   0.198  0.5369 -0.2489 -0.1792
   45MOL    H5911587   7.813   5.091   0.001 -2.9322  2.1184  1.3746
   45MOL    H6011588   0.276   5.132   0.060  0.0667 -0.0019 -0.2547
   45MOL    H6111589   0.136   4.991   7.655  0.1913 -0.4657  0.0248
   45MOL    H6211590   0.321   4.999   7.700 -0.1441  0.0128 -0.4871
   45MOL    H6311591   0.289   4.877   0.057 -0.5973 -0.7075 -0.2223
   45MOL    H6411592   0.111   4.865   0.029  0.2857 -0.2406  0.4236
   45MOL    H6511593   0.078   5.051   0.247 -1.5117 -0.4974  1.7780
   45MOL    H6611594   0.058   5.229   0.231 -2.2249  1.1052 -1.1533
   45MOL    C6711595   7.718   5.118   0.252 -0.4489 -0.2136 -0.0540
   45MOL    C6811596   7.649   4.991   0.206 -0.3804 -0.4373 -0.1539
   45MOL    C6911597   7.507   4.986   0.188  1.1240 -0.2715 -0.3773
   45MOL    C7011598   7.596   4.981   0.062  0.4499  0.7325 -0.6717
   45MOL    C7111599   7.725   5.144   0.403  0.6696 -0.3359 -0.5424
   45MOL    H7211600   7.667   5.201   0.203  0.6655  0.1657 -0.5787
   45MOL    H7311601   7.691   4.907   0.261 -0.1935  1.3028  2.4756
   45MOL    H7411602   7.458   4.895   0.223  0.8976 -0.1198 -0.3022
   45MOL    H7511603   7.444   5.074   0.193  0.3380 -0.9845  3.6527
   45MOL    H7611604   7.601   5.071   0.002  0.3488  2.0410  1.2100
   45MOL    H7711605   7.626   4.887   0.016 -0.8488  0.2278 -0.5037
   45MOL    H7811606   7.816   5.197   0.432 -0.2965  0.2110  1.5189
   45MOL    H7911607   7.734   5.048   0.454  0.3622  1.1431  2.3652
   45MOL    C8011608   7.605   5.229   0.451  0.4333  0.4295  0.4054
   45MOL    C8111609   7.594   5.364   0.382  0.0969 -0.3696  0.3196
   45MOL    C8211610   7.465   5.443   0.383 -0.2548  0.5415 -0.4152
   45MOL    C8311611   7.521   5.391   0.253 -0.1644  0.2607  0.8072
   45MOL    C8411612   7.623   5.245   0.604  0.2527  0.7289  0.6245
   45MOL    H8511613   7.520   5.166   0.423  2.1409 -1.4194 -0.7304
   45MOL    H8611614   7.681   5.426   0.405  0.9686 -1.8698  1.1053
   45MOL    H8711615   7.458   5.550   0.398  0.6035  0.4645  0.5837
   45MOL    H8811616   7.390   5.384   0.436  0.4454  0.7933  0.8740
   45MOL    H8911617   7.477   5.304   0.204 -0.9082  1.5934 -0.9460
   45MOL    H9011618   7.562   5.462   0.182 -1.9523  1.4354  0.9311
   45MOL    H9111619   7.659   5.153   0.651  1.5747  0.5332 -0.7487
   45MOL    H9211620   7.708   5.312   0.617  0.1355  0.7893  1.0735
   45MOL    C9311621   7.505   5.274   0.693  0.5622 -0.4054  0.4485
   45MOL    C9411622   7.417   5.153   0.719  0.4484  0.4431 -0.5656
   45MOL    C9511623   7.271   5.163   0.755  0.8044  0.3255  0.2912
   45MOL    C9611624   7.311   5.100   0.623  0.3848  0.0153 -0.2301
   45MOL    C9711625   7.556   5.322   0.833  0.3594  1.0365  1.0219
   45MOL    H9811626   7.439   5.348   0.647 -0.3176 -0.5666  1.4337
   45MOL    H9911627   7.468   5.077   0.777  0.7217  1.8023  1.0156
   45MOL   H10011628   7.224   5.085   0.814 -0.3062  0.4331 -0.4285
   45MOL   H10111629   7.210   5.254   0.752  0.0570 -0.1994 -1.0245
   45MOL   H10211630   7.312   4.993   0.603 -1.5885  0.0211 -0.4601
   45MOL   H10311631   7.285   5.160   0.536  2.1177  0.5885 -0.3797
   45MOL   H10411632   7.634   5.250   0.859 -1.7178 -2.1182 -1.2758
   45MOL   H10511633   7.480   5.310   0.910  1.2119 -0.3673  1.6755
   45MOL   C10611634   7.600   5.468   0.838  0.0718 -0.6068 -0.1381
   45MOL   C10711635   7.479   5.560   0.855  0.4399 -0.4205 -0.3381
   45MOL   C10811636   7.470   5.700   0.800  0.1048 -0.0800  0.2255
   45MOL   C10911637   7.376   5.591   0.753 -0.3773  0.5751  0.3284
   45MOL   C11011638   7.697   5.491   0.961 -0.5134 -0.3422 -0.4936
   45MOL   H11111639   7.640   5.482   0.738 -1.8518 -1.2683 -1.0343
   45MOL   H11211640   7.433   5.551   0.954 -2.1995  1.2469 -1.3589
   45MOL   H11311641   7.434   5.760   0.882 -0.2276 -1.2684  0.9610
   45MOL   H11411642   7.558   5.726   0.742 -0.4285 -3.4513 -2.2820
   45MOL   H11511643   7.379   5.555   0.650 -1.5953  0.4842  0.3244
   45MOL   H11611644   7.274   5.611   0.783  0.4957  0.0643  3.9268
   45MOL   H11711645   7.643   5.477   1.055 -1.5101 -0.1150 -1.0234
   45MOL   H11811646   7.775   5.415   0.958 -0.6988 -0.5288 -0.6274
   45MOL   C11911647   7.775   5.630   0.969  0.9031 -0.2568  0.6051
   45MOL   C12011648   7.777   5.668   1.121 -0.4266 -0.0417  1.2662
   45MOL   C12111649   7.651   5.719   1.181  0.0500 -0.4164  0.1519
   45MOL   C12211650   7.759   5.813   1.156  0.2911  0.2842  0.0045
   45MOL   C12311651   0.069   5.628   0.900  0.3694 -0.2566 -0.1281
   45MOL   H12411652   7.715   5.702   0.914 -1.4783 -2.3250  0.3712
   45MOL   H12511653   0.020   5.625   1.178  0.4288  1.0960  0.9066
   45MOL   H12611654   7.636   5.700   1.287  0.4629  0.8433  0.4478
   45MOL   H12711655   7.562   5.737   1.122  0.7188  1.7321 -0.2518
   45MOL   H12811656   7.730   5.893   1.088  0.4170  1.8922  1.8091
   45MOL   H12911657   7.791   5.850   1.253 -0.5667  2.1949 -0.4168
   45MOL   H13011658   0.112   5.528   0.911 -0.2541 -0.3654  1.5297
   45MOL   H13111659   0.053   5.628   0.792 -0.2546  4.0346 -0.0993
   45MOL   C13211660   0.168   5.740   0.938 -0.3760  0.2694  0.0405
   45MOL   C13311661   0.231   5.790   0.807 -0.2029  0.6865 -0.1814
   45MOL   C13411662   0.308   5.918   0.783 -0.1744 -0.3741 -0.0002
   45MOL   C13511663   0.165   5.890   0.722  0.1406  0.0417  0.0671
   45MOL   C13611664   0.277   5.683   1.038  0.0391  0.2844 -0.0808
   45MOL   H13711665   0.122   5.827   0.985  0.4317 -0.2115  1.7544
   45MOL   H13811666   0.279   5.706   0.758  0.3507  1.2621 -0.6328
   45MOL   H13911667   0.309   5.994   0.861  0.9233  1.5363 -1.8351
   45MOL   H14011668   0.388   5.922   0.709 -1.8538  0.8360 -1.7733
   45MOL   H14111669   0.083   5.944   0.770 -0.1601 -1.1359  0.9283
   45MOL   H14211670   0.143   5.849   0.624  1.7229 -0.5443 -0.0616
   45MOL   H14311671   0.230   5.616   1.110  1.5897  1.8161  2.4628
   45MOL   H14411672   0.342   5.615   0.983 -0.2979 -0.2511  0.1740
   45MOL   C14511673   0.358   5.797   1.101 -0.0807 -0.3993 -0.2174
   45MOL   C14611674   0.273   5.867   1.212  0.6515  0.1622  0.0068
   45MOL   C14711675   0.332   5.994   1.268  0.0763  0.6802 -0.6358
   45MOL   C14811676   0.199   5.997   1.192  0.6973  0.1104 -1.4926
   45MOL   C14911677   0.497   5.748   1.154  0.0673 -0.3150 -0.1689
   45MOL   H15011678   0.379   5.879   1.033 -0.9714  1.8327  2.1102
   45MOL   H15111679   0.223   5.803   1.285  0.1707  0.2453 -0.2469
   45MOL   H15211680   0.322   6.007   1.375  2.8334 -0.5903 -0.1731
   45MOL   H15311681   0.422   6.033   1.221  0.4443  0.2674 -0.2758
   45MOL   H15411682   0.177   6.015   1.087 -1.9150  0.0680 -0.9809
   45MOL   H15511683   0.110   5.996   1.253  1.1345 -1.4105 -0.8480
   45MOL   H15611684   0.545   5.820   1.221  1.2120 -1.1671 -0.0740
   45MOL   H15711685   0.476   5.662   1.218 -0.3100 -0.2273 -0.1724
   45MOL   C15811686   0.598   5.707   1.044 -0.2617 -0.1080 -0.1834
   45MOL   C15911687   0.717   5.641   1.113  0.2535  0.0986 -0.3376
   45MOL   C16011688   0.685   5.505   1.173  0.7295 -0.1590 -0.0506
   45MOL   C16111689   0.792   5.519   1.068 -0.1086  0.3032  0.4030
   45MOL   C16211690   0.647   5.828   0.952  0.0764  0.1039  0.2447
   45MOL   H16311691   0.563   5.626   0.980  0.9048 -2.7467  2.4220
   45MOL   H16411692   0.787   5.709   1.161  3.2570 -1.1808 -2.7148
   45MOL   H16511693   0.609   5.444   1.125 -0.8877  0.9606  1.0151
   45MOL   H16611694   0.718   5.490   1.276 -2.6132  0.6922  1.2382
   45MOL   H16711695   0.897   5.507   1.092  0.9210 -0.5358 -4.0544
   45MOL   H16811696   0.765   5.497   0.965  0.7380  2.4090 -0.3048
   45MOL   H16911697   0.688   5.907   1.015  1.6089  0.6099 -1.3300
   45MOL   H17011698   0.554   5.867   0.911  0.4075 -0.9695 -1.5846
   45MOL   C17111699   0.733   5.789   0.827  0.3193  0.6395  0.1692
   45MOL   C17211700   0.651   5.731   0.708  0.4162 -0.2549 -0.1298
   45MOL   C17311701   0.721   5.696   0.574  0.6861 -0.1253  0.6076
   45MOL   C17411702   0.657   5.584   0.654 -0.3234 -0.1726 -0.1163
   45MOL   C17511703   0.824   5.901   0.776  0.0426  0.0549 -0.3162
   45MOL   H17611704   0.802   5.714   0.866  1.1248  1.7747  0.9401
   45MOL   H17711705   0.548   5.765   0.695  0.0945 -0.0901  2.6249
   45MOL   H17811706   0.680   5.730   0.479  0.2582 -0.8871  0.5111
   45MOL   H17911707   0.829   5.697   0.578  0.6825  1.3724  0.6101
   45MOL   H18011708   0.724   5.521   0.712  1.5279  0.0781 -1.8998
   45MOL   H18111709   0.576   5.536   0.599 -1.0054  0.8074  0.0310
   45MOL   H18211710   0.878   5.864   0.689  1.1775 -2.1034  1.2596
   45MOL   H18311711   0.909   5.926   0.839  0.8782  0.9047 -1.7558
   45MOL   C18411712   0.739   6.030   0.739  0.3197  0.5971  0.6325
   45MOL   C18511713   0.762   6.082   0.594 -0.2658 -0.8892 -0.1431
   45MOL   C18611714   0.645   6.150   0.528 -0.6576 -0.7197  0.6593
   45MOL   C18711715   0.694   6.017   0.476 -0.4859 -0.3249 -0.2985
   45MOL   C18811716   0.763   6.145   0.846 -0.2094 -0.0066  0.4990
   45MOL   H18911717   0.636   5.995   0.746  0.4624  0.0059 -0.1865
   45MOL   H19011718   0.847   6.148   0.574 -0.7980 -1.0232 -2.9636
   45MOL   H19111719   0.666   6.232   0.459  1.6196 -1.9720 -0.2067
   45MOL   H19211720   0.552   6.153   0.583 -0.7101 -1.1246  0.5932
   45MOL   H19311721   0.758   6.006   0.389 -1.3737  1.9004 -1.2445
   45MOL   H19411722   0.621   5.935   0.478 -2.9878  1.8585  0.9470
   45MOL   H19511723   0.864   6.178   0.822  0.0939 -1.3313 -0.0600
   45MOL   H19611724   0.773   6.091   0.940  1.9157 -1.3538 -0.4638
   45MOL   C19711725   0.657   6.261   0.860  0.4717  0.6632 -0.2521
   45MOL   C19811726   0.721   6.373   0.944 -0.2433  0.5902  0.3464
   45MOL   C19911727   0.715   6.522   0.905 -0.0904  0.5096 -0.1779
   45MOL   C20011728   0.848   6.445   0.891 -0.0179  0.4675 -0.5729
   45MOL   C20111729   0.519   6.218   0.905 -0.5111 -0.0714 -0.4156
   45MOL   H20211730   0.630   6.309   0.766  2.3937  0.5231 -0.8865
   45MOL   H20311731   0.729   6.351   1.051 -0.4798  1.6162  0.5856
   45MOL   H20411732   0.677   6.549   0.807  0.0943 -2.7106 -1.1891
   45MOL   H20511733   0.702   6.586   0.992 -2.2057 -1.5922  1.0890
   45MOL   H20611734   0.884   6.446   0.789  3.4215 -1.2423  0.5663
   45MOL   H20711735   0.928   6.474   0.959  0.9594 -0.8911 -1.1208
   45MOL   H20811736   0.477   6.158   0.824 -1.3377 -0.7637  0.5023
   45MOL   H20911737   0.521   6.154   0.994 -2.3379 -0.6886 -0.7859
   45MOL   C21011738   0.424   6.336   0.932  0.2580 -0.2379 -0.3221
   45MOL   C21111739   0.288   6.310   0.874  0.2291 -0.1933  0.0489
   45MOL   C21211740   0.211   6.398   0.775 -0.0697 -0.2591  0.4028
   45MOL   C21311741   0.267   6.270   0.729 -0.4348  0.1247  0.1424
   45MOL   C21411742   0.410   6.381   1.082  0.2139  0.2660  0.0904
   45MOL   H21511743   0.465   6.415   0.868 -0.2252  1.9095  1.9696
   45MOL   H21611744   0.218   6.267   0.945 -0.6940  1.1670 -0.0004
   45MOL   H21711745   0.103   6.409   0.783 -0.2003 -0.1254 -1.3089
   45MOL   H21811746   0.268   6.482   0.735 -0.8904  0.4962  0.7888
   45MOL   H21911747   0.186   6.202   0.704 -0.3548  0.8152 -2.1171
   45MOL   H22011748   0.357   6.260   0.669  0.6268 -0.0449  1.7470
   45MOL   H22111749   0.385   6.298   1.148  0.5414  0.7379  0.8193
   45MOL   H22211750   0.510   6.413   1.114  0.3124 -0.1724  0.2199
   45MOL   C22311751   0.303   6.486   1.120 -0.3857  0.2820  0.0035
   45MOL   C22411752   0.323   6.626   1.058  0.6315 -0.6907  0.4313
   45MOL   C22511753   0.239   6.685   0.937  0.8856 -0.4070  0.1519
   45MOL   C22611754   0.224   6.745   1.073 -0.4746 -0.7755 -0.8431
   45MOL   C22711755   0.301   6.500   1.274  1.1914 -0.0292 -0.0777
   45MOL   H22811756   0.206   6.454   1.082 -1.1642 -0.0452  2.2289
   45MOL   H22911757   0.420   6.668   1.085 -0.5725  1.9383  0.8647
   45MOL   H23011758   0.150   6.636   0.901 -1.1060 -0.0958  4.3516
   45MOL   H23111759   0.295   6.738   0.859  1.2667 -1.0914 -0.0443
   45MOL   H23211760   0.258   6.848   1.085 -3.3170  0.0710  0.3046
   45MOL   H23311761   0.124   6.727   1.111 -1.0065  0.6562 -1.5003
   45MOL   H23411762   0.372   6.442   1.334 -0.4315 -0.0284  1.8612
   45MOL   H23511763   0.330   6.601   1.300  3.0280 -0.4086 -0.5557
   45MOL   C23611764   0.166   6.474   1.352  0.4961 -0.6371  0.1679
   45MOL   C23711765   0.189   6.505   1.502 -1.0849 -0.0004 -0.4556
   45MOL   C23811766   0.166   6.642   1.538 -0.5014 -0.4303  0.6152
   45MOL   C23911767   0.075   6.532   1.593 -0.5686 -0.3592 -0.2332
   45MOL   C24011768   0.106   6.331   1.328 -0.2749  0.1675  0.4715
   45MOL   H24111769   0.096   6.539   1.299  1.1048  0.7361  1.0336
   45MOL   H24211770   0.283   6.467   1.544  0.1881  0.0771 -3.1665
   45MOL   H24311771   0.241   6.682   1.606  1.4707 -1.2998 -1.0050
   45MOL   H24411772   0.130   6.700   1.453 -1.4631  0.4906  1.6148
   45MOL   H24511773   7.815   6.536   1.548 -0.9402  1.8692  0.7194
   45MOL   H24611774   0.092   6.483   1.688  0.9454  0.6485  0.0368
   45MOL   H24711775   0.138   6.290   1.232 -1.9173  1.1955 -0.5320
   45MOL   H24811776   0.153   6.262   1.398  0.0114 -1.3607 -1.1931
   45MOL   C24911777   7.791   6.318   1.344  0.3178 -0.5698  0.3198
   45MOL   C25011778   7.743   6.176   1.353  0.1921 -0.0871 -0.4414
   45MOL   C25111779   7.769   6.082   1.466  0.2066  0.3298 -0.3179
   45MOL   C25211780   7.631   6.135   1.442 -0.3397 -0.1581 -0.2655
   45MOL   C25311781   7.715   6.399   1.245  0.3453 -0.6082  0.0810
   45MOL   H25411782   7.772   6.373   1.436 -1.1909  0.6456 -0.6940
   45MOL   H25511783   7.745   6.117   1.261 -2.6166 -0.5139 -0.2792
   45MOL   H25611784   7.796   5.979   1.444  1.6290  0.4861  0.6630
   45MOL   H25711785   7.808   6.127   1.557  0.0424  1.5769 -0.8514
   45MOL   H25811786   7.554   6.073   1.396 -1.8674 -0.2627  2.3527
   45MOL   H25911787   7.592   6.215   1.505  0.9457  0.3753 -0.1245
   45MOL   H26011788   7.610   6.370   1.234 -0.9935  2.8227  2.9962
   45MOL   H26111789   7.768   6.385   1.150  0.0847 -3.0534  0.2627
   45MOL   H26211790   7.705   6.503   1.275  0.1080 -0.0357 -1.8827
   46MOL     C111791   7.576   4.594   1.693 -0.3691  0.3255 -0.0146
   46MOL     C211792   7.513   4.589   1.830 -0.3764  0.4242  0.0759
   46MOL     C311793   7.371   4.628   1.845  0.6480 -0.6265  0.2796
   46MOL     C411794   7.481   4.725   1.898 -0.0026  0.1899  0.3302
   46MOL     C511795   7.565   4.465   1.614  0.2125  0.0923 -0.6428
   46MOL     H611796   7.523   4.669   1.634  0.6113  2.3594  1.6181
   46MOL     H711797   7.546   4.509   1.896  0.0763 -0.3278 -1.0361
   46MOL     H811798   7.307   4.659   1.762 -1.7788 -0.2116  2.2459
   46MOL     H911799   7.315   4.570   1.918  0.3924 -0.4284  0.2410
   46MOL    H1011800   7.502   4.729   2.005 -0.8776 -1.3973  0.5664
   46MOL    H1111801   7.500   4.816   1.842 -1.7805  0.7941  0.6836
   46MOL    H1211802   7.459   4.451   1.594  0.2753  0.2242 -1.0657
   46MOL    H1311803   7.611   4.382   1.668  2.2454  1.9311  0.5506
   46MOL    H1411804   7.674   4.643   1.690 -0.1803 -0.0903 -0.7138
   46MOL    C1511805   7.634   4.453   1.474 -0.5168 -0.1986 -0.5042
   46MOL    C1611806   7.785   4.479   1.462 -0.0321  1.0657  0.0465
   46MOL    C1711807   0.006   4.614   1.493 -0.3994  0.5029 -0.3741
   46MOL    C1811808   0.017   4.555   1.354  0.0657  0.3680  0.1419
   46MOL    C1911809   7.593   4.311   1.413 -0.2064 -0.3878  0.2525
   46MOL    H2011810   7.584   4.525   1.409  0.2271  0.4203 -0.3981
   46MOL    H2111811   0.005   4.390   1.482 -0.8273  0.7228  0.9146
   46MOL    H2211812   0.096   4.623   1.554  0.2645 -0.1412 -1.2525
   46MOL    H2311813   7.770   4.692   1.501  0.0332  1.0657 -1.6145
   46MOL    H2411814   7.791   4.601   1.281  0.1305  0.1547 -0.0533
   46MOL    H2511815   0.113   4.521   1.317 -0.5571  0.2013 -1.3403
   46MOL    H2611816   7.489   4.288   1.438 -0.5151 -1.3208 -1.7516
   46MOL    H2711817   7.649   4.232   1.462  2.4581  1.1338 -0.2393
   46MOL    C2811818   7.607   4.291   1.262  0.9528 -0.0421  0.0828
   46MOL    C2911819   7.495   4.356   1.177  0.4756 -0.1925 -0.3978
   46MOL    C3011820   7.499   4.509   1.155 -0.1995  1.3463  0.1140
   46MOL    C3111821   7.504   4.405   1.041 -0.9235  1.1077  0.3606
   46MOL    C3211822   7.625   4.139   1.229  0.3794 -0.1266  0.0549
   46MOL    H3311823   7.694   4.347   1.229 -0.5451  0.7464 -2.6331
   46MOL    H3411824   7.397   4.322   1.210  0.9107 -0.5004  0.6002
   46MOL    H3511825   7.584   4.576   1.143 -0.3239  1.4804 -0.0199
   46MOL    H3611826   7.404   4.550   1.188 -1.7725 -1.9930 -0.0403
   46MOL    H3711827   7.598   4.385   0.991 -1.3697  0.6867 -0.3244
   46MOL    H3811828   7.415   4.389   0.981  0.7466 -1.2322 -1.5987
   46MOL    H3911829   7.542   4.081   1.268 -1.1415  1.1946 -1.1017
   46MOL    H4011830   7.702   4.098   1.294 -0.4041 -1.7364 -0.0259
   46MOL    C4111831   7.638   4.096   1.081 -0.7122 -0.8235 -0.8309
   46MOL    C4211832   7.531   3.991   1.047 -0.8927 -0.5439 -0.1970
   46MOL    C4311833   7.470   3.975   0.906 -0.3637  0.3965 -0.4302
   46MOL    C4411834   7.389   4.031   1.020 -0.0773 -0.5267 -0.0802
   46MOL    C4511835   7.783   4.052   1.053 -0.1185  0.2149 -0.2446
   46MOL    H4611836   7.623   4.179   1.012  1.0027 -0.5830 -0.9239
   46MOL    H4711837   7.532   3.894   1.096 -0.8970 -1.1648 -1.4188
   46MOL    H4811838   7.512   4.039   0.829  0.2433  1.1725  0.5366
   46MOL    H4911839   7.444   3.873   0.876 -1.5225  0.1379  1.3781
   46MOL    H5011840   7.322   3.969   1.078  1.8083 -1.3310  1.2830
   46MOL    H5111841   7.375   4.139   1.015 -3.8548 -0.9798 -0.4727
   46MOL    H5211842   7.772   4.003   0.956  0.3771 -0.2226 -0.0784
   46MOL    H5311843   7.822   3.980   1.124  1.6593 -0.2006 -1.6012
   46MOL    C5411844   0.042   4.175   1.034  0.7099 -0.2088 -0.2754
   46MOL    C5511845   0.177   4.144   1.105  1.3113  0.0102 -0.6567
   46MOL    C5611846   0.199   4.143   1.255 -0.4688  0.1839  0.0862
   46MOL    C5711847   0.250   4.261   1.173 -0.1948  0.2808 -0.2753
   46MOL    C5811848   0.049   4.220   0.886 -0.0781  0.9010 -0.2123
   46MOL    H5911849   0.002   4.269   1.071 -0.4230 -0.2555 -1.3706
   46MOL    H6011850   0.243   4.069   1.061  2.4788  0.8948 -0.4520
   46MOL    H6111851   0.106   4.133   1.309 -0.3109  0.7913  0.4769
   46MOL    H6211852   0.282   4.087   1.299  0.1638  2.2043  1.5620
   46MOL    H6311853   0.358   4.267   1.169  0.0084 -2.6705 -0.2728
   46MOL    H6411854   0.194   4.349   1.207 -2.9240 -2.2451  2.0134
   46MOL    H6511855   0.089   4.135   0.831 -0.6028 -0.0284  0.8368
   46MOL    H6611856   7.791   4.242   0.842 -0.3465 -0.8442 -0.5135
   46MOL    C6711857   0.124   4.346   0.846 -0.2847 -0.5668 -0.0292
   46MOL    C6811858   0.142   4.354   0.700  0.2015 -0.9947 -0.1472
   46MOL    C6911859   0.271   4.412   0.632  0.2286 -0.2563 -0.1986
   46MOL    C7011860   0.244   4.270   0.621  0.2504  0.2554  0.1923
   46MOL    C7111861   0.047   4.476   0.891 -0.3767 -0.2029  0.4899
   46MOL    H7211862   0.217   4.342   0.903 -0.0206  1.2362 -0.2843
   46MOL    H7311863   0.046   4.365   0.648 -0.8238 -0.3484  1.8306
   46MOL    H7411864   0.270   4.469   0.539  1.0289  0.5290  0.2612
   46MOL    H7511865   0.350   4.435   0.703  3.2712 -0.9957 -3.2015
   46MOL    H7611866   0.306   4.195   0.670  0.0582  0.4509  0.7449
   46MOL    H7711867   0.213   4.237   0.522 -1.8766  1.7207  0.3368
   46MOL    H7811868   0.010   4.472   0.993 -0.0934  1.7751  0.6820
   46MOL    H7911869   7.801   4.492   0.824 -0.3956 -0.0842  0.5422
   46MOL    C8011870   0.141   4.599   0.892 -0.3740 -0.2178  0.1175
   46MOL    C8111871   0.242   4.594   1.004 -0.4727  0.1357  0.1260
   46MOL    C8211872   0.365   4.692   1.005  0.4034 -0.0181  0.1167
   46MOL    C8311873   0.382   4.545   0.983 -0.0286  0.2098  0.4225
   46MOL    C8411874   0.050   4.727   0.906 -0.4449 -0.2188 -0.4487
   46MOL    H8511875   0.196   4.610   0.799 -1.5487  0.1134 -0.5500
   46MOL    H8611876   0.199   4.573   1.102  2.2010 -0.3513  1.2352
   46MOL    H8711877   0.386   4.736   1.102  0.9799 -0.4645  0.2061
   46MOL    H8811878   0.379   4.759   0.920  0.7477 -1.9348 -1.3811
   46MOL    H8911879   0.405   4.513   0.881  0.3070  1.4672  0.0906
   46MOL    H9011880   0.420   4.480   1.062  4.0248  2.4457  0.4905
   46MOL    H9111881   7.839   4.714   1.002  1.8147 -0.9964  0.6860
   46MOL    H9211882   0.120   4.808   0.923  0.2994 -0.9548  0.0609
   46MOL    C9311883   7.808   4.769   0.781  0.9568 -0.3757 -0.2108
   46MOL    C9411884   7.700   4.867   0.812  0.9924  0.4602 -0.2031
   46MOL    C9511885   7.610   4.849   0.940 -0.0111 -0.4817 -0.1976
   46MOL    C9611886   7.708   4.961   0.931  0.7346 -1.3332  0.3295
   46MOL    C9711887   0.051   4.816   0.656  0.6448 -0.1859  0.1604
   46MOL    H9811888   7.756   4.682   0.743  0.2352 -1.0449  2.1688
   46MOL    H9911889   7.650   4.898   0.720 -0.2711 -0.5715  0.1236
   46MOL   H10011890   7.505   4.877   0.939  0.2005  0.3830  0.8465
   46MOL   H10111891   7.638   4.782   1.022  1.1136 -1.3346 -1.2615
   46MOL   H10211892   7.659   5.057   0.912  0.5621 -0.8423  3.1107
   46MOL   H10311893   7.796   4.950   0.993  0.8722 -1.0043  0.1986
   46MOL   H10411894   7.833   4.878   0.587  1.3121 -1.3943 -1.4909
   46MOL   H10511895   0.070   4.728   0.595  1.6114  0.5790 -0.6560
   46MOL   C10611896   0.176   4.901   0.684 -0.4984  0.8148 -0.1263
   46MOL   C10711897   0.273   4.888   0.574  0.0448 -0.0855  0.3816
   46MOL   C10811898   0.424   4.888   0.580 -0.6861 -0.2380  0.1617
   46MOL   C10911899   0.353   4.768   0.549  0.3027  0.3657 -0.1499
   46MOL   C11011900   0.141   5.050   0.712  0.1695  0.0917 -1.1874
   46MOL   H11111901   0.232   4.855   0.765 -0.6324 -1.1106 -1.0986
   46MOL   H11211902   0.227   4.927   0.484  1.6060  1.0901  0.0694
   46MOL   H11311903   0.475   4.955   0.511  0.7084 -0.7808  0.6502
   46MOL   H11411904   0.468   4.894   0.680  0.1843 -0.3872 -0.2116
   46MOL   H11511905   0.386   4.701   0.628 -2.8752 -1.0638  0.0435
   46MOL   H11611906   0.366   4.731   0.448  0.6498  1.7021 -0.6023
   46MOL   H11711907   0.082   5.095   0.633 -0.8809  2.5779  0.9407
   46MOL   H11811908   0.078   5.049   0.801  0.8072  0.0905 -0.7317
   46MOL   C11911909   0.256   5.143   0.764 -0.3666  0.2354  0.2854
   46MOL   C12011910   0.198   5.289   0.765 -0.1218  0.2472  0.4021
   46MOL   C12111911   0.166   5.368   0.637 -0.0255 -0.6964  0.5352
   46MOL   C12211912   0.282   5.409   0.735  0.2444 -0.0871 -0.5606
   46MOL   C12311913   0.319   5.097   0.899 -0.1736 -0.2293 -0.0474
   46MOL   H12411914   0.334   5.145   0.688 -0.7544  1.2667 -0.0920
   46MOL   H12511915   0.127   5.308   0.845 -1.8238 -1.3199 -0.6968
   46MOL   H12611916   0.074   5.426   0.633  0.4665 -0.0086 -2.2169
   46MOL   H12711917   0.201   5.312   0.551  1.8244 -0.2083  0.9508
   46MOL   H12811918   0.376   5.410   0.681  1.3285 -1.9989  1.1956
   46MOL   H12911919   0.279   5.489   0.808 -2.0898 -1.3114  0.7646
   46MOL   H13011920   0.240   5.119   0.970 -1.7380  2.4352 -2.5056
   46MOL   H13111921   0.324   4.990   0.915 -0.1221 -0.4478 -1.4169
   46MOL   C13211922   0.451   5.168   0.945 -0.3819 -0.2594  0.1390
   46MOL   C13311923   0.557   5.116   0.852  0.4486 -0.6592 -0.1906
   46MOL   C13411924   0.686   5.187   0.845  0.6100  0.5824  0.0315
   46MOL   C13511925   0.594   5.174   0.717 -0.5621  0.5440 -0.6329
   46MOL   C13611926   0.494   5.121   1.086  0.1832 -0.4033 -0.7324
   46MOL   H13711927   0.435   5.276   0.943 -0.1994 -0.2118  1.2939
   46MOL   H13811928   0.564   5.007   0.852  0.5561 -0.7500  4.2257
   46MOL   H13911929   0.690   5.285   0.892  0.1339  0.5059  0.2302
   46MOL   H14011930   0.779   5.133   0.825 -0.9594 -1.4516 -2.0915
   46MOL   H14111931   0.547   5.264   0.678  0.3075  1.4351  0.3543
   46MOL   H14211932   0.609   5.094   0.645  0.0787  1.5713 -1.6564
   46MOL   H14311933   0.500   5.012   1.086 -3.4600 -0.7451  3.1898
   46MOL   H14411934   0.586   5.173   1.113  1.2411 -2.2811 -0.5650
   46MOL   C14511935   0.391   5.148   1.196  0.4366 -0.3487 -0.4368
   46MOL   C14611936   0.431   5.073   1.326 -0.1718 -0.6612 -0.4738
   46MOL   C14711937   0.322   5.025   1.418 -0.4201 -0.2176 -0.0267
   46MOL   C14811938   0.407   4.924   1.350  0.7020 -0.3136 -0.1477
   46MOL   C14911939   0.382   5.299   1.229 -0.8254  0.4415  0.2147
   46MOL   H15011940   0.292   5.111   1.170 -0.0572  1.4384 -1.1714
   46MOL   H15111941   0.524   5.106   1.370 -1.3767 -0.4454  1.9951
   46MOL   H15211942   0.333   5.035   1.526  0.1718  0.8838 -0.1855
   46MOL   H15311943   0.223   5.025   1.374  0.6604 -3.4392 -2.6161
   46MOL   H15411944   0.350   4.854   1.289  0.8750 -0.6997  0.1298
   46MOL   H15511945   0.480   4.869   1.410  0.0067 -1.7089 -0.5678
   46MOL   H15611946   0.469   5.320   1.291  0.0514 -0.8093 -0.5750
   46MOL   H15711947   0.389   5.362   1.141 -1.6504  0.0697 -0.1227
   46MOL   C15811948   0.256   5.331   1.304  0.1652 -0.2547 -0.5929
   46MOL   C15911949   0.132   5.333   1.208 -0.4443  0.7681 -1.7058
   46MOL   C16011950   0.062   5.205   1.172 -0.4080 -0.1224  0.0946
   46MOL   C16111951   7.833   5.313   1.261  0.4369  0.0707 -0.5453
   46MOL   C16211952   0.275   5.470   1.371  0.3468 -0.0200 -0.1314
   46MOL   H16311953   0.224   5.260   1.380  0.1905  1.4772  1.0625
   46MOL   H16411954   0.139   5.413   1.135  1.4556  0.8654 -1.4389
   46MOL   H16511955   0.096   5.115   1.223  0.3708  1.2766  2.1360
   46MOL   H16611956   0.030   5.188   1.070  0.8948  0.3543 -0.4003
   46MOL   H16711957   7.827   5.299   1.369  1.2439  1.2030 -0.3343
   46MOL   H16811958   7.744   5.347   1.209 -1.4591 -2.5181  0.8910
   46MOL   H16911959   0.193   5.538   1.352  0.3613 -0.1880 -0.8129
   46MOL   H17011960   0.355   5.524   1.321  1.0827 -1.5881 -0.7121
   46MOL   C17111961   0.315   5.467   1.520  0.1823 -1.2126 -0.3035
   46MOL   C17211962   0.363   5.607   1.578 -0.7456 -0.4453 -0.3971
   46MOL   C17311963   0.482   5.625   1.671 -0.2936  0.3933  0.0629
   46MOL   C17411964   0.486   5.675   1.524 -0.2890  0.3815  0.0706
   46MOL   C17511965   0.203   5.419   1.621 -0.2332 -0.5438  0.0031
   46MOL   H17611966   0.402   5.401   1.519  1.7900  0.8542 -2.9315
   46MOL   H17711967   0.280   5.671   1.608 -1.1254 -1.6652  1.2189
   46MOL   H17811968   0.461   5.687   1.758  0.7777 -0.8670  1.2587
   46MOL   H17911969   0.541   5.536   1.691 -2.1753 -1.2613 -1.4433
   46MOL   H18011970   0.542   5.625   1.445 -1.4017 -0.0230 -0.4653
   46MOL   H18111971   0.494   5.783   1.509  0.2466  0.2675 -0.5232
   46MOL   H18211972   0.156   5.341   1.561  0.0263 -0.0357 -0.8805
   46MOL   H18311973   0.117   5.485   1.625 -0.6305 -0.9692 -1.2769
   46MOL   C18411974   0.237   5.391   1.765 -0.2428 -0.4575  0.5490
   46MOL   C18511975   0.286   5.247   1.782 -0.8060  0.3712  0.1318
   46MOL   C18611976   0.394   5.200   1.883  0.4956 -1.0530 -0.0430
   46MOL   C18711977   0.435   5.224   1.742  0.0396  0.2693  0.2531
   46MOL   C18811978   0.114   5.412   1.854  0.0849  0.6314 -0.5816
   46MOL   H18911979   0.314   5.455   1.807 -0.3112 -1.0289  1.5581
   46MOL   H19011980   0.216   5.177   1.737 -0.1111 -0.4327  0.2832
   46MOL   H19111981   0.387   5.096   1.912 -0.2188 -0.2766  2.7829
   46MOL   H19211982   0.408   5.270   1.965  0.2687 -2.3284  1.1044
   46MOL   H19311983   0.442   5.143   1.669 -0.2055 -0.2365  0.7859
   46MOL   H19411984   0.510   5.301   1.730  1.4112 -0.7985  1.8218
   46MOL   H19511985   0.103   5.337   1.932 -1.8867 -0.6880 -2.0799
   46MOL   H19611986   0.026   5.384   1.796  1.2455 -4.7097  0.0552
   46MOL   C19711987   0.086   5.554   1.920 -0.1309 -0.2158 -0.1411
   46MOL   C19811988   0.104   5.673   1.825  0.2568  0.7733  0.1576
   46MOL   C19911989   0.017   5.790   1.855  0.1133  0.7045  0.8813
   46MOL   C20011990   0.004   5.715   1.723 -0.2474  0.3539  0.5437
   46MOL   C20111991   0.175   5.573   2.047 -0.5285 -0.2198  0.0707
   46MOL   H20211992   7.819   5.547   1.946 -0.0929  0.5346  0.2160
   46MOL   H20311993   0.205   5.706   1.798 -0.0508 -1.4832 -4.0981
   46MOL   H20411994   7.759   5.789   1.904 -0.0809 -0.1149  0.4819
   46MOL   H20511995   0.059   5.890   1.842  1.2759 -0.0811 -1.6984
   46MOL   H20611996   7.755   5.654   1.703 -0.0863  0.9327 -2.1053
   46MOL   H20711997   0.043   5.757   1.630  0.1230 -1.2113 -0.0215
   46MOL   H20811998   0.192   5.479   2.099  4.0226 -1.1959 -2.8648
   46MOL   H20911999   0.265   5.594   1.990 -0.9341  1.8526  0.1431
   46MOL   C21012000   0.121   5.676   2.151  0.1905 -0.0688 -0.1380
   46MOL   C21112001   0.002   5.615   2.225 -0.3554  0.0683 -0.3512
   46MOL   C21212002   7.732   5.701   2.276 -0.2573 -0.0176  0.1709
   46MOL   C21312003   7.703   5.612   2.159  0.1531 -0.3629  0.2499
   46MOL   C21412004   0.247   5.716   2.233 -0.4678  0.4782 -0.0640
   46MOL   H21512005   0.094   5.768   2.099  0.7626 -0.2835 -0.8223
   46MOL   H21612006   0.022   5.523   2.281 -2.2786  0.4268  0.9911
   46MOL   H21712007   7.675   5.678   2.366  0.2853  1.6458  0.9475
   46MOL   H21812008   7.736   5.807   2.253 -1.7268 -0.0531 -0.3583
   46MOL   H21912009   7.632   5.533   2.179 -0.2758 -0.2340 -0.7129
   46MOL   H22012010   7.690   5.671   2.068  1.5252  1.5769  1.2773
   46MOL   H22112011   0.267   5.623   2.286  2.4274  0.8836 -0.3402
   46MOL   H22212012   0.335   5.718   2.169  1.1301  0.3712  2.0769
   46MOL   C22312013   0.246   5.847   2.310 -0.4431  0.0195 -0.2419
   46MOL   C22412014   0.259   5.969   2.216 -0.0351  0.1083  0.2289
   46MOL   C22512015   0.137   6.037   2.147 -0.8641  0.5210 -0.0679
   46MOL   C22612016   0.218   6.096   2.263 -0.3939  0.0192  0.5050
   46MOL   C22712017   0.357   5.842   2.399 -0.2055 -0.3064  0.1561
   46MOL   H22812018   0.157   5.869   2.369  0.5814 -2.0758  2.1845
   46MOL   H22912019   0.350   5.977   2.157  0.6126 -0.0456  1.1958
   46MOL   H23012020   0.039   5.992   2.160 -0.0290 -0.2279  4.5742
   46MOL   H23112021   0.144   6.087   2.051 -2.7395  0.9535  0.0030
   46MOL   H23212022   0.283   6.182   2.247  1.0512 -0.6750  2.4726
   46MOL   H23312023   0.165   6.096   2.358 -0.0207 -0.6219  0.7135
   46MOL   H23412024   0.422   5.756   2.382 -0.3479 -0.1080 -1.4103
   46MOL   H23512025   0.412   5.935   2.390 -2.0862  1.0258  1.8736
   46MOL   C23612026   0.307   5.820   2.553  0.0154  0.0805  0.0368
   46MOL   C23712027   0.413   5.856   2.657  0.0688 -0.3982  0.3766
   46MOL   C23812028   0.434   6.003   2.680  0.3136 -0.9070 -0.5298
   46MOL   C23912029   0.384   5.917   2.787 -0.4968  0.1230 -0.5668
   46MOL   C24012030   0.239   5.677   2.577 -0.6366  0.0500 -0.1102
   46MOL   H24112031   0.225   5.891   2.565 -0.9901 -0.2958 -3.9778
   46MOL   H24212032   0.509   5.808   2.639 -0.6804 -1.8181  0.1089
   46MOL   H24312033   0.538   6.032   2.682  0.5822 -1.7251 -2.2472
   46MOL   H24412034   0.366   6.087   2.662  2.0710  0.8352  0.7874
   46MOL   H24512035   0.280   5.939   2.807 -0.8731 -0.0082 -2.2836
   46MOL   H24612036   0.446   5.897   2.874  1.4957  1.0733 -1.7349
   46MOL   H24712037   0.166   5.658   2.498 -2.2419  1.3835  0.9968
   46MOL   H24812038   0.328   5.615   2.585 -0.4649  0.1592 -1.0709
   46MOL   C24912039   0.157   5.661   2.705  0.6275  0.4338 -0.3167
   46MOL   C25012040   0.114   5.517   2.709 -0.1493 -0.2136  0.0146
   46MOL   C25112041   0.191   5.418   2.794  0.1479  0.2305  0.3693
   46MOL   C25212042   0.060   5.465   2.842  0.2148  0.2473  0.2250
   46MOL   C25312043   0.023   5.751   2.697 -0.0171  0.1125  0.8252
   46MOL   H25412044   0.215   5.691   2.792  0.4289  3.5463 -1.1888
   46MOL   H25512045   0.076   5.487   2.612 -0.7923  3.0568 -0.8089
   46MOL   H25612046   0.195   5.313   2.765 -0.0451  0.7896 -1.7237
   46MOL   H25712047   0.277   5.462   2.844  0.6145  0.4487 -0.6114
   46MOL   H25812048   7.828   5.383   2.838 -0.9906  1.2288  1.0555
   46MOL   H25912049   0.063   5.511   2.941 -0.1598  0.2817  0.2206
   46MOL   H26012050   0.036   5.859   2.706 -0.4922  0.3289 -0.8424
   46MOL   H26112051   7.789   5.723   2.772  0.0982  4.1063  2.5244
   46MOL   H26212052   7.816   5.733   2.600  0.6337  0.0421  0.5221
   47MOL     C112053   0.188   0.551   2.911 -0.6739  0.5582  0.6209
   47MOL     C212054   0.275   0.541   3.039 -0.0044 -1.1110  0.1983
   47MOL     C312055   0.404   0.463   3.024  0.8541 -0.1628  0.2647
   47MOL     C412056   0.290   0.413   3.113 -0.0305 -0.3300 -0.1689
   47MOL     C512057   0.048   0.615   2.922 -0.5622  0.0125  0.1759
   47MOL     H612058   0.245   0.611   2.840 -0.3330  0.2797  0.6555
   47MOL     H712059   0.274   0.636   3.092  0.4375  0.1553 -2.0192
   47MOL     H812060   0.430   0.426   2.925  1.4963  0.4743  0.1922
   47MOL     H912061   0.491   0.485   3.086 -1.0877  2.0139  2.2947
   47MOL    H1012062   0.308   0.434   3.218  0.6084 -0.2551 -0.2940
   47MOL    H1112063   0.238   0.324   3.078 -0.9093  0.0070  0.2513
   47MOL    H1212064   0.010   0.633   2.822  2.6870 -2.7786 -1.6388
   47MOL    H1312065   0.060   0.719   2.955 -1.9490 -0.3117  1.7762
   47MOL    H1412066   0.174   0.452   2.868 -0.3968  1.4136 -1.4962
   47MOL    C1512067   7.771   0.548   2.997  1.0192  0.0844 -0.5018
   47MOL    C1612068   7.762   0.399   2.966  0.4853 -0.7041 -0.3123
   47MOL    C1712069   7.722   0.355   2.833 -0.6937 -0.6329  0.9533
   47MOL    C1812070   7.633   0.325   2.943 -0.2118  0.1244 -0.4538
   47MOL    C1912071   7.773   0.569   3.148 -0.0270  0.0211 -0.3265
   47MOL    H2012072   7.681   0.594   2.957  0.7098  0.1608  0.2614
   47MOL    H2112073   0.007   0.344   3.009  2.2114  2.7153  0.8990
   47MOL    H2212074   7.764   0.270   2.779  0.0369  0.4770 -0.2573
   47MOL    H2312075   7.704   0.437   2.764 -0.8275 -2.0166 -0.6981
   47MOL    H2412076   7.544   0.389   2.937  2.3806  3.9141 -0.4702
   47MOL    H2512077   7.623   0.220   2.967 -0.7023  0.1615 -0.4892
   47MOL    H2612078   7.795   0.674   3.166 -2.6354  0.5130  0.2203
   47MOL    H2712079   0.016   0.506   3.183  0.3385  0.2449 -0.7964
   47MOL    C2812080   7.648   0.532   3.231  0.1559 -0.6969  0.4994
   47MOL    C2912081   7.532   0.599   3.171  0.4146 -0.1045  0.4743
   47MOL    C3012082   7.427   0.676   3.251  0.4700  0.8806 -0.4365
   47MOL    C3112083   7.524   0.749   3.164  0.3388 -0.4589 -0.3927
   47MOL    C3212084   7.654   0.566   3.388  0.6805 -0.0896  0.4878
   47MOL    H3312085   7.629   0.425   3.219  1.2363 -1.2372  3.2995
   47MOL    H3412086   7.489   0.545   3.087  0.8462 -0.6461  0.5974
   47MOL    H3512087   7.440   0.718   3.351 -0.0613  0.5214 -0.2135
   47MOL    H3612088   7.325   0.671   3.216  0.2841  1.5688  0.0040
   47MOL    H3712089   7.598   0.803   3.223  0.9252 -2.5604  0.8109
   47MOL    H3812090   7.496   0.788   3.066  2.0201  1.6858 -0.0679
   47MOL    H3912091   7.562   0.545   3.442 -1.0969  2.8612 -1.2767
   47MOL    H4012092   7.663   0.673   3.407  0.3603 -0.0042  0.1737
   47MOL    C4112093   7.779   0.506   3.459  0.1649 -0.5549  0.2186
   47MOL    C4212094   7.773   0.353   3.468  0.4535  0.4447  1.1184
   47MOL    C4312095   0.064   0.297   3.520 -0.7475  1.0285  0.1362
   47MOL    C4412096   0.008   0.266   3.380  0.0149  0.1440 -0.1153
   47MOL    C4512097   7.782   0.570   3.601  0.2246  0.8505  0.6413
   47MOL    H4612098   0.032   0.542   3.412 -0.6992 -1.2789 -2.0719
   47MOL    H4712099   7.689   0.303   3.517  0.1027 -0.6535 -0.5427
   47MOL    H4812100   0.160   0.350   3.523 -0.6006  0.7578  0.2432
   47MOL    H4912101   0.050   0.232   3.606  1.9087  2.9735  2.1601
   47MOL    H5012102   7.805   0.167   3.363 -0.5801  0.1579  1.2417
   47MOL    H5112103   0.078   0.309   3.309  0.2469 -0.2727 -0.1461
   47MOL    H5212104   7.809   0.673   3.577  0.0657  0.1381 -2.7818
   47MOL    H5312105   0.037   0.542   3.648 -0.5657 -1.7295  0.8016
   47MOL    C5412106   7.660   0.554   3.689  0.0288  0.5504  0.2808
   47MOL    C5512107   7.703   0.532   3.831  0.2405  0.3082 -0.5786
   47MOL    C5612108   7.784   0.408   3.860 -0.4951 -0.2512 -0.4946
   47MOL    C5712109   7.651   0.420   3.924  0.1105  1.1496 -0.1444
   47MOL    C5812110   7.560   0.673   3.694 -0.5182  0.3741 -1.3434
   47MOL    H5912111   7.603   0.464   3.665 -0.0295  0.3815  1.0507
   47MOL    H6012112   7.737   0.621   3.882  0.4915 -0.1297  0.0306
   47MOL    H6112113   7.791   0.333   3.782  0.7575  0.8099 -1.4119
   47MOL    H6212114   0.029   0.419   3.928 -1.7437 -2.1200  1.4313
   47MOL    H6312115   7.655   0.434   4.031  0.2680 -0.7730  0.1234
   47MOL    H6412116   7.573   0.353   3.887 -0.2081  0.2829  2.0181
   47MOL    H6512117   7.610   0.766   3.721 -1.6121  0.7034 -0.3908
   47MOL    H6612118   7.509   0.693   3.599 -1.1947  0.9522 -0.8700
   47MOL    C6712119   7.429   0.658   3.785 -0.1608 -0.0932 -0.5236
   47MOL    C6812120   7.347   0.787   3.776  0.0101 -0.3435  0.8089
   47MOL    C6912121   7.293   0.850   3.903  0.4340  0.1791 -0.2089
   47MOL    C7012122   7.397   0.921   3.834 -0.3178 -0.3623 -0.7448
   47MOL    C7112123   7.338   0.541   3.729  0.9187  0.0357 -0.5576
   47MOL    H7212124   7.454   0.633   3.887  0.2224  1.7702 -0.1406
   47MOL    H7312125   7.290   0.789   3.683  2.6979  0.5580 -0.8740
   47MOL    H7412126   7.190   0.883   3.915 -0.1341 -0.2513 -3.4769
   47MOL    H7512127   7.325   0.791   3.989  1.6884 -1.0486 -1.4779
   47MOL    H7612128   7.490   0.937   3.888 -0.5900 -1.1819 -0.0172
   47MOL    H7712129   7.363   1.003   3.771 -1.5564 -0.5846 -0.3760
   47MOL    H7812130   7.384   0.444   3.717 -2.6348 -2.0225  1.5514
   47MOL    H7912131   7.315   0.563   3.625 -0.1550  0.4838 -0.2447
   47MOL    C8012132   7.208   0.522   3.816 -0.1565 -0.5276  0.2617
   47MOL    C8112133   7.241   0.462   3.954  0.5803 -0.2914  0.1381
   47MOL    C8212134   7.323   0.341   3.967  0.1394  0.3435  0.3730
   47MOL    C8312135   7.182   0.347   4.023 -0.4652  0.3465 -0.7388
   47MOL    C8412136   7.106   0.438   3.741 -0.1324  0.5372  0.0698
   47MOL    H8512137   7.176   0.623   3.842  0.2014 -0.3831  0.1397
   47MOL    H8612138   7.292   0.535   4.016  3.1845 -0.4000 -1.8078
   47MOL    H8712139   7.405   0.332   4.039  1.0847 -0.1452 -0.7484
   47MOL    H8812140   7.341   0.284   3.876 -0.3792 -0.7768  0.9649
   47MOL    H8912141   7.105   0.285   3.980  1.0074 -2.8365  1.0120
   47MOL    H9012142   7.172   0.352   4.131  1.0033 -0.2380 -0.5552
   47MOL    H9112143   7.117   0.451   3.633 -0.3450 -4.3978 -0.6543
   47MOL    H9212144   7.126   0.333   3.761  1.1885  0.6825 -0.4223
   47MOL    C9312145   6.955   0.451   3.777 -0.0987 -0.1717 -0.1167
   47MOL    C9412146   6.916   0.590   3.764  0.7419 -0.2760 -0.0819
   47MOL    C9512147   6.781   0.637   3.820 -0.2609  0.0963  0.4014
   47MOL    C9612148   6.906   0.672   3.893 -0.0786  0.0801  0.7054
   47MOL    C9712149   6.863   0.360   3.696 -1.0023  0.0212 -0.4622
   47MOL    H9812150   6.959   0.424   3.882  1.8753 -1.4491 -0.4953
   47MOL    H9912151   6.956   0.644   3.679  2.7691 -0.3485  0.8039
   47MOL   H10012152   6.727   0.713   3.763  1.7030  0.3142 -1.2625
   47MOL   H10112153   6.722   0.554   3.857 -3.1715  1.6255 -0.6418
   47MOL   H10212154   6.942   0.775   3.888 -0.3519  0.2749  2.3742
   47MOL   H10312155   6.925   0.612   3.982 -0.6311 -2.3703 -0.8005
   47MOL   H10412156   6.912   0.341   3.600  1.6005  0.2251  0.7855
   47MOL   H10512157   6.771   0.413   3.671 -0.1297  2.4713  1.2598
   47MOL   C10612158   6.850   0.217   3.757 -0.5189 -0.1827 -0.5718
   47MOL   C10712159   6.732   0.231   3.849 -1.1607  0.2550  0.2489
   47MOL   C10812160   6.710   0.131   3.960 -0.6010  0.2778  0.6595
   47MOL   C10912161   6.752   0.262   3.998  0.0580 -0.1085 -0.1169
   47MOL   C11012162   6.835   0.115   3.646 -0.6600 -1.0366  0.0618
   47MOL   H11112163   6.938   0.190   3.815 -0.2056  1.6522 -0.1356
   47MOL   H11212164   6.640   0.258   3.797 -1.0711 -0.1000 -0.0926
   47MOL   H11312165   6.608   0.108   3.992 -0.3194 -2.0505 -0.0390
   47MOL   H11412166   6.783   0.052   3.975 -0.0267  0.6420 -0.1715
   47MOL   H11512167   6.855   0.275   4.030  0.6871 -0.3680 -2.0065
   47MOL   H11612168   6.677   0.320   4.052  0.7466  1.5666 -0.9383
   47MOL   H11712169   6.735   0.080   3.672 -1.6513  1.8394  0.3750
   47MOL   H11812170   6.822   0.162   3.548  0.2474  1.3827  1.0515
   47MOL   C11912171   6.938   0.001   3.626 -0.1880  0.6290 -0.0379
   47MOL   C12012172   6.960   7.754   3.760  0.6773 -0.5607  0.6969
   47MOL   C12112173   7.065   7.792   3.856  0.3116  0.1810 -0.3419
   47MOL   C12212174   7.080   7.660   3.778  0.0989 -0.1157  0.5400
   47MOL   C12312175   6.911   7.746   3.511 -0.0902 -0.0927 -0.0517
   47MOL   H12412176   7.031   0.056   3.607 -2.1065  4.2889  0.8032
   47MOL   H12512177   6.864   7.723   3.801  1.4874 -0.1095  3.0229
   47MOL   H12612178   7.033   7.793   3.960  1.1755 -0.4305 -0.0563
   47MOL   H12712179   7.119   0.040   3.819 -2.3621  1.0079 -2.3956
   47MOL   H12812180   7.163   7.659   3.708 -0.6866 -2.1170 -0.4235
   47MOL   H12912181   7.065   7.566   3.831 -0.5500  0.7309  1.8823
   47MOL   H13012182   6.966   7.655   3.537 -0.4183 -0.7521 -1.5986
   47MOL   H13112183   6.809   7.710   3.510 -1.2096  2.8653  2.1552
   47MOL   C13212184   6.971   7.790   3.373 -0.5090  0.3918  0.2113
   47MOL   C13312185   6.919   7.717   3.255 -0.5920 -0.2233 -0.5486
   47MOL   C13412186   6.867   7.803   3.138  0.0500 -0.4232  0.0752
   47MOL   C13512187   6.768   7.721   3.221 -0.2924  0.3141 -0.0034
   47MOL   C13612188   7.125   7.791   3.365  0.4719  0.1813  0.6856
   47MOL   H13712189   6.951   0.057   3.362  0.2153  0.2982 -2.2989
   47MOL   H13812190   6.965   7.621   3.232  0.7432  0.5000 -0.9511
   47MOL   H13912191   6.850   0.071   3.148  1.3307 -0.1924 -0.0305
   47MOL   H14012192   6.887   7.766   3.038 -2.4466 -2.1623  0.1733
   47MOL   H14112193   6.687   7.771   3.274  0.0961  0.4847  0.4429
   47MOL   H14212194   6.729   7.640   3.160 -0.1845  0.0301  0.3034
   47MOL   H14312195   7.165   7.806   3.466 -0.8376  1.2209  1.0704
   47MOL   H14412196   7.171   7.700   3.326  2.2983  1.4373 -0.1620
   47MOL   C14512197   7.178   0.066   3.277 -0.3687  0.3363  0.3835
   47MOL   C14612198   7.168   0.202   3.349  0.0279  0.7683  0.6733
   47MOL   C14712199   7.184   0.331   3.272  0.0385 -0.4527 -0.3495
   47MOL   C14812200   7.046   0.287   3.319 -0.3079 -0.1729  0.1454
   47MOL   C14912201   7.326   0.043   3.235 -0.1798 -0.1471  0.3568
   47MOL   H15012202   7.132   0.067   3.178 -2.3485 -1.3421  1.2519
   47MOL   H15112203   7.228   0.209   3.440  2.5953  0.9624 -0.9667
   47MOL   H15212204   7.235   0.417   3.316  0.9584 -0.2251 -1.8466
   47MOL   H15312205   7.189   0.333   3.164  1.1241 -0.9333 -0.3074
   47MOL   H15412206   6.976   0.255   3.242  0.6578 -3.4724  0.6033
   47MOL   H15512207   7.003   0.348   3.398  1.9842  0.6790  0.7638
   47MOL   H15612208   7.341   0.129   3.170 -3.8879  0.0668 -0.2890
   47MOL   H15712209   7.393   0.056   3.320  1.8883 -0.2348 -1.2053
   47MOL   C15812210   7.359   7.754   3.152 -0.2587  0.0357 -0.1450
   47MOL   C15912211   7.478   7.676   3.217 -0.1393 -0.5042 -0.0646
   47MOL   C16012212   7.460   7.601   3.349 -0.0767  0.3749  0.3489
   47MOL   C16112213   7.466   7.524   3.221 -0.1952 -0.2055  0.0493
   47MOL   C16212214   7.399   7.801   3.003 -0.2710  0.6388 -0.7245
   47MOL   H16312215   7.267   7.695   3.149 -0.4138  0.3081 -1.3649
   47MOL   H16412216   7.576   7.717   3.196 -1.0662  1.4079 -0.8266
   47MOL   H16512217   7.364   7.625   3.394  0.4035  1.5467  0.7596
   47MOL   H16612218   7.547   7.623   3.410  1.0807 -1.2009 -0.6856
   47MOL   H16712219   7.560   7.468   3.216  0.3998  0.7346  0.4589
   47MOL   H16812220   7.378   7.469   3.191  0.7380 -2.8648  1.9332
   47MOL   H16912221   7.497   0.008   2.993  1.1949 -2.4623 -1.6156
   47MOL   H17012222   7.326   0.036   2.972 -0.9982  0.6616  0.9719
   47MOL   C17112223   7.383   7.687   2.902 -0.0668 -0.2809 -0.5781
   47MOL   C17212224   7.238   7.660   2.883  0.2378  0.3707 -0.3224
   47MOL   C17312225   7.184   7.528   2.828  0.3571  0.7257  0.0923
   47MOL   C17412226   7.169   7.557   2.975 -0.1271  0.2720  0.5852
   47MOL   C17512227   7.449   7.721   2.767 -0.3168 -0.9042  0.5546
   47MOL   H17612228   7.432   7.594   2.931  0.9086  0.4451  0.1485
   47MOL   H17712229   7.179   7.750   2.870  0.3501  0.4842 -0.0509
   47MOL   H17812230   7.088   7.515   2.779 -0.8847  1.2522  2.3164
   47MOL   H17912231   7.255   7.446   2.815 -2.0186 -1.2898 -0.4753
   47MOL   H18012232   7.227   7.499   3.047  1.3442  1.2901  0.2473
   47MOL   H18112233   7.068   7.584   3.005  0.9267  2.2470  2.5422
   47MOL   H18212234   7.400   7.809   2.724  2.3871  0.7486  0.7492
   47MOL   H18312235   7.429   7.637   2.700  2.8964 -1.7798  0.6068
   47MOL   C18412236   7.598   7.735   2.743 -0.0839 -0.0310  0.4806
   47MOL   C18512237   7.620   7.757   2.595  0.0801 -0.4018 -0.0089
   47MOL   C18612238   7.717   0.023   2.542  0.4861  0.1771  0.5673
   47MOL   C18712239   7.573   0.044   2.524  0.4165 -0.0273 -0.8104
   47MOL   C18812240   7.666   7.603   2.789 -0.7198  0.2657 -0.4406
   47MOL   H18912241   7.637   7.829   2.784  0.8106  0.3700 -1.2544
   47MOL   H19012242   7.620   7.666   2.536 -0.8855 -0.2259 -0.2838
   47MOL   H19112243   7.774   7.837   2.453  2.4581  3.0989  0.9100
   47MOL   H19212244   7.782   0.075   2.613  0.8098 -2.1999  2.0618
   47MOL   H19312245   7.539   0.039   2.421 -1.2966 -1.3104 -0.1994
   47MOL   H19412246   7.522   0.111   2.593  1.4353  0.8946 -0.9348
   47MOL   H19512247   7.751   7.580   2.724  0.4336  2.1444  0.3564
   47MOL   H19612248   7.611   7.511   2.770  0.0548 -0.3300  0.1599
   47MOL   C19712249   7.732   7.618   2.927  0.4278  0.0637 -1.0157
   47MOL   C19812250   0.017   7.705   2.920  0.2373  0.0669 -0.5284
   47MOL   C19912251   0.078   7.755   3.051 -0.1024 -0.3500  0.1091
   47MOL   C20012252   0.007   0.012   2.960  0.4391 -0.4207 -0.4422
   47MOL   C20112253   7.758   7.480   2.990 -0.4211  0.2095  0.0479
   47MOL   H20212254   7.659   7.658   2.998  0.3093 -1.5784 -0.1940
   47MOL   H20312255   0.083   7.687   2.836 -1.7358 -0.2936 -2.0439
   47MOL   H20412256   0.028   7.725   3.143 -2.5558  2.1285 -0.3402
   47MOL   H20512257   0.185   7.772   3.057 -0.2311  0.5435 -0.0627
   47MOL   H20612258   7.753   0.048   3.003  0.9028 -0.7503  0.8713
   47MOL   H20712259   0.069   0.078   2.900 -0.9389  0.8359 -0.5100
   47MOL   H20812260   7.778   7.488   3.097 -1.6102  1.8496  0.1497
   47MOL   H20912261   7.661   7.430   2.997 -1.0137  1.3675  0.1039
   47MOL   C21012262   0.018   7.377   2.926 -0.2056 -0.7421  0.2474
   47MOL   C21112263   0.145   7.355   3.013 -0.1844  0.1972  0.1315
   47MOL   C21212264   0.278   7.330   2.948 -0.3471  0.1783  0.5982
   47MOL   C21312265   0.254   7.463   3.018  0.4151 -0.3872 -0.1904
   47MOL   C21412266   7.797   7.241   2.894 -0.0209 -0.6766  0.4796
   47MOL   H21512267   0.051   7.420   2.832 -0.0855  0.6777  0.9213
   47MOL   H21612268   0.116   7.312   3.109 -1.9789  1.2090  0.0568
   47MOL   H21712269   0.354   7.264   2.990  0.8734  0.8155 -0.5838
   47MOL   H21812270   0.301   7.355   2.845 -1.2231 -1.1398  0.0699
   47MOL   H21912271   0.289   7.475   3.121  0.4599 -0.2084 -0.2266
   47MOL   H22012272   0.249   7.552   2.957 -1.6917 -1.2584 -1.3246
   47MOL   H22112273   0.037   7.167   2.905  1.1539  0.3495 -0.9006
   47MOL   H22212274   7.726   7.201   2.967  0.0228  0.0615  0.9382
   47MOL   C22312275   7.730   7.227   2.755 -0.0796 -0.2722  0.1861
   47MOL   C22412276   7.609   7.133   2.759  1.1701  0.3601  0.0093
   47MOL   C22512277   7.472   7.178   2.808  0.2625  0.4024  0.1360
   47MOL   C22612278   7.498   7.155   2.655 -0.0147 -0.5718  0.2077
   47MOL   C22712279   0.010   7.182   2.660 -0.2398  0.0167  0.3852
   47MOL   H22812280   7.691   7.323   2.723  2.4708  1.0675  1.0100
   47MOL   H22912281   7.623   7.026   2.773 -0.1825  0.0121 -1.2197
   47MOL   H23012282   7.464   7.277   2.851  2.8711  0.0102  1.6142
   47MOL   H23112283   7.408   7.100   2.848  1.2963 -1.0903 -1.0588
   47MOL   H23212284   7.465   7.059   2.616 -0.1079 -0.7327  0.6807
   47MOL   H23312285   7.500   7.240   2.589 -0.5280 -0.8181 -0.1250
   47MOL   H23412286   0.102   7.232   2.690  0.3736 -1.3500  0.8175
   47MOL   H23512287   0.044   7.080   2.679  1.2384  0.0661 -1.8996
   47MOL   C23612288   7.821   7.202   2.513 -0.2027  0.4429 -0.0937
   47MOL   C23712289   0.086   7.124   2.427 -0.3394 -0.4564  0.5196
   47MOL   C23812290   0.079   6.980   2.414 -0.4557 -0.4049  0.7741
   47MOL   C23912291   0.047   7.065   2.294  0.5519 -0.3338 -0.0440
   47MOL   C24012292   7.825   7.359   2.478  0.0385  0.0638 -0.3232
   47MOL   H24112293   7.725   7.168   2.475 -0.4023 -0.4576  1.1869
   47MOL   H24212294   0.188   7.163   2.434 -0.3893 -0.0151 -1.0609
   47MOL   H24312295   0.170   6.920   2.416  0.2035  0.5428 -0.4682
   47MOL   H24412296   7.833   6.940   2.468 -1.0847  1.0120  0.8274
   47MOL   H24512297   7.783   7.054   2.263  0.6152  0.9440 -0.7695
   47MOL   H24612298   0.117   7.070   2.211  2.1633  1.5274  1.3732
   47MOL   H24712299   7.744   7.413   2.528  0.2252 -0.1291  0.1902
   47MOL   H24812300   0.077   7.411   2.508  0.2596  1.1899 -2.7802
   47MOL   C24912301   7.799   7.382   2.328 -0.4182 -0.5502 -0.7146
   47MOL   C25012302   7.797   7.535   2.292  0.5431 -0.1538 -1.1825
   47MOL   C25112303   0.077   7.623   2.272  0.1334  0.3712 -0.4938
   47MOL   C25212304   7.837   7.573   2.154 -0.1619 -0.1302  0.1117
   47MOL   C25312305   7.661   7.339   2.281  0.1229  0.4709  0.2820
   47MOL   H25412306   0.044   7.336   2.277  0.5905 -0.6495  0.9983
   47MOL   H25512307   7.722   7.580   2.356  1.7319  0.8094 -0.4543
   47MOL   H25612308   0.071   7.731   2.282 -0.1297  0.3568 -0.5108
   47MOL   H25712309   0.179   7.593   2.297  0.0166  1.1936  1.0774
   47MOL   H25812310   7.776   7.642   2.096 -0.3564 -0.6984 -0.3621
   47MOL   H25912311   0.052   7.504   2.089  1.5845 -0.6180  2.0501
   47MOL   H26012312   7.659   7.230   2.281  0.8430  0.4446 -1.1573
   47MOL   H26112313   7.635   7.377   2.182 -0.0290 -2.0112 -0.6805
   47MOL   H26212314   7.584   7.381   2.346  1.3472  1.6055  0.9989
   48MOL     C112315   1.084   0.227   4.370  0.5181 -0.3747  0.3550
   48MOL     C212316   1.197   0.312   4.309 -0.0813  0.1735  0.6936
   48MOL     C312317   1.282   0.265   4.192 -0.3841  0.6600  0.2062
   48MOL     C412318   1.338   0.258   4.332  0.4207  0.5520  0.0669
   48MOL     C512319   0.979   0.171   4.280  0.2226  0.8057  0.0999
   48MOL     H612320   1.128   0.149   4.433  3.9133  2.0108  1.0975
   48MOL     H712321   1.174   0.418   4.317  1.0677  0.3882  1.2937
   48MOL     H812322   1.251   0.170   4.149 -0.6684  0.7941  0.1124
   48MOL     H912323   1.318   0.340   4.122  0.1296 -0.2873 -0.5590
   48MOL    H1012324   1.423   0.325   4.344  1.0738  0.2061 -2.2414
   48MOL    H1112325   1.363   0.158   4.366  4.4348  1.2551 -0.5260
   48MOL    H1212326   1.022   0.089   4.222 -0.4236 -0.6723  1.6717
   48MOL    H1312327   0.952   0.257   4.218 -1.5781  0.9090  0.9878
   48MOL    H1412328   1.028   0.287   4.441  3.2606 -1.6182  3.7348
   48MOL    C1512329   0.846   0.119   4.351  0.0270 -0.1166  0.9486
   48MOL    C1612330   0.740   0.108   4.244  0.1322  0.2064 -0.2421
   48MOL    C1712331   0.666   0.230   4.194 -0.1047  0.1592 -0.6447
   48MOL    C1812332   0.594   0.123   4.269 -0.5901 -0.5425 -0.2952
   48MOL    C1912333   0.864   7.827   4.428 -0.5634  0.1241 -0.0334
   48MOL    H2012334   0.814   0.196   4.421 -1.4950  0.6400 -0.5428
   48MOL    H2112335   0.769   0.040   4.164  2.2539  2.4420 -1.4097
   48MOL    H2212336   0.648   0.236   4.087  0.0609 -0.8082 -0.7311
   48MOL    H2312337   0.686   0.327   4.238 -0.7502  0.5543 -1.2158
   48MOL    H2412338   0.553   0.159   4.363  1.9120  1.7922 -0.0326
   48MOL    H2512339   0.521   0.063   4.214  0.2489  1.3660 -3.6381
   48MOL    H2612340   0.936   0.018   4.503  0.8856  1.7711 -2.0214
   48MOL    H2712341   0.907   7.754   4.358 -0.3436  0.4462 -0.2336
   48MOL    C2812342   0.748   7.766   4.497 -0.9313  0.3507  0.3020
   48MOL    C2912343   0.736   7.809   4.648  0.4123  0.1233 -0.7523
   48MOL    C3012344   0.743   0.116   4.686  0.5882  1.2501 -0.0419
   48MOL    C3112345   0.611   0.038   4.702 -0.4391  0.5442  0.3109
   48MOL    C3212346   0.730   7.614   4.468  1.0123  0.1962 -0.0064
   48MOL    H3312347   0.662   7.823   4.464  0.6629  2.4598 -0.2639
   48MOL    H3412348   0.783   7.742   4.720  0.7535  1.9160  0.7307
   48MOL    H3512349   0.724   0.194   4.613 -2.0904  0.2536 -0.4419
   48MOL    H3612350   0.808   0.129   4.773 -0.2000 -1.3781  0.9961
   48MOL    H3712351   0.531   0.051   4.629  1.2187  1.3222 -1.4297
   48MOL    H3812352   0.591   0.017   4.806 -0.0306  1.7048  0.6352
   48MOL    H3912353   0.824   7.569   4.500  1.3715  1.5021  0.8420
   48MOL    H4012354   0.724   7.595   4.361  0.1311  2.2168 -0.3404
   48MOL    C4112355   0.599   7.556   4.525 -0.5121 -0.7500  0.4922
   48MOL    C4212356   0.609   7.404   4.532  0.6131  0.0875  0.5462
   48MOL    C4312357   0.694   7.332   4.635  1.3023 -0.5999  0.4539
   48MOL    C4412358   0.723   7.309   4.489  0.0241 -0.1602  0.4646
   48MOL    C4512359   0.491   7.595   4.430 -1.0601 -0.3153 -0.2817
   48MOL    H4612360   0.588   7.596   4.626 -0.2853 -1.7991  0.9373
   48MOL    H4712361   0.514   7.355   4.513  1.9521 -1.8213 -1.5091
   48MOL    H4812362   0.777   7.387   4.680  1.2203 -1.2442  1.4151
   48MOL    H4912363   0.640   7.268   4.705 -0.5061  2.3308  1.8210
   48MOL    H5012364   0.694   7.217   4.438 -2.7112 -0.3682  2.3092
   48MOL    H5112365   0.813   7.349   4.442 -0.4104 -0.2606 -0.4728
   48MOL    H5212366   0.520   7.563   4.330  1.7137 -2.8893  1.2547
   48MOL    H5312367   0.480   7.703   4.426 -2.3704 -0.4335 -0.2744
   48MOL    C5412368   0.338   7.551   4.467 -0.2601 -0.6758 -0.5101
   48MOL    C5512369   0.303   7.624   4.595  0.2463  0.4195  0.0547
   48MOL    C5612370   0.330   7.574   4.739  0.1447 -0.2939 -0.3517
   48MOL    C5712371   0.197   7.564   4.683 -0.2283 -0.4150  0.2327
   48MOL    C5812372   0.232   7.594   4.360 -0.5391  0.3094 -0.1846
   48MOL    H5912373   0.330   7.443   4.473 -1.1342 -0.6866 -1.8522
   48MOL    H6012374   0.309   7.732   4.585 -0.6315  0.6089  1.4720
   48MOL    H6112375   0.393   7.487   4.759 -1.0332 -0.7782  1.4211
   48MOL    H6212376   0.348   7.657   4.807  0.2111 -0.8343  0.2928
   48MOL    H6312377   0.124   7.636   4.720 -0.2148 -0.4775  0.3813
   48MOL    H6412378   0.158   7.466   4.656  0.5205 -1.3495  2.4006
   48MOL    H6512379   0.136   7.565   4.402  0.1026 -0.2218  0.9362
   48MOL    H6612380   0.222   7.703   4.353  0.1282  0.3850  0.0465
   48MOL    C6712381   0.272   7.533   4.220  0.0024  0.6673  0.5010
   48MOL    C6812382   0.150   7.480   4.154  0.3540  0.4012  0.7095
   48MOL    C6912383   0.156   7.397   4.027  0.6100 -0.2636 -0.4979
   48MOL    C7012384   0.111   7.335   4.155  0.4292 -0.0805 -0.1726
   48MOL    C7112385   0.348   7.636   4.139  0.9038  0.4321  0.3811
   48MOL    H7212386   0.341   7.453   4.245  0.2108  0.7988  0.3411
   48MOL    H7312387   0.059   7.539   4.168 -0.5543 -0.4914 -1.1625
   48MOL    H7412388   0.080   7.419   3.952  1.8845  1.6667 -1.2656
   48MOL    H7512389   0.239   7.347   3.977 -1.4580 -0.0752 -4.2811
   48MOL    H7612390   0.178   7.264   4.203 -0.6897 -0.4436  0.8730
   48MOL    H7712391   0.008   7.303   4.167  0.4212  0.1221  0.3099
   48MOL    H7812392   0.403   7.686   4.218 -1.7730  0.3033  2.3820
   48MOL    H7912393   0.269   7.704   4.108 -0.7972 -0.7459  2.0488
   48MOL    C8012394   0.433   7.593   4.013 -0.0456 -0.1071 -0.0333
   48MOL    C8112395   0.569   7.542   4.063 -0.1643  0.4727 -0.6532
   48MOL    C8212396   0.641   7.438   3.983  0.0691  0.5354  0.3316
   48MOL    C8312397   0.590   7.399   4.116 -0.1765 -0.1656 -0.4487
   48MOL    C8412398   0.457   7.705   3.916 -0.4155  0.2263 -0.3637
   48MOL    H8512399   0.382   7.518   3.954  1.4924 -1.1679 -0.0444
   48MOL    H8612400   0.629   7.619   4.110 -0.4668 -0.1237  0.7223
   48MOL    H8712401   0.749   7.445   3.967  0.1011  0.5018  0.5364
   48MOL    H8812402   0.589   7.400   3.895  2.6963 -0.7251 -0.7352
   48MOL    H8912403   0.506   7.332   4.132  1.0604 -1.2383  1.7994
   48MOL    H9012404   0.658   7.374   4.197 -2.1008 -3.1423  0.3238
   48MOL    H9112405   0.501   7.788   3.971 -1.4304  0.1530  0.5740
   48MOL    H9212406   0.524   7.682   3.833  2.2624  0.3639  1.6745
   48MOL    C9312407   0.337   7.767   3.844 -0.2014 -0.1713  0.1696
   48MOL    C9412408   0.366   0.075   3.816  0.0203 -0.1909  0.0619
   48MOL    C9512409   0.260   0.174   3.793  0.0715 -0.3321 -0.3336
   48MOL    C9612410   0.339   0.179   3.928 -0.4625  0.1855  0.0204
   48MOL    C9712411   0.303   7.700   3.707 -1.0255  0.6719  0.6031
   48MOL    H9812412   0.251   7.768   3.910 -1.5206 -1.1672 -1.4985
   48MOL    H9912413   0.449   0.097   3.749 -1.1218 -1.9713 -1.9986
   48MOL   H10012414   0.276   0.253   3.719 -0.0715  0.2106  0.2126
   48MOL   H10112415   0.157   0.141   3.805  0.1037  0.1405  1.3650
   48MOL   H10212416   0.419   0.251   3.943 -0.8030  0.3791  0.9056
   48MOL   H10312417   0.289   0.141   4.017 -2.0128  1.0128 -0.4667
   48MOL   H10412418   0.340   7.598   3.714  0.4936  1.3232  2.6354
   48MOL   H10512419   0.362   7.747   3.628 -1.2334 -0.5214 -0.2854
   48MOL   C10612420   0.149   7.705   3.668 -0.2232 -0.7610 -0.8303
   48MOL   C10712421   0.143   7.674   3.520  0.4817  0.2975  0.1493
   48MOL   C10812422   0.031   7.725   3.435  0.6119 -0.2433 -0.3039
   48MOL   C10912423   0.173   7.779   3.410  0.1865  0.1461 -0.5964
   48MOL   C11012424   0.054   7.616   3.753 -0.1079  0.3787 -0.1074
   48MOL   H11112425   0.124   7.811   3.680  1.8302 -0.0006 -2.8127
   48MOL   H11212426   0.180   7.575   3.494  1.1038  1.1414 -2.2703
   48MOL   H11312427   7.829   7.660   3.357  0.6526  0.9973 -1.3718
   48MOL   H11412428   7.797   7.787   3.487  1.0722  1.2652 -1.4355
   48MOL   H11512429   0.196   0.041   3.442  2.3421  0.1512 -2.0508
   48MOL   H11612430   0.232   7.740   3.328  0.9733  2.3941 -1.1304
   48MOL   H11712431   0.073   7.517   3.712 -1.8357  0.5634 -1.3989
   48MOL   H11812432   0.096   7.616   3.854  0.7001 -1.1140 -0.4253
   48MOL   C11912433   7.743   7.654   3.746 -0.7620 -0.2662  0.1639
   48MOL   C12012434   7.659   7.528   3.786  0.1073 -0.5917  0.2042
   48MOL   C12112435   7.624   7.423   3.680  0.1988  0.8103 -0.1834
   48MOL   C12212436   7.520   7.519   3.725  0.7238 -0.2617 -0.6211
   48MOL   C12312437   7.713   7.776   3.844 -0.6152 -0.2029  0.3758
   48MOL   H12412438   7.721   7.687   3.644  2.3895 -1.1377 -0.8408
   48MOL   H12512439   7.675   7.495   3.888 -0.7827  1.7187  1.1429
   48MOL   H12612440   7.621   7.319   3.712  0.2261  1.1529  0.9820
   48MOL   H12712441   7.683   7.437   3.590  0.3849  1.3750  0.0213
   48MOL   H12812442   7.489   7.596   3.655  0.9989 -0.6254 -1.1457
   48MOL   H12912443   7.438   7.473   3.781 -0.5474  3.0129  0.3038
   48MOL   H13012444   7.737   7.738   3.943  0.1554 -0.9926 -0.1038
   48MOL   H13112445   7.786   0.016   3.828  0.4653 -0.8050  2.2003
   48MOL   C13212446   7.572   7.837   3.827 -0.2547  0.4775  0.2381
   48MOL   C13312447   7.575   0.099   3.712  0.0296  0.0686 -0.6633
   48MOL   C13412448   7.442   0.124   3.644 -0.8321  0.1328  0.1114
   48MOL   C13512449   7.554   0.071   3.566  0.4397  0.1812 -0.4200
   48MOL   C13612450   7.510   0.055   3.958  0.2831  0.4793  0.1764
   48MOL   H13712451   7.506   7.754   3.801  1.4699 -1.2053  1.0582
   48MOL   H13812452   7.640   0.183   3.736 -2.1289  1.2522  1.3513
   48MOL   H13912453   7.360   0.054   3.652 -0.7188 -0.2778 -2.1523
   48MOL   H14012454   7.419   0.230   3.636  0.2905  0.3539 -0.3186
   48MOL   H14112455   7.542   7.809   3.528  0.5385 -0.3478  0.9349
   48MOL   H14212456   7.569   0.138   3.481 -1.8042  0.0869 -0.9220
   48MOL   H14312457   7.560   0.142   4.002  2.0832 -1.6374  2.5151
   48MOL   H14412458   7.413   0.095   3.931 -1.9068 -4.3428  0.5675
   48MOL   C14512459   7.490   7.792   4.081 -0.2354  1.4181 -0.0512
   48MOL   C14612460   7.450   0.038   4.203 -0.2741  0.0151  0.3015
   48MOL   C14712461   7.507   0.019   4.347  0.0626  0.3163  0.7100
   48MOL   C14812462   7.545   0.140   4.264  1.1147  0.7090  0.0304
   48MOL   C14912463   7.373   7.689   4.052 -0.1529 -0.0468  0.0182
   48MOL   H15012464   7.585   7.746   4.108 -0.5141  1.1207  0.4187
   48MOL   H15112465   7.343   0.058   4.196  0.0644  1.5555 -0.6435
   48MOL   H15212466   7.455   0.058   4.434  0.5064  0.4985  0.8983
   48MOL   H15312467   7.578   7.777   4.356 -2.3614 -1.8555  0.7020
   48MOL   H15412468   7.648   0.139   4.229  0.6907 -1.1974 -1.2790
   48MOL   H15512469   7.501   0.224   4.316 -1.3352 -0.9567  0.7144
   48MOL   H15612470   7.282   7.745   4.030  0.6807  2.6725  3.0983
   48MOL   H15712471   7.396   7.627   3.965 -2.7567  1.1165 -1.5524
   48MOL   C15812472   7.355   7.588   4.170  0.7736 -0.1304  0.6521
   48MOL   C15912473   7.461   7.476   4.146 -0.2267 -0.1813  0.3263
   48MOL   C16012474   7.606   7.481   4.191  1.0618  0.0128  0.0589
   48MOL   C16112475   7.513   7.385   4.260  0.1243 -0.7635  0.7053
   48MOL   C16212476   7.214   7.529   4.180  0.4370 -0.5856 -0.3873
   48MOL   H16312477   7.373   7.640   4.263 -2.7498 -0.8064  1.7889
   48MOL   H16412478   7.436   7.422   4.055  0.2723  1.6811 -0.9390
   48MOL   H16512479   7.639   7.564   4.253  2.4304 -2.1097  2.2951
   48MOL   H16612480   7.690   7.449   4.130 -0.1916 -3.0327 -0.1477
   48MOL   H16712481   7.546   7.283   4.244 -3.3782 -2.2287  2.4091
   48MOL   H16812482   7.489   7.417   4.361 -3.2122  1.1655 -0.6167
   48MOL   H16912483   7.215   7.426   4.217  2.6144 -0.7158 -0.7379
   48MOL   H17012484   7.205   7.510   4.073  1.8539 -3.0745 -0.1057
   48MOL   C17112485   7.093   7.619   4.237  0.8299  0.3989 -0.1182
   48MOL   C17212486   6.965   7.536   4.229 -0.3061  0.7755  0.0327
   48MOL   C17312487   6.828   7.578   4.210 -0.3908  0.1423 -0.5844
   48MOL   C17412488   6.894   7.515   4.096  0.0217  0.0513  0.1564
   48MOL   C17512489   7.126   7.660   4.381 -0.3496 -0.4819 -0.1712
   48MOL   H17612490   7.084   7.708   4.175  0.2509 -0.1282 -0.7962
   48MOL   H17712491   6.977   7.450   4.293  1.6665  1.8420  1.1595
   48MOL   H17812492   6.752   7.521   4.263 -1.7853  3.7536  1.5128
   48MOL   H17912493   6.814   7.685   4.226 -1.2606 -0.2324  1.3113
   48MOL   H18012494   6.924   7.567   4.006 -0.1677  1.8260  1.0938
   48MOL   H18112495   6.872   7.410   4.079 -0.0586  0.0968 -0.0215
   48MOL   H18212496   7.223   7.707   4.383  0.4287 -2.0545  0.2201
   48MOL   H18312497   7.143   7.581   4.455  2.1561  0.7172  0.5880
   48MOL   C18412498   7.041   7.776   4.438  0.1923  0.1132 -0.5500
   48MOL   C18512499   7.060   0.064   4.356 -0.0873 -0.0170 -0.8068
   48MOL   C18612500   6.981   0.191   4.377 -0.5517  0.2174 -1.0922
   48MOL   C18712501   6.950   0.100   4.259 -0.6928  0.3116 -0.2410
   48MOL   C18812502   7.070   7.793   4.592  0.1900  0.0793  0.1109
   48MOL   H18912503   6.936   7.752   4.422  0.2884 -0.1416 -0.7876
   48MOL   H19012504   7.164   0.093   4.349  0.0901 -0.0286  1.6122
   48MOL   H19112505   7.022   0.288   4.352  0.6007  0.1485  0.4805
   48MOL   H19212506   6.906   0.187   4.456  0.9943  0.6204  0.4105
   48MOL   H19312507   6.983   0.150   4.169 -0.3380  0.2787 -0.1290
   48MOL   H19412508   6.846   0.068   4.264 -1.1001  1.4670 -0.9895
   48MOL   H19512509   7.046   0.053   4.630 -0.4584 -0.2162  0.4879
   48MOL   H19612510   7.179   7.792   4.603  0.1159 -1.9988  0.9562
   48MOL   C19712511   7.005   7.675   4.676 -0.0059 -0.3923  0.2168
   48MOL   C19812512   6.858   7.669   4.656  0.5335 -0.2852  0.1939
   48MOL   C19912513   6.782   7.554   4.715 -0.2678  0.5782  0.3735
   48MOL   C20012514   6.782   7.571   4.566  0.0886 -0.1868 -0.6030
   48MOL   C20112515   7.038   7.699   4.824  0.2228  0.0242 -0.6100
   48MOL   H20212516   7.048   7.581   4.641  0.6474  0.4253 -1.1566
   48MOL   H20312517   6.817   7.770   4.646 -3.1853 -1.6865  0.5017
   48MOL   H20412518   6.855   7.486   4.761  0.5519 -0.2484 -2.0940
   48MOL   H20512519   6.694   7.579   4.774 -0.7308  1.3394 -0.6466
   48MOL   H20612520   6.846   7.506   4.507  0.7482 -0.0421 -0.0458
   48MOL   H20712521   6.691   7.602   4.514 -0.8184 -0.0316  1.0602
   48MOL   H20812522   6.981   7.790   4.841 -1.7779 -0.5164 -3.8673
   48MOL   H20912523   6.997   7.618   4.884  1.2057  0.8209  1.1612
   48MOL   C21012524   7.184   7.713   4.864 -0.7532 -0.4518 -0.3746
   48MOL   C21112525   7.205   7.737   5.017 -0.0690  0.4287  0.0284
   48MOL   C21212526   7.081   7.731   5.110 -0.0172  0.4671  0.4489
   48MOL   C21312527   7.189   7.623   5.114  0.5156 -0.1292 -0.1522
   48MOL   C21412528   7.279   7.589   4.824  0.3211 -0.3896 -0.1319
   48MOL   H21512529   7.214   7.807   4.817 -1.2509 -0.0824  0.0305
   48MOL   H21612530   7.269   7.822   5.040 -2.4982  1.7674  2.0568
   48MOL   H21712531   7.077   7.801   5.194  2.3398  0.3758  0.6813
   48MOL   H21812532   6.984   7.705   5.069 -1.2369 -0.6118  3.8265
   48MOL   H21912533   7.259   7.614   5.197 -1.8099  0.2211  1.9104
   48MOL   H22012534   7.153   7.528   5.077 -1.8905  1.5202 -2.2377
   48MOL   H22112535   7.269   7.500   4.887 -1.0107 -1.2385 -1.4926
   48MOL   H22212536   7.245   7.560   4.724  1.1216 -1.6577 -0.0431
   48MOL   C22312537   7.426   7.611   4.798  0.2661 -0.0149 -0.1569
   48MOL   C22412538   7.453   7.716   4.697 -0.5688  0.3402  0.4073
   48MOL   C22512539   7.479   0.017   4.736  0.2013  0.0194  0.0592
   48MOL   C22612540   7.587   7.773   4.685  0.5074 -0.2903 -0.1354
   48MOL   C22712541   7.497   7.486   4.751 -0.0791  0.1577  0.7661
   48MOL   H22812542   7.468   7.644   4.893  1.7733  0.0252 -0.8216
   48MOL   H22912543   7.394   7.714   4.606 -1.5044 -0.6325  1.0143
   48MOL   H23012544   7.474   0.033   4.843 -0.9495  0.0580  0.0134
   48MOL   H23112545   7.454   0.106   4.678  4.0966  1.4587  0.4135
   48MOL   H23212546   7.624   7.778   4.583  0.2656 -1.2724 -0.2683
   48MOL   H23312547   7.667   7.745   4.754 -0.1936 -1.2241  0.3124
   48MOL   H23412548   7.470   7.473   4.646 -4.1959  1.8062  1.4949
   48MOL   H23512549   7.601   7.515   4.749 -0.1024  0.1790 -0.0494
   48MOL   C23612550   7.480   7.354   4.836 -0.3891 -0.2967 -0.1865
   48MOL   C23712551   7.548   7.351   4.973 -0.0332  0.7735  0.0410
   48MOL   C23812552   7.474   7.353   5.103 -0.9133 -0.3984  0.2622
   48MOL   C23912553   7.529   7.228   5.055  0.2798  0.0944 -0.1520
   48MOL   C24012554   7.517   7.229   4.749 -0.5288 -0.1038 -0.3920
   48MOL   H24112555   7.374   7.349   4.861 -0.5295  1.8425 -0.3334
   48MOL   H24212556   7.646   7.398   4.984  0.6201 -0.5442  0.0722
   48MOL   H24312557   7.533   7.385   5.189 -0.6447  1.1983 -0.4937
   48MOL   H24412558   7.366   7.363   5.092 -0.6903 -0.0777 -1.7896
   48MOL   H24512559   7.460   7.153   5.017  0.7378 -0.2097 -0.3887
   48MOL   H24612560   7.620   7.188   5.100  0.4205 -2.0608 -2.2350
   48MOL   H24712561   7.624   7.233   4.731 -0.6879  0.6562 -1.1922
   48MOL   H24812562   7.505   7.140   4.810  1.3957  0.1459  0.3849
   48MOL   C24912563   7.438   7.197   4.616 -0.3533  0.7348 -0.2750
   48MOL   C25012564   7.287   7.206   4.634 -0.8285  0.1730 -0.1046
   48MOL   C25112565   7.213   7.333   4.613  0.6284  0.1141 -0.3455
   48MOL   C25212566   7.191   7.221   4.518 -0.0610 -0.6728 -0.1073
   48MOL   C25312567   7.475   7.058   4.572 -0.0588  0.1912 -0.0841
   48MOL   H25412568   7.469   7.254   4.529 -0.4979 -0.9851 -1.4791
   48MOL   H25512569   7.241   7.147   4.713  0.2152 -2.1377 -1.1509
   48MOL   H25612570   7.148   7.355   4.697  1.7272  1.3091  0.2045
   48MOL   H25712571   7.271   7.417   4.575  0.3519  1.6227  2.5195
   48MOL   H25812572   7.098   7.165   4.526 -1.2647  0.8299 -2.8543
   48MOL   H25912573   7.244   7.216   4.423 -0.7906  1.1531 -0.6240
   48MOL   H26012574   7.415   7.050   4.481  0.8323 -0.8652 -0.5968
   48MOL   H26112575   7.433   6.986   4.642 -2.2787  0.7489 -0.7815
   48MOL   H26212576   7.581   7.039   4.555  0.5169  1.8011  1.5843
   49MOL     C112577   2.151   7.335   3.640  0.1282  0.6726  0.6895
   49MOL     C212578   2.061   7.455   3.655  0.2682 -0.3282  0.0521
   49MOL     C312579   2.073   7.569   3.557 -0.2332  0.5067  0.4690
   49MOL     C412580   2.123   7.588   3.694  0.2382 -0.9084  0.0812
   49MOL     C512581   2.145   7.241   3.753  0.0474  0.1016 -0.4451
   49MOL     H612582   2.113   7.292   3.547 -0.7834  2.2833  0.2854
   49MOL     H712583   1.960   7.442   3.695  0.4278 -1.0287  0.2275
   49MOL     H812584   2.138   7.560   3.469  0.7569 -2.2306  1.4310
   49MOL     H912585   1.984   7.630   3.538  0.5850  1.4221 -0.5499
   49MOL    H1012586   2.066   7.641   3.770 -1.7038  0.6867 -2.3904
   49MOL    H1112587   2.231   7.588   3.701  0.1511  1.5932  2.0914
   49MOL    H1212588   2.041   7.213   3.773 -0.2740  2.2865  1.1513
   49MOL    H1312589   2.183   7.286   3.845 -2.1721  3.1356 -0.9210
   49MOL    H1412590   2.254   7.360   3.619  0.4326 -0.2229  1.0954
   49MOL    C1512591   2.224   7.113   3.740 -0.0638 -0.4877  0.4453
   49MOL    C1612592   2.373   7.142   3.727  0.7888 -0.2347 -0.3360
   49MOL    C1712593   2.444   7.162   3.598  0.2294  0.4564  0.1711
   49MOL    C1812594   2.480   7.042   3.681 -1.0395 -0.7325 -0.1293
   49MOL    C1912595   2.193   7.022   3.861  0.1266  0.4458  0.1790
   49MOL    H2012596   2.192   7.075   3.643  2.0782  2.3496 -1.4470
   49MOL    H2112597   2.405   7.220   3.796  3.3302 -0.8161 -0.7935
   49MOL    H2212598   2.511   7.247   3.589  0.3768  0.6766  2.9482
   49MOL    H2312599   2.378   7.154   3.511  1.1510  0.9789 -0.5806
   49MOL    H2412600   2.467   6.940   3.646  0.2289 -0.5232 -1.2352
   49MOL    H2512601   2.570   7.058   3.741  0.0016 -1.6952 -1.4066
   49MOL    H2612602   2.087   7.023   3.886  0.1852  1.0932  0.4027
   49MOL    H2712603   2.246   7.047   3.953  0.2062 -2.4589  0.9730
   49MOL    C2812604   2.218   6.872   3.827 -0.6872 -0.0889  0.0429
   49MOL    C2912605   2.136   6.818   3.716 -0.1606 -0.1679 -0.3882
   49MOL    C3012606   2.183   6.821   3.574 -0.2669  0.0527  0.1073
   49MOL    C3112607   2.173   6.691   3.642  0.2470  0.4133  0.6186
   49MOL    C3212608   2.205   6.781   3.949 -0.4863  0.1201 -0.2186
   49MOL    H3312609   2.324   6.868   3.800 -0.8289 -0.6744 -0.4458
   49MOL    H3412610   2.030   6.836   3.734  0.0194  1.8540 -1.2546
   49MOL    H3512611   2.281   6.866   3.561  0.0804 -0.8481 -0.5105
   49MOL    H3612612   2.107   6.833   3.497 -0.9490 -0.3727  0.7080
   49MOL    H3712613   2.271   6.645   3.654  0.2728  0.3365  0.1377
   49MOL    H3812614   2.096   6.624   3.604  2.0416 -1.5550  0.3516
   49MOL    H3912615   2.217   6.678   3.917  0.4951 -0.1999  1.1800
   49MOL    H4012616   2.104   6.793   3.990  0.2421  1.7842  1.1569
   49MOL    C4112617   2.304   6.794   4.067  0.2283  0.0854  0.2572
   49MOL    C4212618   2.446   6.756   4.023  0.0226 -0.2544  0.0902
   49MOL    C4312619   2.572   6.792   4.094 -0.8118 -0.1590 -0.1337
   49MOL    C4412620   2.543   6.865   3.970 -0.6650  0.2575 -0.0748
   49MOL    C4512621   2.260   6.705   4.185 -0.1721  0.1103  1.1141
   49MOL    H4612622   2.300   6.898   4.101 -0.8568  0.0786  0.1534
   49MOL    H4712623   2.447   6.657   3.978  0.9387 -0.9279  1.5532
   49MOL    H4812624   2.579   6.860   4.179  0.3348  0.1745 -0.4888
   49MOL    H4912625   2.662   6.731   4.096 -0.3335  0.4488 -2.3213
   49MOL    H5012626   2.615   6.848   3.890 -0.3416  0.5595  0.1462
   49MOL    H5112627   2.515   6.968   3.991 -0.7329  0.0224  1.0167
   49MOL    H5212628   2.351   6.693   4.244 -1.3267  0.0300  2.9141
   49MOL    H5312629   2.229   6.609   4.144  0.7471 -1.2030  3.3533
   49MOL    C5412630   2.152   6.750   4.294  0.0400  0.1568 -0.5116
   49MOL    C5512631   2.028   6.814   4.234 -0.0187 -0.4318  0.1271
   49MOL    C5612632   2.014   6.963   4.207  0.5312 -0.0409 -0.0229
   49MOL    C5712633   1.938   6.898   4.320  0.3122  0.2612 -0.8623
   49MOL    C5812634   2.116   6.628   4.384 -0.2799  0.2339 -0.6770
   49MOL    H5912635   2.183   6.832   4.359 -1.4583 -0.0611  0.4925
   49MOL    H6012636   1.967   6.743   4.178 -1.1023  0.2558  0.4210
   49MOL    H6112637   2.108   7.017   4.217  0.8842 -0.7894  0.7456
   49MOL    H6212638   1.956   6.990   4.119  0.0773 -0.8881  0.0099
   49MOL    H6312639   1.834   6.870   4.306  0.3010 -1.5578  2.4134
   49MOL    H6412640   1.973   6.931   4.417  0.1542  1.4035 -1.1854
   49MOL    H6512641   2.022   6.649   4.437 -0.3743  1.4429 -1.2928
   49MOL    H6612642   2.089   6.536   4.332  1.9757 -0.6124 -0.4043
   49MOL    C6712643   2.218   6.575   4.483 -0.0096 -0.0971  0.3921
   49MOL    C6812644   2.231   6.684   4.597  0.2711  1.3232 -0.4059
   49MOL    C6912645   2.350   6.680   4.691 -0.3498  0.4523 -0.5184
   49MOL    C7012646   2.331   6.795   4.600 -0.3868  0.6872 -0.3733
   49MOL    C7112647   2.173   6.443   4.555  0.3964  0.6159 -0.1241
   49MOL    H7212648   2.310   6.549   4.431 -0.0683 -1.5685  1.0035
   49MOL    H7312649   2.133   6.704   4.640 -0.9571 -2.2087 -1.3194
   49MOL    H7412650   2.332   6.707   4.794 -0.0532  1.0099 -0.6097
   49MOL    H7512651   2.427   6.605   4.670 -1.2893 -0.9971  1.1355
   49MOL    H7612652   2.416   6.810   4.533 -1.1389  0.8812 -1.3078
   49MOL    H7712653   2.309   6.890   4.648  0.1162 -0.2630  1.7946
   49MOL    H7812654   2.069   6.463   4.582 -0.2507 -0.9284 -1.4086
   49MOL    H7912655   2.225   6.434   4.651  0.6319 -0.1993 -0.3307
   49MOL    C8012656   2.184   6.318   4.471 -0.3492 -0.2526 -0.0581
   49MOL    C8112657   2.066   6.226   4.492 -0.1647  0.6202 -0.1100
   49MOL    C8212658   2.027   6.128   4.382  0.0396 -0.3765  0.8788
   49MOL    C8312659   1.935   6.244   4.417  0.8194 -0.7724 -0.4575
   49MOL    C8412660   2.322   6.251   4.508  0.9269  0.7906 -0.3425
   49MOL    H8512661   2.189   6.340   4.365  1.0489 -1.3970 -0.2424
   49MOL    H8612662   2.065   6.183   4.592 -1.2178  1.6834  0.3395
   49MOL    H8712663   1.996   6.035   4.429 -1.3328 -0.7357 -0.7066
   49MOL    H8812664   2.084   6.128   4.289 -0.4627  0.2111  0.5712
   49MOL    H8912665   1.936   6.331   4.352 -1.6991 -0.0182  0.4370
   49MOL    H9012666   1.844   6.221   4.473  0.2458 -0.0813 -1.0896
   49MOL    H9112667   2.396   6.324   4.541  0.0678  1.2178  0.6751
   49MOL    H9212668   2.300   6.183   4.591 -0.8981  0.7103 -0.8671
   49MOL    C9312669   2.380   6.185   4.389  0.0649 -0.4430  0.3466
   49MOL    C9412670   2.466   6.284   4.300  0.2151 -0.2102 -0.0854
   49MOL    C9512671   2.497   6.244   4.155 -0.0059 -1.2993 -0.1088
   49MOL    C9612672   2.406   6.363   4.186  0.1408 -0.5568  0.5665
   49MOL    C9712673   2.473   6.066   4.435  0.0485 -0.6309  1.0475
   49MOL    H9812674   2.298   6.151   4.326 -0.1012  0.2477  0.1786
   49MOL    H9912675   2.555   6.318   4.352  0.5333 -0.6941 -0.3072
   49MOL   H10012676   2.600   6.251   4.123  0.0795 -0.0370  0.4370
   49MOL   H10112677   2.436   6.170   4.102 -0.3797 -1.5988  0.7156
   49MOL   H10212678   2.445   6.462   4.162 -2.1720  0.5916  1.4395
   49MOL   H10312679   2.301   6.341   4.170  0.5596 -3.1055  1.0776
   49MOL   H10412680   2.528   6.096   4.524  1.7076  0.6434 -0.3875
   49MOL   H10512681   2.545   6.053   4.355  1.9500  1.2061  2.4011
   49MOL   C10612682   2.407   5.931   4.465 -0.4262  0.2584 -0.2008
   49MOL   C10712683   2.320   5.931   4.590  0.6111  0.5711 -0.2021
   49MOL   C10812684   2.319   5.824   4.690  0.7735 -0.4097 -0.4483
   49MOL   C10912685   2.371   5.959   4.731  0.1975 -0.1611 -0.4556
   49MOL   C11012686   2.330   5.871   4.342 -0.1716 -0.0800  0.1980
   49MOL   H11112687   2.494   5.873   4.494 -1.0225 -1.0493 -1.0109
   49MOL   H11212688   2.217   5.957   4.570  0.5691  0.9415  0.4718
   49MOL   H11312689   2.227   5.812   4.747  0.3376 -0.7815 -1.2251
   49MOL   H11412690   2.399   5.753   4.712  0.9086 -0.3199 -0.6502
   49MOL   H11512691   2.476   5.960   4.758  0.1271  0.0045 -0.1816
   49MOL   H11612692   2.316   6.029   4.794  1.3525  0.9159 -0.6449
   49MOL   H11712693   2.221   5.874   4.353  0.1231  1.7669  3.2791
   49MOL   H11812694   2.354   5.930   4.254 -0.8235  1.5090  1.0652
   49MOL   C11912695   2.356   5.721   4.322  0.1185 -0.0248 -0.5637
   49MOL   C12012696   2.223   5.642   4.302 -0.1351  0.0179  0.3349
   49MOL   C12112697   2.120   5.634   4.418  0.7708 -0.6711  0.2174
   49MOL   C12212698   2.178   5.505   4.353  0.4645 -0.5483  0.2943
   49MOL   C12312699   2.455   5.696   4.209 -0.3071 -0.0897  0.3737
   49MOL   H12412700   2.400   5.691   4.416  0.4914  0.5169 -0.5614
   49MOL   H12512701   2.181   5.661   4.203 -0.5513  0.5943  0.6155
   49MOL   H12612702   2.016   5.656   4.395 -0.2211 -3.3673  1.8486
   49MOL   H12712703   2.152   5.662   4.518  0.8711  1.1808 -0.3274
   49MOL   H12812704   2.236   5.447   4.424  1.2586  1.0078  0.9346
   49MOL   H12912705   2.113   5.452   4.283  0.7851  0.6505 -0.9371
   49MOL   H13012706   2.455   5.593   4.173 -1.4161  0.2285 -0.5357
   49MOL   H13112707   2.426   5.753   4.121 -1.9526 -1.7469 -0.1963
   49MOL   C13212708   2.601   5.722   4.241 -0.6229 -0.2633 -0.2073
   49MOL   C13312709   2.685   5.698   4.118 -0.0010 -0.3641  0.1528
   49MOL   C13412710   2.802   5.793   4.085 -0.1155  0.6668  0.0831
   49MOL   C13512711   2.676   5.794   4.004  0.8048 -0.0218 -0.5154
   49MOL   C13612712   2.657   5.638   4.363 -0.4053 -0.5739 -0.0538
   49MOL   H13712713   2.605   5.829   4.264 -2.8432 -0.0347 -0.7227
   49MOL   H13812714   2.692   5.596   4.081  0.3093  0.3444 -1.8089
   49MOL   H13912715   2.828   5.865   4.162  1.8999  0.8746 -0.7617
   49MOL   H14012716   2.891   5.768   4.029  0.0325  1.4882 -0.0639
   49MOL   H14112717   2.628   5.890   4.013  0.5018 -0.3510  1.4826
   49MOL   H14212718   2.689   5.757   3.902 -0.1245 -0.8604 -0.3422
   49MOL   H14312719   2.594   5.636   4.451  1.0304 -0.6440  0.9870
   49MOL   H14412720   2.657   5.533   4.334  2.0197 -0.8101  0.6812
   49MOL   C14512721   2.805   5.690   4.402  0.7723  0.6129 -0.0001
   49MOL   C14612722   2.804   5.806   4.508  0.6075 -0.0364 -0.0905
   49MOL   C14712723   2.919   5.894   4.528  0.3799  0.3676  0.2044
   49MOL   C14812724   2.791   5.946   4.472 -0.2683  0.4449  0.1690
   49MOL   C14912725   2.896   5.566   4.446 -0.1094  0.2924  0.0248
   49MOL   H15012726   2.859   5.745   4.325  0.6756  0.4231 -0.2047
   49MOL   H15112727   2.734   5.790   4.590 -0.5253  0.5943 -0.9219
   49MOL   H15212728   2.954   5.933   4.623 -2.8867  2.8619  0.4946
   49MOL   H15312729   3.001   5.878   4.458 -1.0418  0.8474 -1.6178
   49MOL   H15412730   2.817   5.990   4.376  0.6667  0.4748  0.4274
   49MOL   H15512731   2.731   6.012   4.534 -2.0427 -1.8397  0.9574
   49MOL   H15612732   2.879   5.540   4.550  0.4979 -0.9456 -0.1663
   49MOL   H15712733   2.866   5.475   4.394 -1.1405  1.5590 -1.6320
   49MOL   C15812734   3.052   5.566   4.431  0.2922 -0.1535 -0.6190
   49MOL   C15912735   3.090   5.549   4.279  0.1005  0.8799  0.2862
   49MOL   C16012736   3.137   5.655   4.178 -0.0663 -0.0177  0.3006
   49MOL   C16112737   3.244   5.572   4.241  0.4248  0.7608 -0.3581
   49MOL   C16212738   3.122   5.470   4.524  0.6304 -0.3832  0.1058
   49MOL   H16312739   3.091   5.667   4.448 -3.0712  0.7107  2.5821
   49MOL   H16412740   3.029   5.479   4.224  1.2213  0.3531 -0.3030
   49MOL   H16512741   3.122   5.752   4.224  0.4160  0.4718 -0.5536
   49MOL   H16612742   3.095   5.638   4.079 -0.8728  0.1470  0.6118
   49MOL   H16712743   3.291   5.495   4.181 -0.7114 -0.1522 -0.1061
   49MOL   H16812744   3.317   5.610   4.312  1.2536 -3.0644  0.9601
   49MOL   H16912745   3.205   5.415   4.478 -0.3099 -0.9718 -0.9058
   49MOL   H17012746   3.053   5.394   4.561  0.0300  1.3981  2.7991
   49MOL   C17112747   3.184   5.532   4.649 -0.2794 -0.0961 -0.3218
   49MOL   C17212748   3.213   5.419   4.750 -0.2609  0.0783  0.2793
   49MOL   C17312749   3.198   5.440   4.902 -0.2026  0.3107  0.0204
   49MOL   C17412750   3.096   5.353   4.822 -0.1756 -0.0513  0.1060
   49MOL   C17512751   3.311   5.606   4.606  0.0628  0.0132 -0.3378
   49MOL   H17612752   3.102   5.589   4.693 -0.7619 -0.6884 -0.4420
   49MOL   H17712753   3.289   5.350   4.714 -0.2516  0.1713  0.1190
   49MOL   H17812754   3.272   5.392   4.965  0.1309  0.9832  0.1385
   49MOL   H17912755   3.165   5.538   4.936  1.5211  1.1792 -0.7520
   49MOL   H18012756   2.997   5.393   4.802 -0.6976 -1.8973 -1.1400
   49MOL   H18112757   3.106   5.245   4.819 -2.7371 -0.2656 -1.9970
   49MOL   H18212758   3.291   5.688   4.537  0.2228 -0.7174 -1.2674
   49MOL   H18312759   3.375   5.539   4.548 -0.8097  0.4033 -1.7989
   49MOL   C18412760   3.394   5.664   4.718 -0.0275 -0.2844  0.0844
   49MOL   C18512761   3.311   5.779   4.787 -0.5775  0.2360 -0.0247
   49MOL   C18612762   3.324   5.925   4.767 -0.4180 -0.1909  0.2451
   49MOL   C18712763   3.376   5.868   4.893 -0.2370 -0.3695 -0.4467
   49MOL   C18812764   3.527   5.718   4.660  0.2281 -0.9197 -0.1117
   49MOL   H18912765   3.405   5.589   4.796 -0.0272  4.1479  4.5955
   49MOL   H19012766   3.204   5.764   4.800 -1.2144  2.7051 -1.8269
   49MOL   H19112767   3.235   5.984   4.788  0.5875  0.5164  2.7289
   49MOL   H19212768   3.393   5.972   4.697  0.0472 -1.8710 -0.4513
   49MOL   H19312769   3.322   5.892   4.984  3.4266 -0.4486  1.8253
   49MOL   H19412770   3.483   5.873   4.911 -0.5444  0.6734  1.1994
   49MOL   H19512771   3.579   5.789   4.724 -0.0223 -1.5623  0.8232
   49MOL   H19612772   3.485   5.782   4.582 -1.4400 -0.9666  0.7202
   49MOL   C19712773   3.624   5.610   4.611  0.0587 -0.5461 -0.2891
   49MOL   C19812774   3.662   5.515   4.715 -0.4693 -0.2504 -0.1634
   49MOL   C19912775   3.730   5.386   4.680 -0.4254  0.5420  0.6642
   49MOL   C20012776   3.591   5.383   4.739  0.0920  0.6210  0.1805
   49MOL   C20112777   3.751   5.675   4.550  0.2298  0.4393 -0.1295
   49MOL   H20212778   3.580   5.564   4.523 -1.8368  1.3007 -0.3365
   49MOL   H20312779   3.683   5.546   4.818 -0.1054 -1.4924  0.1453
   49MOL   H20412780   3.744   5.359   4.576 -1.0555 -0.3410  0.8051
   49MOL   H20512781   3.812   5.373   4.750 -0.5609  3.4799  1.4433
   49MOL   H20612782   3.512   5.358   4.669 -0.2609 -2.2151  1.4889
   49MOL   H20712783   3.586   5.340   4.839 -0.5619  1.6976  0.6121
   49MOL   H20812784   3.778   5.744   4.631  1.7821  0.9151 -1.0332
   49MOL   H20912785   3.835   5.605   4.547  0.7036  0.9734  0.3710
   49MOL   C21012786   3.740   5.734   4.406  0.5576 -0.1087 -0.5270
   49MOL   C21112787   3.833   5.858   4.382 -0.5346  0.9695 -0.3287
   49MOL   C21212788   3.891   5.959   4.476  0.1334  0.0537  0.0738
   49MOL   C21312789   3.980   5.843   4.417  0.2287 -0.5354 -0.3317
   49MOL   C21412790   3.760   5.622   4.297  0.2218 -0.3290  0.3662
   49MOL   H21512791   3.637   5.766   4.397  0.6734  0.4252  0.0395
   49MOL   H21612792   3.815   5.899   4.283 -2.6426 -0.6648 -0.6576
   49MOL   H21712793   3.913   6.061   4.447  1.2881 -0.6302 -1.5253
   49MOL   H21812794   3.863   5.952   4.581 -0.0312  2.4711  0.2231
   49MOL   H21912795   4.046   5.865   4.334 -0.6035 -0.2959 -0.9425
   49MOL   H22012796   4.020   5.773   4.491  0.2243 -0.6593 -0.4463
   49MOL   H22112797   3.869   5.615   4.299  0.1786 -0.8907  1.0350
   49MOL   H22212798   3.711   5.533   4.337  0.1596 -0.6317 -0.3764
   49MOL   C22312799   3.718   5.654   4.158  0.0580 -0.6407 -0.4009
   49MOL   C22412800   3.567   5.687   4.145 -0.4517  0.9053 -0.1570
   49MOL   C22512801   3.513   5.823   4.163 -0.1343  0.8902  0.1479
   49MOL   C22612802   3.512   5.761   4.025 -0.0594  0.1543 -0.3431
   49MOL   C22712803   3.753   5.542   4.057 -0.4192 -0.4170  0.2391
   49MOL   H22812804   3.780   5.740   4.132 -2.0859  1.2754  0.6727
   49MOL   H22912805   3.506   5.603   4.179 -0.1382  1.1009  0.9213
   49MOL   H23012806   3.582   5.904   4.184 -0.2715  1.7546 -2.5895
   49MOL   H23112807   3.418   5.823   4.217 -0.5832  0.7080 -0.6387
   49MOL   H23212808   3.418   5.721   3.986 -0.7916  0.5005  1.0032
   49MOL   H23312809   3.579   5.792   3.946 -2.6775  0.9869 -2.3166
   49MOL   H23412810   3.811   5.462   4.104  0.0361 -0.9060 -1.0997
   49MOL   H23512811   3.666   5.482   4.031 -1.0007  1.1922 -1.7317
   49MOL   C23612812   3.837   5.602   3.939  0.6219 -0.0183 -0.1208
   49MOL   C23712813   3.857   5.495   3.831  0.0217  0.6677 -0.9443
   49MOL   C23812814   3.761   5.492   3.718  0.5053 -1.1872 -0.7646
   49MOL   C23912815   3.902   5.526   3.687 -1.0584 -0.1854 -0.2288
   49MOL   C24012816   3.979   5.663   3.981 -0.2485  0.1839 -0.8334
   49MOL   H24112817   3.772   5.681   3.900 -0.9538 -1.5624 -0.6761
   49MOL   H24212818   3.906   5.406   3.871  1.1267  0.5761 -2.4625
   49MOL   H24312819   3.720   5.394   3.698 -1.4200 -0.2758 -1.3677
   49MOL   H24412820   3.692   5.576   3.718  1.8267 -0.0694 -0.5300
   49MOL   H24512821   3.924   5.631   3.668 -0.2565 -0.3813 -0.4038
   49MOL   H24612822   3.947   5.446   3.629 -2.6616 -1.1886 -0.1239
   49MOL   H24712823   3.990   5.684   4.088  0.8420 -0.9554 -0.7098
   49MOL   H24812824   4.052   5.582   3.973 -0.3877  0.0751 -1.0006
   49MOL   C24912825   4.019   5.791   3.906 -0.1952  0.4847  0.6965
   49MOL   C25012826   4.167   5.794   3.908 -0.6930  0.6192 -0.6489
   49MOL   C25112827   4.251   5.729   3.798 -0.5776 -0.9038  0.1053
   49MOL   C25212828   4.251   5.875   3.805  0.2187  0.0463 -0.4049
   49MOL   C25312829   3.970   5.923   3.977  0.4475 -0.3432  0.2497
   49MOL   H25412830   3.984   5.786   3.803  0.7752 -1.0697  0.4223
   49MOL   H25512831   4.203   5.783   4.009 -2.6629 -1.5422 -0.1305
   49MOL   H25612832   4.342   5.675   3.826  0.0578  0.7709  1.3259
   49MOL   H25712833   4.206   5.682   3.710  1.3233  0.2054 -1.5076
   49MOL   H25812834   4.337   5.930   3.843 -0.9932  0.1647  2.3158
   49MOL   H25912835   4.198   5.918   3.720  0.0442 -0.0472 -0.3446
   49MOL   H26012836   4.013   6.016   3.940  0.2863 -1.0701 -1.8447
   49MOL   H26112837   3.996   5.925   4.083 -0.1562  1.8564  0.3790
   49MOL   H26212838   3.863   5.939   3.961  0.6426  1.8069  0.9395
   50MOL     C112839   0.796   3.388   0.426 -0.1249 -0.4283  0.4834
   50MOL     C212840   0.738   3.293   0.534  0.1381 -0.2642  0.0022
   50MOL     C312841   0.817   3.212   0.630 -0.1996 -0.5430  0.4360
   50MOL     C412842   0.730   3.146   0.517  0.1677 -0.1088 -0.4363
   50MOL     C512843   0.855   3.514   0.487 -0.6434  0.3090  1.0991
   50MOL     H612844   0.879   3.339   0.375  0.5099  2.3890 -1.3449
   50MOL     H712845   0.655   3.346   0.581  2.0017  1.0840  1.9068
   50MOL     H812846   0.925   3.223   0.623  0.0925 -2.1912  1.8608
   50MOL     H912847   0.780   3.178   0.727  0.5425 -3.3062 -0.1835
   50MOL    H1012848   0.636   3.098   0.544  0.0649  0.2196 -0.2077
   50MOL    H1112849   0.785   3.099   0.436 -0.8624 -0.7442 -0.7756
   50MOL    H1212850   0.911   3.477   0.573  0.0368 -1.9033 -0.2654
   50MOL    H1312851   0.767   3.576   0.511 -0.3552  1.7288 -1.3736
   50MOL    H1412852   0.723   3.415   0.350 -0.6012  0.9580  1.4031
   50MOL    C1512853   0.946   3.591   0.400 -0.2914  0.0949 -0.1034
   50MOL    C1612854   0.873   3.718   0.363  0.3371 -0.7124  0.7106
   50MOL    C1712855   0.760   3.713   0.255 -0.1769 -0.4620 -0.2419
   50MOL    C1812856   0.895   3.781   0.226 -0.0294 -0.0229  0.1765
   50MOL    C1912857   1.092   3.610   0.456  0.7992 -0.0698 -0.2366
   50MOL    H2012858   0.962   3.528   0.312  0.9168 -0.5420  0.5690
   50MOL    H2112859   0.872   3.796   0.439 -2.2064 -0.9083  0.9393
   50MOL    H2212860   0.678   3.784   0.260  0.1814  0.1091 -2.0107
   50MOL    H2312861   0.741   3.622   0.197  0.1393 -0.9044  0.3435
   50MOL    H2412862   0.966   3.719   0.171 -1.0313 -0.3416 -0.7724
   50MOL    H2512863   0.903   3.889   0.218  1.1823  0.0762  2.2717
   50MOL    H2612864   1.082   3.644   0.559  2.4937  0.2509 -0.1550
   50MOL    H2712865   1.149   3.690   0.408  0.6918  0.6242  0.7833
   50MOL    C2812866   1.178   3.486   0.443 -0.4883 -1.0323 -0.0576
   50MOL    C2912867   1.279   3.483   0.557  0.8816 -0.1290 -0.8931
   50MOL    C3012868   1.247   3.446   0.697 -0.0738  0.3674 -0.6417
   50MOL    C3112869   1.335   3.353   0.614 -0.8094 -0.3835 -0.0777
   50MOL    C3212870   1.255   3.475   0.315  0.1367 -0.1810  0.2589
   50MOL    H3312871   1.111   3.400   0.438 -3.2016  0.9327  0.9466
   50MOL    H3412872   1.351   3.565   0.552 -1.1549  1.7842  0.3528
   50MOL    H3512873   1.143   3.423   0.721 -0.2135  2.1595  0.5390
   50MOL    H3612874   1.295   3.503   0.775 -0.6677 -0.9572  0.7219
   50MOL    H3712875   1.292   3.266   0.564  1.9707 -1.7844 -0.1585
   50MOL    H3812876   1.444   3.350   0.615 -0.6332  3.0452 -1.8718
   50MOL    H3912877   1.352   3.525   0.328 -0.1323  0.5593 -0.5205
   50MOL    H4012878   1.201   3.529   0.237  2.0802  0.1661 -0.9021
   50MOL    C4112879   1.264   3.324   0.265  0.1382 -1.6560 -0.4953
   50MOL    C4212880   1.393   3.298   0.185 -0.3333 -0.4270  0.3454
   50MOL    C4312881   1.480   3.171   0.205 -0.2108  0.0322  1.9778
   50MOL    C4412882   1.526   3.309   0.249  0.1632  0.0144  0.2878
   50MOL    C4512883   1.141   3.285   0.179  0.4874  0.3005  0.5925
   50MOL    H4612884   1.272   3.264   0.356  2.3856 -0.9147 -0.1729
   50MOL    H4712885   1.388   3.338   0.084 -2.3791 -0.3070  0.4714
   50MOL    H4812886   1.471   3.107   0.292  0.0752 -0.4874  1.6258
   50MOL    H4912887   1.539   3.130   0.123 -0.2866  0.2390  1.8198
   50MOL    H5012888   1.605   3.354   0.189 -0.5515  0.5391 -0.2681
   50MOL    H5112889   1.527   3.321   0.357 -1.3814 -2.0822  0.5546
   50MOL    H5212890   1.161   3.346   0.091  1.3766  0.1669  0.6974
   50MOL    H5312891   1.048   3.326   0.218 -0.0827 -1.2842  0.9402
   50MOL    C5412892   1.133   3.134   0.136  0.2811 -0.1384  0.4582
   50MOL    C5512893   1.077   3.055   0.252  0.3572 -0.4349  0.2736
   50MOL    C5612894   1.159   2.984   0.357 -0.5094  0.3858 -0.1572
   50MOL    C5712895   1.083   2.905   0.256 -0.5167 -0.5548  0.1379
   50MOL    C5812896   1.050   3.133   0.016  0.7768 -0.3926  0.2870
   50MOL    H5912897   1.230   3.094   0.108  1.3931  3.0951 -0.4275
   50MOL    H6012898   0.973   3.083   0.270  0.2017 -0.6498 -0.2628
   50MOL    H6112899   1.267   2.970   0.353 -0.1579  2.7328  0.3093
   50MOL    H6212900   1.114   2.983   0.457  0.4924 -1.2583  0.3091
   50MOL    H6312901   0.987   2.864   0.288 -0.6298 -0.2714  0.1685
   50MOL    H6412902   1.141   2.845   0.187 -0.2300  3.0627 -2.9342
   50MOL    H6512903   0.945   3.155   0.035  0.2804 -0.3191 -2.3273
   50MOL    H6612904   1.078   3.217   7.791  1.4713  0.9563  2.3189
   50MOL    C6712905   1.074   3.012   7.755  0.0013  0.4593 -0.8247
   50MOL    C6812906   0.984   3.001   7.636 -0.3551 -0.4489 -0.2573
   50MOL    C6912907   0.920   2.872   7.601 -0.5905  0.3418  0.2031
   50MOL    C7012908   0.834   2.990   7.652  0.1125  0.1869  0.7408
   50MOL    C7112909   1.228   3.002   7.713 -0.0727 -0.0058  0.0947
   50MOL    H7212910   1.032   2.924   7.806  1.8010 -0.0720 -0.2246
   50MOL    H7312911   1.010   3.060   7.548  0.6761  0.4114  0.6135
   50MOL    H7412912   0.883   2.838   7.505  1.5905  0.7678 -0.8263
   50MOL    H7512913   0.936   2.786   7.666  1.1828  0.9642  0.6394
   50MOL    H7612914   0.795   2.972   7.752  0.6427  2.1600  1.3194
   50MOL    H7712915   0.763   3.028   7.580 -0.9388  0.9234  2.1453
   50MOL    H7812916   1.301   2.989   7.792 -0.6188 -0.7074  0.4870
   50MOL    H7912917   1.251   3.099   7.670 -0.1577  0.4758  1.1304
   50MOL    C8012918   1.267   2.899   7.611 -0.6692  1.1425  0.0064
   50MOL    C8112919   1.303   2.772   7.684  0.1534  0.4487 -0.0448
   50MOL    C8212920   1.265   2.629   7.635 -0.2747 -0.3543 -0.0750
   50MOL    C8312921   1.208   2.678   7.762 -0.0475 -0.0830 -0.1017
   50MOL    C8412922   1.386   2.958   7.540  0.2602 -0.3398  0.1468
   50MOL    H8512923   1.194   2.877   7.532 -0.2626 -0.6640  0.1323
   50MOL    H8612924   1.397   2.779   7.738 -0.3066 -0.2737  0.8489
   50MOL    H8712925   1.332   2.546   7.653  0.5011  0.0019 -1.2733
   50MOL    H8812926   1.199   2.622   7.548  0.5199 -0.7841 -0.6533
   50MOL    H8912927   1.102   2.703   7.761 -0.1199 -0.4076 -0.6467
   50MOL    H9012928   1.250   2.656   0.021 -0.3573 -0.4741 -0.0578
   50MOL    H9112929   1.364   3.059   7.505  0.4147  0.5042  2.4311
   50MOL    H9212930   1.458   2.982   7.618  0.5486  2.7710 -1.0186
   50MOL    C9312931   1.447   2.868   7.433  0.1765  0.9297  0.1275
   50MOL    C9412932   1.349   2.868   7.313 -0.9491  0.6716  0.8188
   50MOL    C9512933   1.333   2.979   7.217  0.4521 -0.4246  0.4863
   50MOL    C9612934   1.407   2.863   7.173 -0.8172  0.6733 -0.3061
   50MOL    C9712935   1.586   2.922   7.400  0.2614 -0.3344 -0.0056
   50MOL    H9812936   1.454   2.765   7.468 -2.9206  0.2038 -1.1578
   50MOL    H9912937   1.264   2.801   7.330  0.9520 -2.1648 -0.5634
   50MOL   H10012938   1.234   2.992   7.174  1.0893  0.0736 -0.8586
   50MOL   H10112939   1.388   3.071   7.230 -0.1241  0.0133 -0.1338
   50MOL   H10212940   1.376   2.779   7.111  1.1091 -1.3898  1.4570
   50MOL   H10312941   1.508   2.889   7.143 -0.3987 -2.5452 -1.8847
   50MOL   H10412942   1.585   3.023   7.357  1.1647  0.3270  1.5045
   50MOL   H10512943   1.635   2.858   7.326 -1.6330  1.0656 -2.5542
   50MOL   C10612944   1.699   2.918   7.504 -0.0165 -0.1726 -0.3545
   50MOL   C10712945   1.795   2.795   7.491 -0.2582  0.2262 -0.8105
   50MOL   C10812946   1.848   2.713   7.611 -0.6509 -0.2599 -0.0527
   50MOL   C10912947   1.739   2.659   7.519 -0.1611 -0.6162 -0.6550
   50MOL   C11012948   1.786   3.046   7.503 -0.2125 -0.1589  0.6747
   50MOL   H11112949   1.652   2.900   7.601  1.3520  0.2413  0.4043
   50MOL   H11212950   1.867   2.807   7.410  0.2498 -2.2235 -0.7666
   50MOL   H11312951   1.949   2.678   7.591 -0.5048 -0.0799  0.3720
   50MOL   H11412952   1.824   2.751   7.710 -4.0698 -0.5993 -0.6858
   50MOL   H11512953   1.631   2.661   7.531  0.0394 -0.5206  1.2996
   50MOL   H11612954   1.771   2.580   7.451 -0.6284  0.9153 -2.7100
   50MOL   H11712955   1.829   3.053   7.404 -1.4431  0.9554  0.2009
   50MOL   H11812956   1.722   3.134   7.503  0.8573  0.6419 -1.4231
   50MOL   C11912957   1.900   3.067   7.604 -0.8651  0.3169 -1.1437
   50MOL   C12012958   2.000   3.179   7.565 -0.2830 -0.2848  0.3926
   50MOL   C12112959   2.101   3.153   7.456  0.0810  0.2294  1.0882
   50MOL   C12212960   2.147   3.176   7.590 -0.8047 -0.2605  0.4267
   50MOL   C12312961   1.839   3.090   7.748  0.0425 -0.4159  0.5974
   50MOL   H12412962   1.962   2.978   7.608  1.4292  1.8852 -1.0293
   50MOL   H12512963   1.958   3.278   7.578  0.2926  0.1073 -0.6628
   50MOL   H12612964   2.127   3.232   7.386 -2.5563 -0.2532 -0.4943
   50MOL   H12712965   2.091   3.052   7.416  3.1740  0.9314 -1.6770
   50MOL   H12812966   2.191   3.097   7.651  0.8663 -0.2537 -0.7343
   50MOL   H12912967   2.203   3.269   7.599  0.6119 -1.1578  1.0633
   50MOL   H13012968   1.774   3.177   7.741 -2.1665 -2.1458 -1.2871
   50MOL   H13112969   1.777   3.009   7.786  0.2140 -0.6902  0.2954
   50MOL   C13212970   1.942   3.119   0.012 -0.6276  0.0586 -0.1433
   50MOL   C13312971   1.906   3.031   0.137  0.4237 -0.0652  0.1890
   50MOL   C13412972   2.009   2.972   0.230 -0.0299 -0.5751 -0.2247
   50MOL   C13512973   1.946   2.885   0.126  0.2268 -0.6008 -0.0354
   50MOL   C13612974   1.944   3.271   0.050 -0.0978 -0.3807  0.7393
   50MOL   H13712975   2.042   3.085   7.826 -0.0923 -0.0279  2.0693
   50MOL   H13812976   1.809   3.061   0.177  0.0109 -1.6482  0.3799
   50MOL   H13912977   2.112   3.008   0.227 -1.4985  3.9284 -0.9470
   50MOL   H14012978   1.977   2.941   0.329  1.3082  0.3938  0.5265
   50MOL   H14112979   2.026   2.846   0.064  0.1641  1.4396 -1.4581
   50MOL   H14212980   1.861   2.828   0.164 -0.6952  2.0436  2.0711
   50MOL   H14312981   1.935   3.334   7.800  0.9631 -0.6889  0.4084
   50MOL   H14412982   1.849   3.286   0.100  0.5437  2.3391  1.1919
   50MOL   C14512983   2.045   3.316   0.143 -0.7518  0.4248  0.4560
   50MOL   C14612984   2.173   3.330   0.058  0.3125 -0.3826  0.2442
   50MOL   C14712985   2.298   3.391   0.122  0.5051  0.0854 -0.3892
   50MOL   C14812986   2.291   3.247   0.087 -0.0007  0.3182 -0.1724
   50MOL   C14912987   1.997   3.450   0.195 -0.2015  0.2783  0.3685
   50MOL   H15012988   2.058   3.240   0.219 -0.4228  0.3316  0.3092
   50MOL   H15112989   2.165   3.371   7.797 -0.2051  2.7837  1.5201
   50MOL   H15212990   2.368   3.454   0.069 -1.3308 -0.3638 -3.4522
   50MOL   H15312991   2.283   3.420   0.226  0.7111  0.0853 -0.3600
   50MOL   H15412992   2.285   3.167   0.161  1.7616 -0.0684 -0.4319
   50MOL   H15512993   2.348   3.220   7.838  2.0785  0.5087  1.0850
   50MOL   H15612994   2.072   3.527   0.215  0.3105 -0.7367  2.4895
   50MOL   H15712995   1.962   3.510   0.111  0.8127  1.7888  0.9932
   50MOL   C15812996   1.915   3.441   0.326  0.3910  0.1451 -0.3150
   50MOL   C15912997   1.848   3.571   0.358  0.1412 -0.0874 -0.2791
   50MOL   C16012998   1.761   3.632   0.248  0.3797  0.2803  1.1558
   50MOL   C16112999   1.702   3.589   0.383  0.5201 -0.1721 -0.1474
   50MOL   C16213000   2.024   3.402   0.433 -0.2416  0.3967 -0.3823
   50MOL   H16313001   1.847   3.357   0.314  0.3553 -0.1221  1.6673
   50MOL   H16413002   1.919   3.644   0.395 -0.2848  1.0076 -1.5738
   50MOL   H16513003   1.756   3.560   0.166  0.9402  1.9722 -0.3981
   50MOL   H16613004   1.769   3.738   0.227 -0.3207 -0.1305 -1.3657
   50MOL   H16713005   1.656   3.674   0.433  1.2512  0.5190 -0.6560
   50MOL   H16813006   1.639   3.500   0.391 -0.2445  0.3865  0.1798
   50MOL   H16913007   2.052   3.491   0.490  2.7599  0.5069 -1.9143
   50MOL   H17013008   2.125   3.379   0.399 -0.8770 -0.9399 -1.4135
   50MOL   C17113009   1.979   3.279   0.521 -0.6470 -0.2455  0.1528
   50MOL   C17213010   2.096   3.192   0.585 -0.3041  0.5865 -0.0652
   50MOL   C17313011   2.224   3.148   0.513 -0.4715 -0.2741  0.1758
   50MOL   C17413012   2.230   3.259   0.616 -0.3894 -0.5618 -1.1143
   50MOL   C17513013   1.887   3.332   0.640 -0.4351 -0.4185  0.2386
   50MOL   H17613014   1.926   3.217   0.449 -2.3492  0.7645  0.5144
   50MOL   H17713015   2.049   3.130   0.661 -0.0997  1.5257  0.8375
   50MOL   H17813016   2.275   3.053   0.534 -0.3581 -0.8466 -2.4673
   50MOL   H17913017   2.233   3.158   0.405 -0.4478 -1.5244  0.0452
   50MOL   H18013018   2.240   3.365   0.591  2.6717 -0.3358  0.8398
   50MOL   H18113019   2.258   3.249   0.720  1.4877  0.1289 -1.5391
   50MOL   H18213020   1.836   3.421   0.604  0.0566  0.1675  0.9814
   50MOL   H18313021   1.956   3.368   0.716  0.3272 -1.6262  0.1393
   50MOL   C18413022   1.790   3.230   0.706  0.4264 -0.4785  0.0558
   50MOL   C18513023   1.703   3.169   0.595  0.6359 -0.4776 -0.1139
   50MOL   C18613024   1.608   3.057   0.616 -0.2507 -0.6715 -0.1206
   50MOL   C18713025   1.728   3.039   0.521 -0.5002  0.5634  0.2349
   50MOL   C18813026   1.701   3.306   0.804 -0.2657 -0.0742  0.2671
   50MOL   H18913027   1.837   3.151   0.764  1.0703 -0.4524 -0.4174
   50MOL   H19013028   1.652   3.244   0.536 -0.5086  0.5282  2.0948
   50MOL   H19113029   1.510   3.076   0.572 -0.7872  1.4099  1.8696
   50MOL   H19213030   1.612   2.997   0.707  0.4149  0.3212  0.5177
   50MOL   H19313031   1.720   3.041   0.412 -0.0932 -0.4989  0.1814
   50MOL   H19413032   1.807   2.972   0.552 -1.3953  0.0565  1.4513
   50MOL   H19513033   1.629   3.234   0.844  2.1230 -1.5857  2.0123
   50MOL   H19613034   1.642   3.380   0.751 -2.1673 -0.1064  2.2489
   50MOL   C19713035   1.778   3.363   0.922  0.9462 -0.0246  0.3460
   50MOL   C19813036   1.855   3.254   0.993 -0.2843  0.0587  0.1811
   50MOL   C19913037   1.977   3.279   1.075 -0.2212 -0.3524 -0.3925
   50MOL   C20013038   1.986   3.187   0.964 -0.1554  0.4193 -0.0958
   50MOL   C20113039   1.688   3.439   1.022  0.1504 -0.1924  0.1518
   50MOL   H20213040   1.856   3.435   0.896  2.5002 -1.9611 -0.4665
   50MOL   H20313041   1.786   3.180   1.032  2.0035 -0.9353  2.4647
   50MOL   H20413042   2.032   3.373   1.073  1.8812 -1.5855 -2.0737
   50MOL   H20513043   1.961   3.232   1.172  0.8608 -1.6180 -0.8057
   50MOL   H20613044   2.065   3.217   0.895 -0.8283  1.6964 -0.3228
   50MOL   H20713045   1.996   3.082   0.991  0.2268  1.0149  2.1222
   50MOL   H20813046   1.608   3.374   1.058  0.8213 -0.2624  1.5565
   50MOL   H20913047   1.762   3.452   1.101 -0.3613 -1.8950  0.9290
   50MOL   C21013048   1.649   3.583   0.978 -0.2368 -0.2653 -0.6408
   50MOL   C21113049   1.551   3.592   0.861 -0.7788 -0.8117 -0.1518
   50MOL   C21213050   1.505   3.715   0.792  1.0043 -0.5680 -0.2391
   50MOL   C21313051   1.594   3.620   0.720  0.1890 -0.2431  0.0062
   50MOL   C21413052   1.590   3.647   1.103  0.0973  0.0750  0.5751
   50MOL   H21513053   1.738   3.633   0.939 -0.6402  1.6209  0.8234
   50MOL   H21613054   1.467   3.525   0.879 -1.5953  0.1313 -0.3809
   50MOL   H21713055   1.404   3.714   0.753  1.3601  1.0231 -1.2481
   50MOL   H21813056   1.534   3.811   0.834  0.8514 -0.7061  0.1852
   50MOL   H21913057   1.558   3.557   0.639 -2.8011  2.1029 -0.6209
   50MOL   H22013058   1.693   3.664   0.711  0.3478 -0.4218  0.8225
   50MOL   H22113059   1.522   3.721   1.061 -1.7765 -2.1111 -0.3412
   50MOL   H22213060   1.521   3.578   1.151  0.9032 -0.3452  1.1377
   50MOL   C22313061   1.706   3.695   1.204  0.5544 -0.8576  0.1276
   50MOL   C22413062   1.645   3.764   1.321 -0.1320 -0.7530 -0.0983
   50MOL   C22513063   1.564   3.690   1.427  0.9426  0.1970 -0.5232
   50MOL   C22613064   1.700   3.738   1.461 -0.0385 -0.2789 -0.7548
   50MOL   C22713065   1.803   3.785   1.125  0.1342  0.1090 -0.1048
   50MOL   H22813066   1.752   3.601   1.236 -0.7125 -1.8676 -0.9109
   50MOL   H22913067   1.620   3.867   1.297  1.1499 -0.9059 -2.1182
   50MOL   H23013068   1.534   3.586   1.417 -3.8221  1.5962 -2.1295
   50MOL   H23113069   1.486   3.743   1.480  2.8116  0.2154  2.3345
   50MOL   H23213070   1.717   3.832   1.514  3.6769  0.0372 -2.3155
   50MOL   H23313071   1.759   3.652   1.494 -0.0231  0.1813  0.4598
   50MOL   H23413072   1.755   3.831   1.039  0.4948  0.8328  0.0769
   50MOL   H23513073   1.810   3.881   1.177 -1.8572 -0.1112  0.6584
   50MOL   C23613074   1.940   3.731   1.104 -1.1017 -0.2157  1.2430
   50MOL   C23713075   2.007   3.732   1.244  0.0861  0.2190 -0.2600
   50MOL   C23813076   1.994   3.604   1.329  0.5727 -0.5263 -0.1000
   50MOL   C23913077   2.125   3.634   1.266  0.1003  0.1977 -0.1032
   50MOL   C24013078   2.025   3.803   1.000 -0.4730 -0.1793  0.5160
   50MOL   H24113079   1.927   3.630   1.065 -0.3426  0.4911 -0.9080
   50MOL   H24213080   2.024   3.832   1.282 -1.2655  0.0987  0.6980
   50MOL   H24313081   1.975   3.617   1.435  2.2809 -2.5446  0.4871
   50MOL   H24413082   1.955   3.509   1.292  0.0010 -0.2222 -0.2866
   50MOL   H24513083   2.154   3.553   1.200  0.3059 -1.1841  1.6577
   50MOL   H24613084   2.203   3.661   1.337 -0.4385 -1.7436  1.2598
   50MOL   H24713085   2.026   3.908   1.029 -1.5603 -0.8388  3.1094
   50MOL   H24813086   2.129   3.772   1.012 -0.8550 -2.1096 -0.9742
   50MOL   C24913087   1.987   3.776   0.850  0.5439  0.1738  0.0549
   50MOL   C25013088   2.118   3.768   0.762  0.0779  0.4176  0.7487
   50MOL   C25113089   2.186   3.635   0.732 -0.2404  0.8935 -0.3691
   50MOL   C25213090   2.118   3.713   0.620 -0.0155 -0.3294  0.4005
   50MOL   C25313091   1.895   3.879   0.790 -0.1122  0.3608 -0.0887
   50MOL   H25413092   1.949   3.674   0.841  2.1166 -0.3182 -1.2610
   50MOL   H25513093   2.193   3.843   0.787  2.8825 -2.8900  2.5654
   50MOL   H25613094   2.292   3.651   0.747  0.3529 -1.7216 -1.4966
   50MOL   H25713095   2.144   3.540   0.767 -1.2219  0.4518 -2.6574
   50MOL   H25813096   2.191   3.761   0.555 -2.2636  3.1531  0.3224
   50MOL   H25913097   2.014   3.696   0.595 -0.7426 -0.6006  3.4061
   50MOL   H26013098   1.873   3.856   0.686 -2.9470 -0.2081  0.6013
   50MOL   H26113099   1.925   3.984   0.790  0.4861  0.1928  0.9615
   50MOL   H26213100   1.803   3.869   0.848  1.2171 -1.4103  1.7679
   51MOL     C113101   4.656   1.583   4.685 -0.4854 -0.9334  0.3538
   51MOL     C213102   4.619   1.670   4.564 -0.5318 -0.4906  1.1962
   51MOL     C313103   4.484   1.651   4.499  0.0735 -0.1771 -0.1636
   51MOL     C413104   4.597   1.583   4.437  0.5979  0.3589 -0.4864
   51MOL     C513105   4.657   1.651   4.826 -0.3603 -0.3499  0.0506
   51MOL     H613106   4.588   1.498   4.693 -0.9826 -0.6257 -0.5457
   51MOL     H713107   4.663   1.769   4.552  0.5627 -1.2156 -1.0610
   51MOL     H813108   4.412   1.589   4.552 -0.3392  0.5012  0.0865
   51MOL     H913109   4.445   1.741   4.451  2.4073  1.0085  0.0640
   51MOL    H1013110   4.629   1.629   4.343  0.2056  0.0452 -0.7769
   51MOL    H1113111   4.595   1.474   4.438 -0.1323  0.3744  0.0109
   51MOL    H1213112   4.555   1.686   4.846  0.6234  0.6104  3.7448
   51MOL    H1313113   4.709   1.747   4.826 -1.1618  0.1338 -3.4458
   51MOL    H1413114   4.755   1.542   4.665  1.9977  3.2860  3.2335
   51MOL    C1513115   4.698   1.551   4.935 -0.2961 -0.3026  0.8885
   51MOL    C1613116   4.842   1.528   4.924  0.2246  0.0656  0.9639
   51MOL    C1713117   4.916   1.420   4.847  0.4834 -0.5155 -0.1534
   51MOL    C1813118   4.897   1.400   4.983  0.0151 -0.3279  0.0310
   51MOL    C1913119   4.647   1.603   5.073 -0.0169 -1.1726 -0.2125
   51MOL    H2013120   4.651   1.455   4.913  2.0524 -1.3619  0.3751
   51MOL    H2113121   4.900   1.619   4.939  1.2392 -0.5517  0.8346
   51MOL    H2213122   5.015   1.449   4.813  0.5263 -0.2774  0.1707
   51MOL    H2313123   4.859   1.363   4.774 -2.0923 -0.3631  1.6653
   51MOL    H2413124   4.836   1.313   5.007  2.0426 -2.0644 -0.9857
   51MOL    H2513125   4.992   1.412   5.034  0.0766  0.1726 -0.1962
   51MOL    H2613126   4.641   1.711   5.066  1.2668 -1.0731 -0.0304
   51MOL    H2713127   4.722   1.593   5.152 -0.6193  2.3040  0.8519
   51MOL    C2813128   4.520   1.542   5.131 -0.0008  0.0204 -0.0874
   51MOL    C2913129   4.391   1.557   5.049  0.1748  0.4178 -0.1856
   51MOL    C3013130   4.352   1.469   4.933  0.2830  0.0443 -0.0281
   51MOL    C3113131   4.281   1.454   5.066 -0.1198 -0.2387  0.1238
   51MOL    C3213132   4.483   1.601   5.274  0.2880 -0.0240 -0.2743
   51MOL    H3313133   4.525   1.435   5.152 -0.8580  0.1936  1.0760
   51MOL    H3413134   4.345   1.655   5.058 -1.6690 -0.3643 -0.9108
   51MOL    H3513135   4.410   1.380   4.909 -0.1896 -0.6488  1.3253
   51MOL    H3613136   4.306   1.520   4.848  0.6031  1.1125  0.4372
   51MOL    H3713137   4.294   1.366   5.130 -2.2499 -2.4024 -2.3301
   51MOL    H3813138   4.177   1.477   5.048 -0.3815  0.3343  2.2346
   51MOL    H3913139   4.382   1.575   5.308  1.0310 -0.4717  1.6420
   51MOL    H4013140   4.472   1.709   5.266  0.6355  0.0985  0.8502
   51MOL    C4113141   4.573   1.559   5.393 -0.1584 -0.0127 -0.3954
   51MOL    C4213142   4.588   1.410   5.413  0.4330  0.0363  0.5207
   51MOL    C4313143   4.704   1.357   5.481  0.0427  0.1891 -0.5835
   51MOL    C4413144   4.686   1.320   5.338  0.5401  0.3084  0.1248
   51MOL    C4513145   4.540   1.636   5.527  0.8037 -0.0617 -0.2322
   51MOL    H4613146   4.672   1.597   5.367 -0.6038  0.5279 -1.3317
   51MOL    H4713147   4.495   1.359   5.436  0.2610  0.0319 -0.1754
   51MOL    H4813148   4.776   1.431   5.515 -0.9834  1.2468 -0.6429
   51MOL    H4913149   4.689   1.284   5.560 -0.8435  2.2484  1.1991
   51MOL    H5013150   4.650   1.222   5.306 -0.8317  0.8856 -0.1474
   51MOL    H5113151   4.759   1.370   5.275  0.7595  0.9171  0.8643
   51MOL    H5213152   4.605   1.591   5.601 -0.2973  0.0273  0.8104
   51MOL    H5313153   4.443   1.608   5.568 -0.2439  2.2986 -0.9769
   51MOL    C5413154   4.558   1.787   5.527 -0.1807 -1.4380  0.2974
   51MOL    C5513155   4.491   1.864   5.642 -0.0397 -0.5236  0.1269
   51MOL    C5613156   4.338   1.865   5.662  0.4514  1.2147 -0.3316
   51MOL    C5713157   4.403   1.987   5.619  0.2047  0.0350  0.1046
   51MOL    C5813158   4.701   1.832   5.528 -0.2032  0.7707  0.1702
   51MOL    H5913159   4.518   1.837   5.439  0.4856 -1.0314  0.2282
   51MOL    H6013160   4.558   1.869   5.727 -0.1289  0.3207  0.1453
   51MOL    H6113161   4.283   1.800   5.594 -0.2147  0.0904  1.2189
   51MOL    H6213162   4.305   1.865   5.766 -0.6476  0.7298 -0.6648
   51MOL    H6313163   4.377   2.066   5.690 -1.2093  0.2301 -0.6174
   51MOL    H6413164   4.376   2.022   5.520 -0.4795 -2.8239 -0.7696
   51MOL    H6513165   4.750   1.787   5.614  1.5658 -0.5871 -1.4941
   51MOL    H6613166   4.753   1.782   5.446 -2.3221 -3.2911  1.1815
   51MOL    C6713167   4.731   1.985   5.518 -0.1463 -0.1834 -0.1734
   51MOL    C6813168   4.885   2.015   5.547 -0.2307  0.1272 -0.4604
   51MOL    C6913169   4.927   2.129   5.633 -1.0415 -0.2625 -0.5069
   51MOL    C7013170   4.939   1.987   5.684  0.8619  0.1711 -0.5803
   51MOL    C7113171   4.707   2.035   5.379  0.0866 -0.8988 -0.8483
   51MOL    H7213172   4.694   2.048   5.599 -0.3144  0.4770 -0.7641
   51MOL    H7313173   4.948   1.971   5.470  0.0832 -2.6408  1.3034
   51MOL    H7413174   5.018   2.177   5.598  0.7822 -2.6342  0.8208
   51MOL    H7513175   4.860   2.200   5.680  0.2665  0.7292 -0.1086
   51MOL    H7613176   4.864   1.941   5.749  1.2054 -0.0019 -0.3086
   51MOL    H7713177   5.041   1.951   5.683  0.7291 -0.2050 -0.8688
   51MOL    H7813178   4.626   1.987   5.325 -0.9020 -1.8525  1.4373
   51MOL    H7913179   4.795   2.007   5.321  1.3232 -0.7437  0.9190
   51MOL    C8013180   4.689   2.195   5.360 -0.6939  0.9122  0.6740
   51MOL    C8113181   4.559   2.246   5.415 -0.5826 -0.0939 -0.4735
   51MOL    C8213182   4.545   2.392   5.425  0.3448  0.2734 -0.7180
   51MOL    C8313183   4.554   2.321   5.554  0.1473  0.0560 -0.1903
   51MOL    C8413184   4.714   2.244   5.208  0.0441 -1.5631  0.4007
   51MOL    H8513185   4.764   2.246   5.421 -0.7672  1.7363  0.0918
   51MOL    H8613186   4.468   2.198   5.380 -0.5769 -1.2997  1.1172
   51MOL    H8713187   4.444   2.419   5.392  0.4890  1.7031 -0.0081
   51MOL    H8813188   4.628   2.454   5.394  1.7140 -0.2169  1.8415
   51MOL    H8913189   4.647   2.334   5.611 -0.2706 -1.3384  0.8479
   51MOL    H9013190   4.465   2.336   5.615 -0.6443  1.8941 -1.7830
   51MOL    H9113191   4.736   2.164   5.137 -0.9921 -1.4969 -0.0009
   51MOL    H9213192   4.616   2.280   5.175  0.2777 -2.8758 -1.8700
   51MOL    C9313193   4.822   2.355   5.194 -0.6100 -0.1448 -0.6780
   51MOL    C9413194   4.959   2.310   5.224  0.2475  0.3184 -0.1935
   51MOL    C9513195   5.078   2.405   5.250 -0.1826 -0.0045 -0.0062
   51MOL    C9613196   5.012   2.324   5.361 -0.4460  1.1744 -0.5267
   51MOL    C9713197   4.812   2.417   5.053 -0.6524  0.4504 -0.1363
   51MOL    H9813198   4.803   2.424   5.277 -0.4699 -1.1891  0.2464
   51MOL    H9913199   4.988   2.215   5.178 -0.6197  0.2047 -0.5195
   51MOL   H10013200   5.178   2.370   5.229 -0.0522 -0.3135  1.0882
   51MOL   H10113201   5.059   2.512   5.255 -0.9100 -0.0670 -1.0755
   51MOL   H10213202   5.070   2.241   5.401 -0.7864  0.6061 -1.2019
   51MOL   H10313203   4.945   2.369   5.433 -0.9096  2.0225 -1.4813
   51MOL   H10413204   4.792   2.348   4.971 -0.2831 -1.8058  1.5962
   51MOL   H10513205   4.910   2.456   5.028 -1.0608  0.2871 -2.0768
   51MOL   C10613206   4.702   2.528   5.041 -0.3966 -0.2427 -0.1171
   51MOL   C10713207   4.746   2.648   5.121  0.1874  0.5326 -0.4090
   51MOL   C10813208   4.697   2.795   5.108  0.2648  0.6883 -0.2158
   51MOL   C10913209   4.652   2.709   5.228  0.0575 -0.5969  0.3337
   51MOL   C11013210   4.681   2.570   4.889 -0.1850  0.4846 -0.0874
   51MOL   H11113211   4.609   2.487   5.080 -0.0608 -1.3393 -0.4234
   51MOL   H11213212   4.852   2.639   5.141  0.0442  1.9990  1.1531
   51MOL   H11313213   4.781   2.864   5.113  0.0067  1.0306 -0.5109
   51MOL   H11413214   4.620   2.818   5.035  0.2684  2.9185  0.4269
   51MOL   H11513215   4.554   2.663   5.235 -0.7965  1.2156  0.5711
   51MOL   H11613216   4.705   2.722   5.323 -0.1081  0.7605  0.2404
   51MOL   H11713217   4.609   2.651   4.879 -0.6387 -0.1333 -1.9979
   51MOL   H11813218   4.776   2.601   4.845 -0.0118 -0.5594 -0.4754
   51MOL   C11913219   4.620   2.467   4.797 -0.0118 -0.1115 -0.1147
   51MOL   C12013220   4.481   2.432   4.846 -0.0038 -0.0938 -0.5623
   51MOL   C12113221   4.462   2.307   4.927 -0.2609 -0.1566 -0.3158
   51MOL   C12213222   4.396   2.315   4.794  0.0372  0.4713 -0.7995
   51MOL   C12313223   4.603   2.513   4.654 -0.4987 -0.3380  0.2236
   51MOL   H12413224   4.680   2.376   4.797  1.2849  0.7008  2.5979
   51MOL   H12513225   4.422   2.516   4.881  1.4131  1.0150 -0.8130
   51MOL   H12613226   4.409   2.341   5.016  0.7437  1.8440 -0.4491
   51MOL   H12713227   4.541   2.232   4.934  0.1416  0.0952 -1.8309
   51MOL   H12813228   4.437   2.243   4.723  0.1319 -0.2456 -0.0303
   51MOL   H12913229   4.291   2.344   4.798 -1.1485 -3.4688 -0.4977
   51MOL   H13013230   4.505   2.482   4.617 -0.5367 -2.2474  1.7868
   51MOL   H13113231   4.597   2.621   4.651  0.2088 -0.2980  0.2282
   51MOL   C13213232   4.711   2.466   4.550  0.5243  0.6394  0.3308
   51MOL   C13313233   4.852   2.527   4.599  0.0878  0.7175 -0.5575
   51MOL   C13413234   4.983   2.452   4.552 -0.4853  0.5678 -0.2846
   51MOL   C13513235   4.947   2.463   4.697  0.1381  0.1368 -0.4221
   51MOL   C13613236   4.679   2.508   4.399 -0.1973  0.1516 -0.4344
   51MOL   H13713237   4.708   2.358   4.562 -0.0230  0.5871 -0.2284
   51MOL   H13813238   4.859   2.636   4.600  0.5602  0.6870  1.1572
   51MOL   H13913239   4.971   2.353   4.510  1.0874 -0.1196  0.8382
   51MOL   H14013240   5.060   2.519   4.515 -0.1796  1.1635  1.4058
   51MOL   H14113241   4.902   2.375   4.743 -0.7870  1.0144  0.3792
   51MOL   H14213242   4.997   2.526   4.771  0.9053 -0.5508 -0.3471
   51MOL   H14313243   4.667   2.616   4.387 -1.5433 -0.1843 -2.3817
   51MOL   H14413244   4.765   2.480   4.339  0.8249  2.9418 -0.3670
   51MOL   C14513245   4.551   2.446   4.326  0.5594  0.2513 -0.2382
   51MOL   C14613246   4.508   2.511   4.195 -0.4928 -0.1380  0.2834
   51MOL   C14713247   4.550   2.647   4.148 -0.4850 -1.0477 -0.2368
   51MOL   C14813248   4.607   2.528   4.082 -0.1452 -0.3176  0.6983
   51MOL   C14913249   4.575   2.296   4.304 -0.2583 -0.4249  0.7217
   51MOL   H15013250   4.468   2.456   4.395 -0.5495  2.7243 -1.8334
   51MOL   H15113251   4.409   2.483   4.160 -1.3397  1.4353  1.4069
   51MOL   H15213252   4.465   2.699   4.103  0.4292  0.9144  0.2086
   51MOL   H15313253   4.602   2.702   4.227  0.2330 -1.0634 -0.6864
   51MOL   H15413254   4.702   2.484   4.110 -1.2666 -1.9114  2.0958
   51MOL   H15513255   4.561   2.498   3.988  3.7049  0.1108 -1.4139
   51MOL   H15613256   4.640   2.287   4.217 -0.0306 -0.9148  0.9440
   51MOL   H15713257   4.652   2.258   4.371  1.1964 -0.1108 -0.7191
   51MOL   C15813258   4.461   2.201   4.291 -0.5918  0.7623 -0.1656
   51MOL   C15913259   4.357   2.219   4.400  0.0002  0.5178 -0.4409
   51MOL   C16013260   4.228   2.293   4.369 -0.0316  0.7448  0.4862
   51MOL   C16113261   4.218   2.145   4.379 -0.2673 -0.3894 -0.2191
   51MOL   C16213262   4.509   2.063   4.274  0.3562  0.3700 -0.1572
   51MOL   H16313263   4.409   2.230   4.200 -0.1223 -1.0902 -1.0319
   51MOL   H16413264   4.395   2.228   4.502 -0.6618 -2.3356  0.1306
   51MOL   H16513265   4.233   2.341   4.271  0.6720  0.3049  0.3025
   51MOL   H16613266   4.174   2.350   4.444 -0.8373  2.2163 -1.1688
   51MOL   H16713267   4.177   2.090   4.464 -0.4966  0.0729 -0.0288
   51MOL   H16813268   4.201   2.091   4.286 -2.5491  0.1237 -0.1304
   51MOL   H16913269   4.429   1.991   4.288  1.4620 -0.3804  2.5730
   51MOL   H17013270   4.575   2.031   4.354 -1.5549  0.0109  1.2845
   51MOL   C17113271   4.566   2.032   4.132  0.7333  0.1314  0.4262
   51MOL   C17213272   4.673   1.920   4.133 -0.3456 -0.1475 -0.6283
   51MOL   C17313273   4.793   1.931   4.040 -0.1471 -0.5865  0.3579
   51MOL   C17413274   4.808   1.927   4.197 -0.0537  0.2603 -0.3626
   51MOL   C17513275   4.453   1.978   4.041  0.6206  0.3866  0.0172
   51MOL   H17613276   4.612   2.125   4.101  2.2982 -0.1745  1.7786
   51MOL   H17713277   4.631   1.823   4.157 -0.2274  0.2714  1.4291
   51MOL   H17813278   4.810   1.842   3.979 -1.0968  0.6606 -1.7978
   51MOL   H17913279   4.801   2.029   3.994 -1.9666  0.9425  3.1789
   51MOL   H18013280   4.838   2.004   4.268 -0.2683 -1.3574  1.5297
   51MOL   H18113281   4.838   1.831   4.238  0.5812  0.7176  0.2409
   51MOL   H18213282   4.357   2.008   4.084  0.5427 -0.5663  0.5192
   51MOL   H18313283   4.451   1.869   4.037  2.3161  0.2902  1.6212
   51MOL   C18413284   4.456   2.045   3.898 -0.3697  0.2846  0.5819
   51MOL   C18513285   4.444   2.201   3.911 -0.0041  1.7061  0.8408
   51MOL   C18613286   4.319   2.263   3.956 -0.7455  0.3270 -0.3320
   51MOL   C18713287   4.355   2.291   3.821  0.2989  0.4790 -0.1747
   51MOL   C18813288   4.355   1.970   3.811 -0.4522  0.2271  0.1057
   51MOL   H18913289   4.559   2.039   3.864 -0.5104 -0.5857  0.3047
   51MOL   H19013290   4.539   2.246   3.937  1.5138 -2.0487  2.2112
   51MOL   H19113291   4.335   2.345   4.026  0.6149  0.2080 -0.4816
   51MOL   H19213292   4.230   2.202   3.971 -1.1843  1.2402  0.8830
   51MOL   H19313293   4.393   2.386   3.783  0.8114  0.2373 -0.2581
   51MOL   H19413294   4.289   2.241   3.750  1.0918 -0.0251 -0.5628
   51MOL   H19513295   4.332   2.029   3.722  0.6094  1.7862  0.8486
   51MOL   H19613296   4.260   1.967   3.864 -0.6680  0.9442 -0.2340
   51MOL   C19713297   4.390   1.823   3.768 -0.8779 -0.6762 -0.2828
   51MOL   C19813298   4.490   1.840   3.658 -0.0106  0.1953  0.1926
   51MOL   C19913299   4.597   1.738   3.622  0.1210 -0.0168  0.0362
   51MOL   C20013300   4.636   1.857   3.701 -0.5339  0.3334  0.4183
   51MOL   C20113301   4.263   1.748   3.717  0.7285  0.0081  1.2688
   51MOL   H20213302   4.434   1.766   3.850 -0.9761 -3.1643 -1.9369
   51MOL   H20313303   4.460   1.908   3.579 -2.4620 -0.8443  0.1929
   51MOL   H20413304   4.594   1.730   3.514 -0.0375  1.1017 -0.0488
   51MOL   H20513305   4.589   1.640   3.668  0.6606 -0.5909 -1.0830
   51MOL   H20613306   4.657   1.854   3.808  0.4891 -0.8645  0.2023
   51MOL   H20713307   4.696   1.934   3.653 -1.5546 -0.6216 -2.4645
   51MOL   H20813308   4.219   1.808   3.637  2.7248  0.6700  0.6406
   51MOL   H20913309   4.282   1.657   3.659  0.5654  0.9385 -0.2805
   51MOL   C21013310   4.160   1.714   3.831 -0.5825 -0.3445  0.6893
   51MOL   C21113311   4.033   1.672   3.755  0.7094 -0.1829 -0.0391
   51MOL   C21213312   3.893   1.695   3.806  0.3135  0.8713  0.4266
   51MOL   C21313313   3.943   1.779   3.693 -0.6106  0.0491  0.5953
   51MOL   C21413314   4.213   1.600   3.930  1.2019 -0.2138 -0.2317
   51MOL   H21513315   4.129   1.803   3.886 -0.0310  1.1697 -1.4176
   51MOL   H21613316   4.040   1.580   3.698  0.7760  0.6785 -1.4415
   51MOL   H21713317   3.810   1.637   3.768  0.8530 -0.0657  0.6597
   51MOL   H21813318   3.880   1.747   3.901  1.0330  0.1583  0.9283
   51MOL   H21913319   3.921   1.763   3.588 -0.0261  2.4277  0.0924
   51MOL   H22013320   3.973   1.880   3.718  3.1668 -1.2520  1.6896
   51MOL   H22113321   4.234   1.506   3.878 -1.4573 -0.9744 -0.0017
   51MOL   H22213322   4.313   1.625   3.964  0.8984  1.8571 -0.7697
   51MOL   C22313323   4.124   1.574   4.051 -0.3763 -0.0486 -0.7044
   51MOL   C22413324   4.179   1.633   4.190  0.2166 -0.2790  0.2552
   51MOL   C22513325   4.191   1.779   4.215  0.1428  0.1394  0.1807
   51MOL   C22613326   4.081   1.708   4.284  0.4764 -0.0200 -0.3396
   51MOL   C22713327   4.070   1.432   4.060  0.3136 -0.0910  0.0479
   51MOL   H22813328   4.036   1.636   4.031  0.8725  1.2371 -2.4433
   51MOL   H22913329   4.261   1.579   4.236  1.2064  0.6039 -0.4477
   51MOL   H23013330   4.179   1.835   4.123 -2.8330 -1.2730 -0.3463
   51MOL   H23113331   4.291   1.801   4.252  0.3237  1.2642 -0.9319
   51MOL   H23213332   4.087   1.697   4.392  0.0977  2.2286 -0.0623
   51MOL   H23313333   3.978   1.704   4.247  0.5615 -0.1717 -0.5606
   51MOL   H23413334   4.039   1.404   3.959 -0.7387 -1.0020  0.6094
   51MOL   H23513335   4.153   1.365   4.082  2.0777  1.5430 -1.4064
   51MOL   C23613336   3.939   1.407   4.143 -0.3675  1.1308 -0.3461
   51MOL   C23713337   3.927   1.253   4.157  0.0296  0.6347 -0.2492
   51MOL   C23813338   3.997   1.181   4.272 -0.0199  0.3719 -0.0427
   51MOL   C23913339   3.846   1.176   4.257 -1.0704  0.0892 -0.2034
   51MOL   C24013340   3.813   1.489   4.092 -0.0770  0.0119  0.3465
   51MOL   H24113341   3.947   1.447   4.244 -1.9753 -0.7870  0.5837
   51MOL   H24213342   3.956   1.202   4.065  0.5214 -0.0555  0.2809
   51MOL   H24313343   4.036   1.080   4.262 -1.9419 -0.7148  2.7786
   51MOL   H24413344   4.031   1.249   4.350 -3.5322  1.6943  0.4479
   51MOL   H24513345   3.799   1.231   4.338  0.9765  3.7294 -1.3981
   51MOL   H24613346   3.792   1.095   4.207  0.8918 -0.5529 -1.3108
   51MOL   H24713347   3.830   1.595   4.107  0.2054  0.1842 -1.0749
   51MOL   H24813348   3.812   1.474   3.984  0.3848 -3.2459  0.7438
   51MOL   C24913349   3.674   1.451   4.159 -0.0435  0.3454  0.1453
   51MOL   C25013350   3.546   1.502   4.084 -0.0469 -0.5449 -0.6655
   51MOL   C25113351   3.408   1.510   4.146 -0.4417 -0.0792 -0.5075
   51MOL   C25213352   3.484   1.641   4.112 -0.0535  0.5490 -0.0612
   51MOL   C25313353   3.672   1.486   4.311 -0.3521 -0.1379  0.4137
   51MOL   H25413354   3.675   1.343   4.151 -0.6744  0.4024 -0.8756
   51MOL   H25513355   3.559   1.478   3.978 -0.0013 -1.0149 -0.5548
   51MOL   H25613356   3.325   1.488   4.079 -0.3158 -0.3275 -0.5825
   51MOL   H25713357   3.390   1.480   4.248 -2.0309 -1.4646 -1.1860
   51MOL   H25813358   3.452   1.696   4.024 -2.2093 -0.3224  0.1243
   51MOL   H25913359   3.512   1.702   4.197 -4.1492  1.0651  1.0607
   51MOL   H26013360   3.600   1.432   4.373 -2.2938  2.0395  0.1479
   51MOL   H26113361   3.676   1.594   4.326  0.3630  0.0669 -1.2526
   51MOL   H26213362   3.765   1.450   4.353 -0.6130 -1.8969 -0.5022
   52MOL     C113363   0.567   3.853   7.395 -0.4231  0.7507  0.6561
   52MOL     C213364   0.690   3.886   7.474  0.6355 -0.1553  0.2073
   52MOL     C313365   0.825   3.824   7.460 -0.1573 -0.4364  0.6248
   52MOL     C413366   0.744   3.816   7.589 -0.4495  0.2439 -0.4458
   52MOL     C513367   0.560   3.945   7.269  0.0568  0.1505  0.0505
   52MOL     H613368   0.575   3.750   7.360 -0.7839  1.0138 -0.2145
   52MOL     H713369   0.699   3.994   7.481 -2.9663  0.1402  1.4555
   52MOL     H813370   0.849   3.725   7.423  0.5746 -1.1106  2.8072
   52MOL     H913371   0.917   3.883   7.465  0.9490 -2.1641  1.2814
   52MOL    H1013372   0.770   3.874   7.678  0.9663 -0.7324 -0.1912
   52MOL    H1113373   0.719   3.712   7.609 -2.0151  0.8371  0.7073
   52MOL    H1213374   0.656   3.967   7.222  0.0813 -2.3382 -1.1885
   52MOL    H1313375   0.528   4.042   7.304  1.1303  0.4354  0.2609
   52MOL    H1413376   0.478   3.846   7.457 -0.4989 -0.0659  0.4631
   52MOL    C1513377   0.449   3.913   7.163 -0.5047 -0.2125  0.1884
   52MOL    C1613378   0.313   3.952   7.215  0.3033  0.5657 -0.1829
   52MOL    C1713379   0.237   3.874   7.319  0.4115  0.4429  0.1012
   52MOL    C1813380   0.180   3.890   7.175 -0.0249  0.4527  0.1191
   52MOL    C1913381   0.486   3.985   7.030 -0.1769 -0.1697 -1.1857
   52MOL    H2013382   0.464   3.807   7.140  1.1760 -0.2992  1.5637
   52MOL    H2113383   0.301   4.058   7.233 -0.2177  0.8672 -2.2172
   52MOL    H2213384   0.173   3.917   7.396 -1.4560 -2.0152 -0.0089
   52MOL    H2313385   0.279   3.777   7.345  0.2735  0.4511  0.3582
   52MOL    H2413386   0.195   3.817   7.096  0.7612  2.2356 -1.4085
   52MOL    H2513387   0.099   3.960   7.158  1.3540  0.9659 -4.9606
   52MOL    H2613388   0.593   3.985   7.007  0.2512 -0.7157  0.7016
   52MOL    H2713389   0.466   4.092   7.043 -4.0129 -1.0690  0.9927
   52MOL    C2813390   0.411   3.927   6.903 -0.2854 -0.2526  0.9632
   52MOL    C2913391   0.457   3.786   6.881 -0.2341  0.0831  0.3789
   52MOL    C3013392   0.381   3.659   6.914 -0.3879  0.5250 -0.1916
   52MOL    C3113393   0.400   3.708   6.765  0.4084 -0.1408  0.0488
   52MOL    C3213394   0.456   4.008   6.779  0.0584  0.4060  0.4866
   52MOL    H3313395   0.304   3.932   6.922 -0.4396 -1.2870  0.3871
   52MOL    H3413396   0.565   3.781   6.894 -0.3660  0.8019  1.7586
   52MOL    H3513397   0.281   3.674   6.955  0.1263  2.4004  0.4530
   52MOL    H3613398   0.439   3.575   6.950 -1.0478 -0.3746 -1.2164
   52MOL    H3713399   0.319   3.755   6.709 -0.6279 -3.2788 -1.2076
   52MOL    H3813400   0.469   3.643   6.711  1.7986  0.0382  1.5709
   52MOL    H3913401   0.426   3.961   6.685 -3.6004 -0.5182  2.0357
   52MOL    H4013402   0.565   4.007   6.773 -0.0374  0.2740 -1.6341
   52MOL    C4113403   0.394   4.151   6.772 -0.1629  0.7673  0.0619
   52MOL    C4213404   0.238   4.139   6.772 -0.2496  0.0339  0.4557
   52MOL    C4313405   0.142   4.255   6.813 -0.1802  0.3174  0.0190
   52MOL    C4413406   0.161   4.133   6.903 -0.2059  1.4525  0.0325
   52MOL    C4513407   0.437   4.231   6.650 -0.6439 -0.6040 -1.0187
   52MOL    H4613408   0.420   4.214   6.857  3.2206 -1.2152  0.5775
   52MOL    H4713409   0.204   4.078   6.689 -0.1659  0.7262 -0.0967
   52MOL    H4813410   0.187   4.350   6.842 -0.1407  0.3567 -0.1684
   52MOL    H4913411   0.044   4.269   6.769 -0.1144 -1.7156 -0.8307
   52MOL    H5013412   0.084   4.056   6.902  2.6864 -1.5746 -1.4058
   52MOL    H5113413   0.225   4.129   6.992  3.0316  0.1798 -2.2415
   52MOL    H5213414   0.352   4.285   6.608 -1.9158 -0.9424  1.0487
   52MOL    H5313415   0.453   4.160   6.568  1.0921 -0.8077 -0.5020
   52MOL    C5413416   0.557   4.329   6.650 -0.1995  0.4505  0.0494
   52MOL    C5513417   0.682   4.248   6.695 -0.0020  0.3489  0.6806
   52MOL    C5613418   0.727   4.233   6.837  1.0673  0.5552  0.2103
   52MOL    C5713419   0.807   4.319   6.747 -0.6160 -0.9444 -0.1530
   52MOL    C5813420   0.575   4.398   6.519  0.4246  0.1047 -0.2160
   52MOL    H5913421   0.549   4.404   6.728 -0.4663 -0.6489  1.0923
   52MOL    H6013422   0.697   4.154   6.643 -1.9761 -0.9646  2.4005
   52MOL    H6113423   0.664   4.277   6.914  0.7980 -0.2180  0.4334
   52MOL    H6213424   0.755   4.130   6.853  1.8094  0.3893 -1.9995
   52MOL    H6313425   0.902   4.282   6.707  0.7904  3.0520 -0.8350
   52MOL    H6413426   0.804   4.428   6.747 -1.5110 -0.9707  0.4540
   52MOL    H6513427   0.670   4.452   6.527 -0.3821  1.1681  3.4727
   52MOL    H6613428   0.606   4.331   6.440 -1.1123 -1.2512  0.3015
   52MOL    C6713429   0.467   4.500   6.472  0.0522 -0.6260  0.1960
   52MOL    C6813430   0.495   4.634   6.537 -0.3895  0.0607  0.2139
   52MOL    C6913431   0.395   4.740   6.566  0.2344 -0.0315 -0.0729
   52MOL    C7013432   0.436   4.649   6.679  0.4884 -0.5954  0.3633
   52MOL    C7113433   0.449   4.504   6.322  0.0080  0.6459  0.6033
   52MOL    H7213434   0.374   4.465   6.516 -0.8212  0.8219 -0.4778
   52MOL    H7313435   0.595   4.672   6.518 -1.6460  1.4073 -4.4930
   52MOL    H7413436   0.429   4.842   6.545 -0.9062  0.2507 -0.5792
   52MOL    H7513437   0.296   4.724   6.524 -1.0738  1.8334  2.1637
   52MOL    H7613438   0.369   4.572   6.716 -2.1531  0.6525 -1.6422
   52MOL    H7713439   0.492   4.702   6.756  0.5161 -0.9614  0.5922
   52MOL    H7813440   0.464   4.404   6.282 -2.6785 -0.2243  1.6914
   52MOL    H7913441   0.531   4.558   6.272 -0.3889  0.3342 -0.3991
   52MOL    C8013442   0.313   4.566   6.273 -0.6397 -0.2184  0.5059
   52MOL    C8113443   0.201   4.453   6.287 -0.0648 -0.1528 -0.0068
   52MOL    C8213444   0.057   4.492   6.287  0.2263 -0.6661 -0.2015
   52MOL    C8313445   0.121   4.440   6.413 -0.2444  0.0023 -0.1571
   52MOL    C8413446   0.321   4.601   6.123 -0.1727 -0.2216  0.1340
   52MOL    H8513447   0.282   4.653   6.332 -0.1351 -0.5050  1.2023
   52MOL    H8613448   0.215   4.360   6.232  0.6863  0.5757 -1.0687
   52MOL    H8713449   7.820   4.428   6.243 -2.6082  0.1893  3.1793
   52MOL    H8813450   0.029   4.597   6.276  0.3764 -0.4536  1.2904
   52MOL    H8913451   0.137   4.511   6.494  0.0374 -2.7974  2.3402
   52MOL    H9013452   0.107   4.338   6.448 -1.5846 -0.4095 -1.8336
   52MOL    H9113453   0.367   4.516   6.073  0.1352  0.1465 -0.2108
   52MOL    H9213454   0.224   4.619   6.076  0.0205 -0.1850 -0.2500
   52MOL    C9313455   0.413   4.722   6.080  0.4623  0.4007 -0.0934
   52MOL    C9413456   0.397   4.743   5.929  0.6071 -0.0108  0.8270
   52MOL    C9513457   0.511   4.794   5.852 -0.5112 -0.1725 -0.1313
   52MOL    C9613458   0.454   4.656   5.820 -0.1546 -0.1107  0.4497
   52MOL    C9713459   0.381   4.857   6.146  0.4108 -0.3145 -0.1520
   52MOL    H9813460   0.515   4.690   6.100 -0.1659 -1.9021 -0.4220
   52MOL    H9913461   0.305   4.794   5.901  1.0404  0.2018 -0.2169
   52MOL   H10013462   0.515   4.851   5.759  3.3202 -0.0293  0.0044
   52MOL   H10113463   0.606   4.783   5.904 -0.8497 -0.1767  0.4953
   52MOL   H10213464   0.409   4.655   5.721 -0.3507  3.2268  0.4497
   52MOL   H10313465   0.510   4.566   5.848  1.5010  0.1707 -1.8401
   52MOL   H10413466   0.334   4.846   6.244  0.1856  3.6687  0.2575
   52MOL   H10513467   0.291   4.890   6.095 -0.1892 -1.1780  0.3326
   52MOL   C10613468   0.487   4.965   6.161 -0.3538  0.1808  0.5627
   52MOL   C10713469   0.435   5.103   6.139 -0.4566 -0.3388 -0.3203
   52MOL   C10813470   0.519   5.201   6.070 -0.3179 -0.1767  0.4285
   52MOL   C10913471   0.403   5.153   6.001 -0.6571 -0.4193 -0.4699
   52MOL   C11013472   0.550   4.947   6.300  0.4493 -0.2755 -0.4420
   52MOL   H11113473   0.560   4.965   6.080 -0.0880  1.2323  0.7943
   52MOL   H11213474   0.379   5.142   6.224 -1.4849  0.3761 -1.3093
   52MOL   H11313475   0.530   5.305   6.100  2.7435 -0.7215  1.4435
   52MOL   H11413476   0.618   5.171   6.037 -0.0002  0.7805  0.4874
   52MOL   H11513477   0.423   5.088   5.916 -1.7049  1.7002 -2.4095
   52MOL   H11613478   0.330   5.231   5.982  0.3413  0.3729 -1.1222
   52MOL   H11713479   0.472   4.967   6.373 -0.3609  2.8907 -2.0913
   52MOL   H11813480   0.585   4.844   6.300 -1.8578 -1.0683 -1.3281
   52MOL   C11913481   0.675   5.032   6.343  0.3974 -0.7137 -0.1650
   52MOL   C12013482   0.683   5.038   6.495  0.2356  0.2932  0.2628
   52MOL   C12113483   0.587   5.123   6.571  0.0840  0.0199 -0.7519
   52MOL   C12213484   0.735   5.164   6.547  0.5115  0.0734 -0.2075
   52MOL   C12313485   0.798   4.961   6.283  0.4577 -0.0896  0.4308
   52MOL   H12413486   0.663   5.133   6.303  0.8313 -0.7657 -0.4247
   52MOL   H12513487   0.720   4.948   6.545  3.1539  2.1855  1.5908
   52MOL   H12613488   0.551   5.082   6.665 -1.5767 -1.1345 -1.8604
   52MOL   H12713489   0.518   5.172   6.503  0.0653  0.5747 -0.3355
   52MOL   H12813490   0.733   5.250   6.481  1.5927 -0.0928 -0.4611
   52MOL   H12913491   0.814   5.167   6.621  0.2283 -0.1126  0.1021
   52MOL   H13013492   0.854   4.913   6.363  2.0048  0.5060 -0.2722
   52MOL   H13113493   0.768   4.886   6.209 -0.6232  1.5888 -0.8787
   52MOL   C13213494   0.874   5.062   6.187  0.2208 -0.8862  0.0309
   52MOL   C13313495   0.964   4.984   6.087  0.6631  0.6458  0.0924
   52MOL   C13413496   1.012   5.028   5.954 -0.0172 -0.2859  0.3825
   52MOL   C13513497   0.898   4.925   5.961  0.5043 -0.7939  1.0566
   52MOL   C13613498   0.953   5.167   6.267 -0.3878 -0.4650  0.1210
   52MOL   H13713499   0.807   5.123   6.128  1.8822 -0.7912 -1.7905
   52MOL   H13813500   1.046   4.935   6.139  2.5168  0.5458 -2.7616
   52MOL   H13913501   0.982   5.128   5.926 -0.3043  0.1113  2.0381
   52MOL   H14013502   1.106   4.994   5.911  0.3132  2.2014 -0.9379
   52MOL   H14113503   0.795   4.958   5.951  0.7784  0.0490  0.9979
   52MOL   H14213504   0.913   4.824   5.924 -2.1746  0.1099 -2.7448
   52MOL   H14313505   0.884   5.210   6.340  1.7753 -0.4003  2.1714
   52MOL   H14413506   1.020   5.117   6.336 -2.2189  0.3211  2.5451
   52MOL   C14513507   1.019   5.281   6.186  0.3009 -0.6021 -0.3539
   52MOL   C14613508   0.912   5.386   6.155  0.2316  0.6750 -0.3868
   52MOL   C14713509   0.936   5.482   6.043  0.1569  0.4075 -0.5256
   52MOL   C14813510   0.829   5.379   6.029  0.3130  0.2041 -0.3086
   52MOL   C14913511   1.135   5.346   6.264 -0.7043  0.1369 -0.7497
   52MOL   H15013512   1.064   5.241   6.095 -0.0892 -1.3953 -0.2060
   52MOL   H15113513   0.852   5.413   6.241  1.8670  0.6912  0.7837
   52MOL   H15213514   0.897   5.581   6.064  1.5807  0.6791  0.9631
   52MOL   H15313515   1.033   5.482   5.993  0.2525  0.5481 -0.3374
   52MOL   H15413516   0.849   5.284   5.982 -0.5622 -0.3042  0.3224
   52MOL   H15513517   0.728   5.419   6.022  0.7395  1.5102  0.5899
   52MOL   H15613518   1.166   5.434   6.207 -0.1018 -0.7180 -1.7444
   52MOL   H15713519   1.100   5.394   6.355 -0.4345  0.0622 -0.6040
   52MOL   C15813520   1.256   5.265   6.295 -0.2434 -0.6270  0.2018
   52MOL   C15913521   1.303   5.307   6.425  0.0972  0.1439  0.5707
   52MOL   C16013522   1.225   5.300   6.555  0.4356  0.2376  0.6434
   52MOL   C16113523   1.340   5.199   6.525  0.3822 -0.1430  0.3548
   52MOL   C16213524   1.365   5.273   6.180  1.1079 -0.2024 -0.1816
   52MOL   H16313525   1.228   5.160   6.298  3.4234 -1.7190 -1.3066
   52MOL   H16413526   1.367   5.395   6.424  0.1623  0.1060  1.0353
   52MOL   H16513527   1.130   5.248   6.569 -0.6179  1.9893  0.1779
   52MOL   H16613528   1.249   5.377   6.629  0.9007  1.7335 -1.0463
   52MOL   H16713529   1.431   5.200   6.584  0.3827  2.6744  0.3721
   52MOL   H16813530   1.307   5.098   6.501  1.0767 -0.1775 -0.4755
   52MOL   H16913531   1.419   5.366   6.193 -1.2624  1.1166  0.7118
   52MOL   H17013532   1.319   5.255   6.083 -0.0121 -1.1148  0.4929
   52MOL   C17113533   1.474   5.165   6.188  0.0333 -0.8221 -0.0750
   52MOL   C17213534   1.431   5.024   6.148 -0.1139  0.1642  0.1843
   52MOL   C17313535   1.498   4.902   6.198  0.2851 -0.1041  0.3935
   52MOL   C17413536   1.351   4.927   6.231 -0.0801 -0.0855 -0.5088
   52MOL   C17513537   1.602   5.210   6.124  0.4086  0.2660  0.3305
   52MOL   H17613538   1.505   5.157   6.292 -1.3609  0.8781  0.4908
   52MOL   H17713539   1.394   5.024   6.045 -0.0658  1.9392  0.1547
   52MOL   H17813540   1.525   4.825   6.127  1.8308  1.7941 -1.1542
   52MOL   H17913541   1.572   4.910   6.277  0.0918  1.0776  0.4732
   52MOL   H18013542   1.333   4.973   6.328  1.7996  0.3716 -0.3495
   52MOL   H18113543   1.272   4.861   6.198 -0.5458 -0.9906  2.2294
   52MOL   H18213544   1.573   5.250   6.027 -0.1288 -1.0783 -0.0800
   52MOL   H18313545   1.657   5.120   6.097 -0.5871  0.2271 -1.6657
   52MOL   C18413546   1.693   5.306   6.204 -0.4230 -0.3919 -0.0983
   52MOL   C18513547   1.769   5.381   6.110 -0.8263 -0.1366  0.4203
   52MOL   C18613548   1.822   5.525   6.119 -0.1253  0.3754  0.4632
   52MOL   C18713549   1.708   5.491   6.026 -0.4663 -0.0208 -0.5162
   52MOL   C18813550   1.777   5.228   6.304  0.5285  0.3738  0.3434
   52MOL   H18913551   1.624   5.374   6.254 -0.9633 -1.2139  0.2902
   52MOL   H19013552   1.839   5.313   6.061 -1.3538 -0.9797  0.8445
   52MOL   H19113553   1.915   5.547   6.067 -1.2843 -1.2939 -2.4692
   52MOL   H19213554   1.789   5.596   6.195 -1.7421  1.3407 -1.0880
   52MOL   H19313555   1.722   5.485   5.918 -0.4951  0.5357 -0.5497
   52MOL   H19413556   1.608   5.523   6.055 -0.8786 -0.5928 -1.2850
   52MOL   H19513557   1.862   5.179   6.256  0.8461  1.1298  0.1179
   52MOL   H19613558   1.723   5.141   6.341  1.2580 -0.2393 -0.0295
   52MOL   C19713559   1.829   5.316   6.426 -0.2407 -0.1933  0.1800
   52MOL   C19813560   1.974   5.284   6.449 -0.5944 -0.4451  0.1715
   52MOL   C19913561   2.059   5.375   6.523  0.0037 -0.1025 -0.3464
   52MOL   C20013562   2.075   5.358   6.381  0.3437  0.3498 -0.3974
   52MOL   C20113563   1.736   5.292   6.554 -0.2005  0.0255  0.1040
   52MOL   H20213564   1.827   5.420   6.394  0.6100 -1.1929 -3.3347
   52MOL   H20313565   2.006   5.186   6.483  0.8285 -0.6325 -1.6455
   52MOL   H20413566   2.016   5.469   6.555  0.4266 -0.3359  0.9303
   52MOL   H20513567   2.136   5.341   6.591 -0.3475 -0.6027 -0.1946
   52MOL   H20613568   2.046   5.437   6.312 -0.3698  0.6804  0.2751
   52MOL   H20713569   2.155   5.293   6.348  1.5154  1.0088  1.0779
   52MOL   H20813570   1.634   5.261   6.531  0.0695  0.6659 -2.1699
   52MOL   H20913571   1.783   5.208   6.604 -3.8413 -1.6554  0.9120
   52MOL   C21013572   1.717   5.422   6.642 -0.1560 -0.1297 -0.1522
   52MOL   C21113573   1.628   5.518   6.570 -0.5062  0.1967  0.2696
   52MOL   C21213574   1.629   5.667   6.602 -0.0207 -0.0472  0.2110
   52MOL   C21313575   1.693   5.623   6.475  0.2200  0.0324 -0.2909
   52MOL   C21413576   1.653   5.365   6.774 -0.6541 -0.5762 -0.0527
   52MOL   H21513577   1.810   5.469   6.672  0.3629 -1.0657 -0.2624
   52MOL   H21613578   1.531   5.484   6.532 -0.5604 -0.2015  0.7688
   52MOL   H21713579   1.530   5.710   6.611 -0.0569 -0.4064  1.8334
   52MOL   H21813580   1.691   5.694   6.688  0.0580  0.5361 -0.0327
   52MOL   H21913581   1.639   5.668   6.392 -1.3475  0.6111  1.0133
   52MOL   H22013582   1.802   5.616   6.467  0.4518  0.7808  1.8021
   52MOL   H22113583   1.551   5.335   6.749  0.1349 -4.1870  0.8545
   52MOL   H22213584   1.701   5.271   6.800 -0.3065 -0.6286 -0.8468
   52MOL   C22313585   1.664   5.464   6.891  0.1472  0.2200 -0.6007
   52MOL   C22413586   1.806   5.468   6.943 -0.5756 -0.0280  0.0391
   52MOL   C22513587   1.917   5.549   6.890  0.3282 -0.8336 -0.0350
   52MOL   C22613588   1.872   5.574   7.032 -0.4691  0.2259  0.3769
   52MOL   C22713589   1.581   5.423   7.018 -0.3682  0.3657  0.7325
   52MOL   H22813590   1.644   5.569   6.874 -0.0147  0.5639  1.5683
   52MOL   H22913591   1.841   5.365   6.949 -1.1298 -0.1256  1.9237
   52MOL   H23013592   1.890   5.609   6.803 -1.6927 -1.2483  0.2908
   52MOL   H23113593   2.013   5.501   6.875  0.3758 -0.4380 -1.0103
   52MOL   H23213594   1.916   5.529   7.121  0.0140 -0.6086 -0.2834
   52MOL   H23313595   1.796   5.648   7.054 -0.8878 -1.1392  3.8490
   52MOL   H23413596   1.614   5.321   7.038  1.9525  1.1264  0.8903
   52MOL   H23513597   1.607   5.483   7.105  1.9947 -0.7374  0.8449
   52MOL   C23613598   1.428   5.426   6.994 -0.5529 -0.1670  0.0863
   52MOL   C23713599   1.380   5.564   6.972  0.1162  0.2477 -0.3613
   52MOL   C23813600   1.384   5.620   6.834 -0.4573  0.4706 -1.1875
   52MOL   C23913601   1.253   5.578   6.898 -0.3243  0.2228  0.1353
   52MOL   C24013602   1.347   5.356   7.114 -0.3124 -0.0953 -0.5201
   52MOL   H24113603   1.403   5.369   6.905  3.5008 -0.1915 -1.1349
   52MOL   H24213604   1.411   5.634   7.049 -1.2059 -0.2574  0.6587
   52MOL   H24313605   1.401   5.727   6.843  1.1066  0.3229 -2.2119
   52MOL   H24413606   1.434   5.562   6.757 -0.3416  0.7735 -1.3435
   52MOL   H24513607   1.207   5.503   6.835 -0.6867  1.9932 -1.7842
   52MOL   H24613608   1.189   5.664   6.918  0.2790  0.7528 -0.1815
   52MOL   H24713609   1.355   5.426   7.197 -0.6888 -0.4298 -0.2045
   52MOL   H24813610   1.243   5.358   7.083 -1.3334  3.5096  2.8735
   52MOL   C24913611   1.375   5.208   7.145 -0.8064 -0.3096  0.2233
   52MOL   C25013612   1.368   5.112   7.029  0.2853 -0.3635  0.1598
   52MOL   C25113613   1.487   5.055   6.951  0.0638  0.1956 -0.2530
   52MOL   C25213614   1.395   4.970   7.040 -0.8852 -0.1235 -0.1570
   52MOL   C25313615   1.279   5.166   7.252  0.2858  0.9225  1.2644
   52MOL   H25413616   1.473   5.194   7.191 -1.2815 -1.2540  0.9568
   52MOL   H25513617   1.280   5.130   6.968  0.6946  0.8683 -0.0771
   52MOL   H25613618   1.472   5.069   6.844 -2.1853  1.6891  0.2340
   52MOL   H25713619   1.587   5.082   6.985  0.2515 -1.9116  1.0050
   52MOL   H25813620   1.326   4.897   7.000 -0.1520 -1.7047  1.4000
   52MOL   H25913621   1.457   4.925   7.117 -0.1768  1.0396 -0.0235
   52MOL   H26013622   1.325   5.207   7.342 -0.5839 -0.8560  2.5489
   52MOL   H26113623   1.299   5.060   7.268  1.3420  0.9053 -0.0733
   52MOL   H26213624   1.172   5.182   7.234  0.3472 -0.4999 -0.4871
   53MOL     C113625   0.358   1.103   2.613 -0.0347  0.0187  0.7903
   53MOL     C213626   0.475   1.185   2.572 -0.2041 -0.1189  0.2382
   53MOL     C313627   0.615   1.131   2.585 -0.0962  0.5096 -1.1215
   53MOL     C413628   0.569   1.237   2.679 -0.1519  0.0095  1.1785
   53MOL     C513629   0.299   1.024   2.497 -0.5898 -0.0563 -0.1302
   53MOL     H613630   0.383   1.028   2.688  2.4461  0.5674  0.5512
   53MOL     H713631   0.448   1.245   2.485  2.0395 -1.2112 -1.2650
   53MOL     H813632   0.623   1.030   2.623  1.8023  0.4305 -1.6819
   53MOL     H913633   0.684   1.153   2.504 -1.6759  1.2366 -2.3050
   53MOL    H1013634   0.634   1.324   2.676 -0.6441  0.3586  0.3338
   53MOL    H1113635   0.544   1.206   2.780  0.1939  2.8001  2.1469
   53MOL    H1213636   0.380   0.982   2.436  1.3245  2.1209  0.8296
   53MOL    H1313637   0.253   1.096   2.429 -0.6841  0.1162  0.1152
   53MOL    H1413638   0.279   1.171   2.644 -1.9075 -1.0482 -1.4712
   53MOL    C1513639   0.199   0.919   2.530  0.6793  0.5321  0.1612
   53MOL    C1613640   0.066   0.976   2.590 -0.0196  0.1303 -0.5080
   53MOL    C1713641   0.035   0.965   2.735  0.0697  0.3253 -0.3153
   53MOL    C1813642   7.800   0.881   2.635  0.2094 -0.4386  0.7928
   53MOL    C1913643   0.176   0.830   2.402  0.1443  0.6723  0.0286
   53MOL    H2013644   0.249   0.860   2.607  2.1848 -0.3109 -1.4276
   53MOL    H2113645   0.037   1.072   2.546  2.1696 -0.1084 -2.5240
   53MOL    H2213646   7.815   1.040   2.786 -0.7536 -1.1413  0.9421
   53MOL    H2313647   0.096   0.906   2.804 -1.0983  1.6929  1.9304
   53MOL    H2413648   7.831   0.777   2.645 -2.4581 -1.3484  0.2166
   53MOL    H2513649   7.692   0.899   2.633  0.3635  0.4304  0.4676
   53MOL    H2613650   0.176   0.895   2.314 -0.2805  0.0205 -0.4501
   53MOL    H2713651   0.080   0.780   2.393 -0.0914  0.8806  1.1866
   53MOL    C2813652   0.272   0.709   2.394 -0.1055  0.2351 -0.4612
   53MOL    C2913653   0.269   0.651   2.259  0.2371 -0.6282  0.2277
   53MOL    C3013654   0.326   0.731   2.138  0.1973  0.2727  0.0182
   53MOL    C3113655   0.402   0.613   2.188  0.0474 -0.1643  0.5029
   53MOL    C3213656   0.255   0.601   2.510 -0.1087 -0.3179  0.4110
   53MOL    H3313657   0.371   0.753   2.411  0.1786 -1.1253  1.6333
   53MOL    H3413658   0.174   0.601   2.237 -0.3370  0.0366  1.1563
   53MOL    H3513659   0.376   0.826   2.153  0.4344  0.0883  0.4103
   53MOL    H3613660   0.274   0.716   2.044  1.1095 -0.4021 -0.3875
   53MOL    H3713661   0.499   0.635   2.232  0.0159 -0.4664  0.7320
   53MOL    H3813662   0.399   0.528   2.120 -0.4962  1.7553 -1.9181
   53MOL    H3913663   0.154   0.560   2.506  0.5662 -2.1085  1.3723
   53MOL    H4013664   0.250   0.656   2.604 -2.7692  0.7309 -0.2892
   53MOL    C4113665   0.351   0.483   2.506 -0.4431 -0.0276 -0.2263
   53MOL    C4213666   0.295   0.383   2.597  0.5077  0.0118  0.4932
   53MOL    C4313667   0.328   0.230   2.576 -0.3199 -0.0154  0.4040
   53MOL    C4413668   0.185   0.285   2.563 -0.0228 -0.0966 -0.5338
   53MOL    C4513669   0.494   0.525   2.553  0.0185  0.1877 -0.0180
   53MOL    H4613670   0.360   0.443   2.405 -1.1878  0.5468 -0.5127
   53MOL    H4713671   0.301   0.424   2.697  1.7171  0.0668  0.4110
   53MOL    H4813672   0.389   0.220   2.486  1.0188  1.5635  1.1140
   53MOL    H4913673   0.358   0.184   2.670  1.7043  2.4280  0.9934
   53MOL    H5013674   0.120   0.265   2.649 -1.1260  0.8872 -1.1312
   53MOL    H5113675   0.136   0.285   2.466 -1.2799 -0.6535  0.0878
   53MOL    H5213676   0.478   0.559   2.655 -0.6793 -1.8088  0.5692
   53MOL    H5313677   0.535   0.610   2.500  0.8910 -0.1085  0.1681
   53MOL    C5413678   0.609   0.419   2.543 -0.1803  0.2009  0.0325
   53MOL    C5513679   0.679   0.428   2.403 -0.2776 -0.2615  0.0192
   53MOL    C5613680   0.624   0.356   2.278  0.8058 -1.3989  0.3125
   53MOL    C5713681   0.747   0.305   2.353 -0.3061  0.8991  1.1175
   53MOL    C5813682   0.704   0.436   2.670  1.0955 -0.7861  0.4171
   53MOL    H5913683   0.576   0.316   2.551 -0.7247  0.4946  1.6928
   53MOL    H6013684   0.714   0.526   2.370 -2.4818  0.3202 -0.6388
   53MOL    H6113685   0.527   0.310   2.293 -0.2052  0.6870  0.3720
   53MOL    H6213686   0.637   0.422   2.192 -0.5855 -1.4663  0.0448
   53MOL    H6313687   0.840   0.319   2.298 -0.8694  1.8018  0.3790
   53MOL    H6413688   0.731   0.219   2.418 -1.1835  0.6404  0.5756
   53MOL    H6513689   0.739   0.539   2.658 -0.6936 -0.3332 -1.2667
   53MOL    H6613690   0.658   0.445   2.768 -0.6910  0.6143 -0.5192
   53MOL    C6713691   0.808   0.323   2.672  0.0161  0.4020 -0.1550
   53MOL    C6813692   0.908   0.372   2.775 -0.3756 -0.0366 -0.3463
   53MOL    C6913693   1.057   0.344   2.781  0.2747  0.1859 -0.0104
   53MOL    C7013694   1.006   0.482   2.739 -0.2211 -0.0828 -0.2674
   53MOL    C7113695   0.748   0.185   2.705 -0.1000 -0.3328 -0.3627
   53MOL    H7213696   0.861   0.317   2.577  1.3797  1.0693  0.5411
   53MOL    H7313697   0.866   0.371   2.875  0.8545  0.2006  0.1897
   53MOL    H7413698   1.104   0.336   2.879  0.9135  0.6042 -0.2774
   53MOL    H7513699   1.096   0.278   2.704 -1.0309 -1.2183  0.5297
   53MOL    H7613700   1.022   0.507   2.634 -1.5465  0.1560 -0.4214
   53MOL    H7713701   0.992   0.568   2.804 -0.1951  0.5576 -1.0925
   53MOL    H7813702   0.677   0.154   2.629 -1.0626  0.5189  0.1659
   53MOL    H7913703   0.689   0.202   2.795  0.8297 -2.4855  0.6939
   53MOL    C8013704   0.846   0.062   2.709 -0.2612  0.6481 -0.3751
   53MOL    C8113705   0.881   0.006   2.567 -0.0247 -0.2450 -0.3586
   53MOL    C8213706   1.004   7.760   2.540  0.7833  0.3474 -0.9667
   53MOL    C8313707   0.995   0.061   2.484  0.4898  0.2939 -0.2502
   53MOL    C8413708   0.807   7.794   2.815  0.4731 -0.0358  0.4831
   53MOL    H8513709   0.932   0.112   2.753  1.1394 -2.0390  0.0603
   53MOL    H8613710   0.800   7.799   2.511 -1.5193  1.4161  0.3628
   53MOL    H8713711   1.004   7.679   2.467 -1.2747  0.5203 -1.1777
   53MOL    H8813712   1.068   7.743   2.626  0.2654  1.2197 -0.4021
   53MOL    H8913713   1.063   0.133   2.528  0.0068 -1.3787  3.3623
   53MOL    H9013714   0.959   0.077   2.382  2.2131 -1.6874 -1.2029
   53MOL    H9113715   0.880   7.715   2.831 -1.1501 -1.3770  1.3974
   53MOL    H9213716   0.813   0.015   2.906 -0.0176  0.9623 -0.1364
   53MOL    C9313717   0.664   7.753   2.824  0.3323 -0.4272 -0.0381
   53MOL    C9413718   0.622   7.673   2.699  0.3106  0.2053 -0.1374
   53MOL    C9513719   0.481   7.618   2.686 -0.8508  0.2580 -0.6468
   53MOL    C9613720   0.525   7.738   2.602  0.0023 -0.6110 -0.4373
   53MOL    C9713721   0.644   7.662   2.949 -0.1983  0.3894 -0.1683
   53MOL    H9813722   0.605   0.004   2.836  2.0084  0.4874  1.4356
   53MOL    H9913723   0.701   7.612   2.657  1.1131  1.6083 -0.6822
   53MOL   H10013724   0.465   7.525   2.631 -1.7504 -0.5054  0.8614
   53MOL   H10113725   0.403   7.638   2.759  0.6590  0.7515  0.8824
   53MOL   H10213726   0.556   7.722   2.498  1.0228 -0.3764 -0.1713
   53MOL   H10313727   0.482   7.834   2.629  1.5075 -0.2395  0.6930
   53MOL   H10413728   0.709   7.575   2.938 -1.4059 -0.5629  0.1836
   53MOL   H10513729   0.543   7.623   2.947 -0.3082  0.6666  0.0555
   53MOL   C10613730   0.662   7.715   3.095  0.2541  0.0047 -0.9725
   53MOL   C10713731   0.547   7.800   3.144  1.0567  0.2081  0.5687
   53MOL   C10813732   0.552   0.087   3.237  0.0049  0.4454 -0.1289
   53MOL   C10913733   0.508   0.102   3.089 -0.3622  0.2057  0.4030
   53MOL   C11013734   0.669   7.591   3.188  0.3285 -0.0752 -0.4899
   53MOL   H11113735   0.754   7.771   3.109  0.3634 -0.6948  1.2711
   53MOL   H11213736   0.458   7.737   3.151  2.1438 -1.4326 -0.1923
   53MOL   H11313737   0.472   0.115   3.306 -0.3348 -0.6081 -0.0842
   53MOL   H11413738   0.644   0.139   3.262  0.4504  1.3042 -3.4079
   53MOL   H11513739   0.581   0.161   3.033 -0.0676 -1.4940 -1.0367
   53MOL   H11613740   0.402   0.124   3.072 -0.5723 -0.8486  0.3401
   53MOL   H11713741   0.569   7.548   3.196  0.3073 -0.0446 -0.5867
   53MOL   H11813742   0.735   7.508   3.163 -1.0074 -1.5012  0.6374
   53MOL   C11913743   0.733   7.626   3.328 -0.0344  0.3091 -0.5172
   53MOL   C12013744   0.663   7.553   3.439  0.0114 -0.7515 -0.4019
   53MOL   C12113745   0.529   7.599   3.487 -0.7161 -0.3708  0.5270
   53MOL   C12213746   0.649   7.620   3.575 -0.3579  0.3602  0.3174
   53MOL   C12313747   0.885   7.585   3.339  0.2670 -0.4887 -0.7081
   53MOL   H12413748   0.729   7.732   3.352 -1.0346 -0.0336  0.9175
   53MOL   H12513749   0.677   7.446   3.447 -2.2702 -1.1713 -1.8249
   53MOL   H12613750   0.453   7.524   3.508 -1.6892  0.8246  1.3468
   53MOL   H12713751   0.481   7.682   3.437 -0.1622 -0.2886  0.1347
   53MOL   H12813752   0.692   7.719   3.583  1.5674 -0.4245 -0.1695
   53MOL   H12913753   0.664   7.554   3.660  2.7325 -1.3361 -1.4597
   53MOL   H13013754   0.917   7.566   3.441  0.0624 -0.0645 -0.5631
   53MOL   H13113755   0.884   7.480   3.310 -0.0796 -0.3281 -1.2954
   53MOL   C13213756   0.986   7.664   3.262  0.0639  0.5839  0.0446
   53MOL   C13313757   1.072   7.576   3.178  0.1583  0.3294  0.2722
   53MOL   C13413758   1.115   7.607   3.038  0.4233  0.2835 -0.0959
   53MOL   C13513759   1.019   7.495   3.066 -0.1343  0.4513  0.4777
   53MOL   C13613760   1.068   7.759   3.359 -0.3425 -0.9646  0.8052
   53MOL   H13713761   0.930   7.718   3.185  1.2455  0.9826 -0.5367
   53MOL   H13813762   1.137   7.514   3.239  1.4976  1.5079  0.0751
   53MOL   H13913763   1.075   7.697   2.993 -0.0020 -0.6996 -1.6915
   53MOL   H14013764   1.220   7.588   3.013  0.2877  1.5075 -1.6605
   53MOL   H14113765   0.920   7.502   3.020 -0.2725  0.0280  0.7141
   53MOL   H14213766   1.056   7.393   3.058 -1.9311 -0.1917 -0.0315
   53MOL   H14313767   1.022   7.790   3.452  0.8077 -0.0117  1.0697
   53MOL   H14413768   1.159   7.714   3.400 -0.3709 -0.2238  1.6825
   53MOL   C14513769   1.113   0.046   3.288 -0.6887 -0.0165  0.4282
   53MOL   C14613770   0.996   0.141   3.250 -0.7235 -0.2363  0.0850
   53MOL   C14713771   1.030   0.256   3.157 -0.1093 -0.2206 -0.9229
   53MOL   C14813772   0.929   0.151   3.113 -0.4836  0.5209  0.2540
   53MOL   C14913773   1.213   0.124   3.372  0.1917  0.0149 -0.0011
   53MOL   H15013774   1.163   0.028   3.193 -0.4694  3.0196 -0.0678
   53MOL   H15113775   0.918   0.138   3.326 -0.2741 -1.2960  0.5188
   53MOL   H15213776   0.976   0.351   3.164  1.8062  0.7995  0.6957
   53MOL   H15313777   1.118   0.260   3.093 -0.2587  1.5180 -1.0569
   53MOL   H15413778   0.972   0.092   3.032  0.7466 -0.4970  1.6395
   53MOL   H15513779   0.821   0.169   3.107 -0.4939  0.2006 -0.6892
   53MOL   H15613780   1.212   0.230   3.346 -3.0492 -0.0423 -0.3998
   53MOL   H15713781   1.172   0.110   3.472  1.2844  3.5861  1.0123
   53MOL   C15813782   1.358   0.080   3.366 -0.3034  0.3411  0.0099
   53MOL   C15913783   1.430   0.156   3.483 -0.4395  0.3018  0.3795
   53MOL   C16013784   1.433   0.111   3.622  0.3149 -0.0084  0.2696
   53MOL   C16113785   1.557   0.105   3.546 -0.1878  0.6034 -0.2245
   53MOL   C16213786   1.433   0.114   3.231  0.2716  0.3507  0.5137
   53MOL   H16313787   1.352   7.812   3.389  0.3037  0.0115 -1.3057
   53MOL   H16413788   1.427   0.264   3.466  0.6813 -0.0732 -2.3537
   53MOL   H16513789   1.379   0.019   3.647 -0.1271  0.3874  0.8066
   53MOL   H16613790   1.448   0.180   3.705  1.1854  1.0316 -0.7402
   53MOL   H16713791   1.637   0.167   3.586  0.9998  0.6687 -2.6416
   53MOL   H16813792   1.586   0.008   3.506 -1.2233 -0.4500  1.4971
   53MOL   H16913793   1.536   0.150   3.240  2.0184 -3.8314 -1.4129
   53MOL   H17013794   1.386   0.199   3.181  0.9098  0.8315  0.7226
   53MOL   C17113795   1.439   0.007   3.114 -0.3765  0.3105  0.4128
   53MOL   C17213796   1.441   0.069   2.975 -0.7078  0.9070  0.2359
   53MOL   C17313797   1.418   7.804   2.864 -0.3069 -0.0557  1.2248
   53MOL   C17413798   1.322   0.079   2.887  0.9568  0.4073 -0.0011
   53MOL   C17513799   1.559   7.748   3.122 -0.3711 -0.6224  0.1922
   53MOL   H17613800   1.351   7.784   3.131 -1.0315  1.1448  0.1255
   53MOL   H17713801   1.536   0.117   2.953  0.2508 -1.1727 -0.3668
   53MOL   H17813802   1.470   7.804   2.769  1.4540 -2.4275  2.1071
   53MOL   H17913803   1.383   7.704   2.890  0.2245 -0.1013  1.8046
   53MOL   H18013804   1.224   0.053   2.927 -0.2827  5.6844  0.7542
   53MOL   H18113805   1.327   0.172   2.830 -1.6104  0.8548  0.4323
   53MOL   H18213806   1.651   7.805   3.109 -0.1359 -1.0141  0.1512
   53MOL   H18313807   1.553   7.682   3.036  2.9150 -0.0027 -0.5670
   53MOL   C18413808   1.579   7.655   3.239  0.1372 -0.5831 -0.7073
   53MOL   C18513809   1.724   7.606   3.234 -0.7154  0.2724  0.2314
   53MOL   C18613810   1.808   7.607   3.361 -0.4607  0.6456  0.1074
   53MOL   C18713811   1.834   7.701   3.254 -0.4797  1.3302 -0.7631
   53MOL   C18813812   1.469   7.551   3.267 -0.7386  0.4230 -0.0243
   53MOL   H18913813   1.575   7.729   3.319  0.0104 -2.3862  0.9935
   53MOL   H19013814   1.753   7.542   3.152 -1.0183  0.6519 -0.1770
   53MOL   H19113815   1.871   7.519   3.363  0.0702  1.0406  0.8752
   53MOL   H19213816   1.775   7.659   3.451  2.4040  2.8115 -0.0100
   53MOL   H19313817   1.919   7.682   3.188 -0.0309  0.1895  0.1243
   53MOL   H19413818   1.826   7.807   3.277  1.6101  1.6962 -1.6288
   53MOL   H19513819   1.466   7.471   3.193  1.8559  1.0072 -0.8100
   53MOL   H19613820   1.370   7.595   3.266 -1.4426 -1.1200 -0.7942
   53MOL   C19713821   1.481   7.472   3.396  0.0542 -0.2723  0.1389
   53MOL   C19813822   1.391   7.353   3.395 -0.0236  0.0899 -0.6912
   53MOL   C19913823   1.436   7.217   3.451 -0.0640  0.3549  0.1389
   53MOL   C20013824   1.406   7.236   3.302 -0.9231 -0.3222 -0.5478
   53MOL   C20113825   1.471   7.564   3.519  0.3430  0.1538 -0.5665
   53MOL   H20213826   1.581   7.430   3.399  0.8492  1.6533  0.6876
   53MOL   H20313827   1.289   7.383   3.422 -0.1256 -0.5274 -0.3845
   53MOL   H20413828   1.531   7.185   3.495  1.2855  0.6256 -2.4697
   53MOL   H20513829   1.353   7.185   3.513 -0.6268  1.3344 -0.0985
   53MOL   H20613830   1.488   7.241   3.231 -1.9940 -0.4553 -1.8078
   53MOL   H20713831   1.322   7.181   3.262 -1.3890  0.0536 -0.0864
   53MOL   H20813832   1.538   7.649   3.508 -1.2530  1.5900  0.5425
   53MOL   H20913833   1.375   7.612   3.500  0.2497  0.0764 -0.2918
   53MOL   C21013834   1.483   7.497   3.660  0.2287  0.4686 -0.5546
   53MOL   C21113835   1.570   7.583   3.747 -0.2654  0.3414 -0.1018
   53MOL   C21213836   1.662   7.527   3.859 -0.7957 -0.4985 -0.0354
   53MOL   C21313837   1.718   7.599   3.732 -0.5297  0.0419 -0.0957
   53MOL   C21413838   1.343   7.473   3.720  0.3991  0.0327  0.7430
   53MOL   H21513839   1.544   7.407   3.648  0.7791  0.6047  1.1554
   53MOL   H21613840   1.516   7.674   3.771  0.5352  0.7356  0.2164
   53MOL   H21713841   1.670   7.587   3.949  0.7033 -1.5237  0.5305
   53MOL   H21813842   1.674   7.420   3.869  1.0493 -0.5233 -2.1732
   53MOL   H21913843   1.759   7.697   3.752 -0.2311  0.1426 -1.1541
   53MOL   H22013844   1.760   7.528   3.661 -1.5352  0.7674 -1.4433
   53MOL   H22113845   1.285   7.563   3.703  1.6875  0.5473 -1.0109
   53MOL   H22213846   1.298   7.411   3.643 -1.4583  2.7836 -0.4682
   53MOL   C22313847   1.324   7.409   3.859 -0.4246 -0.3863 -0.2296
   53MOL   C22413848   1.316   7.259   3.842 -0.0912 -0.0279  0.7519
   53MOL   C22513849   1.444   7.186   3.824 -0.3009 -0.7554  0.5088
   53MOL   C22613850   1.355   7.153   3.941 -0.4019  0.3020  0.6750
   53MOL   C22713851   1.192   7.459   3.934 -1.0854 -0.1175  1.1428
   53MOL   H22813852   1.409   7.431   3.924 -1.1050  0.1010  0.5023
   53MOL   H22913853   1.238   7.228   3.773 -0.8093  2.3992  0.4425
   53MOL   H23013854   1.537   7.237   3.850  0.2338 -1.3743 -0.1952
   53MOL   H23113855   1.450   7.105   3.753 -0.1915 -0.7117  0.4673
   53MOL   H23213856   1.300   7.060   3.936 -0.1415  0.1860  0.0066
   53MOL   H23313857   1.390   7.192   4.037 -1.2066 -1.4527  1.6975
   53MOL   H23413858   1.111   7.461   3.860  0.6753 -1.2518 -0.8531
   53MOL   H23513859   1.170   7.377   4.002 -1.9595 -1.3920 -0.6250
   53MOL   C23613860   1.188   7.593   4.005  0.1966 -0.4317  0.0624
   53MOL   C23713861   1.206   7.708   3.907  0.7742  0.2947  0.2653
   53MOL   C23813862   1.088   7.760   3.825 -0.6957  0.8886  0.0122
   53MOL   C23913863   1.142   0.007   3.929 -0.9759 -0.0921  0.1318
   53MOL   C24013864   1.295   7.601   4.123 -0.3088  0.1440  0.2434
   53MOL   H24113865   1.092   7.617   4.053 -0.3668 -0.6037 -0.9699
   53MOL   H24213866   1.305   7.717   3.862  0.0377  0.4021 -1.3916
   53MOL   H24313867   1.106   7.780   3.720 -0.9690  1.4806  0.0819
   53MOL   H24413868   0.987   7.728   3.847 -1.1471  1.7557 -0.7690
   53MOL   H24513869   1.083   0.018   4.020  1.7107 -0.8529  2.0466
   53MOL   H24613870   1.198   0.097   3.902 -0.1229 -0.9581 -1.0752
   53MOL   H24713871   1.388   7.586   4.067  0.4160  3.2371  0.5512
   53MOL   H24813872   1.299   7.699   4.169  1.1464  0.7078 -1.0334
   53MOL   C24913873   1.278   7.495   4.241 -0.1285 -0.3100 -0.1961
   53MOL   C25013874   1.145   7.509   4.323  0.4232 -0.0330  0.3396
   53MOL   C25113875   1.020   7.440   4.280  0.6045  0.5120 -0.0722
   53MOL   C25213876   1.092   7.390   4.404  0.2043 -0.2040  0.2404
   53MOL   C25313877   1.410   7.491   4.320 -0.1496 -0.5876 -0.5345
   53MOL   H25413878   1.272   7.398   4.192  1.2231  0.0579 -1.1220
   53MOL   H25513879   1.140   7.609   4.367  0.7638  0.0318  0.2324
   53MOL   H25613880   0.926   7.492   4.301  0.2300 -0.0158 -0.4090
   53MOL   H25713881   1.024   7.372   4.196 -3.2439 -1.7765  1.4564
   53MOL   H25813882   1.050   7.419   4.500  1.3618  1.3535  0.3038
   53MOL   H25913883   1.142   7.294   4.402  1.2869  0.3317  0.9926
   53MOL   H26013884   1.415   7.583   4.378 -0.7898  0.0001 -1.3997
   53MOL   H26113885   1.495   7.476   4.255 -1.0790 -1.9264 -1.4854
   53MOL   H26213886   1.415   7.407   4.391  1.3112  0.3514  0.4900
   54MOL     C113887   5.498   1.998   4.581 -0.0989 -0.6119  0.1673
   54MOL     C213888   5.594   1.935   4.482  0.3731  0.3519 -0.1734
   54MOL     C313889   5.692   2.018   4.404 -0.4923  0.3575 -0.7845
   54MOL     C413890   5.571   1.947   4.331 -0.2448 -0.7077 -0.0188
   54MOL     C513891   5.363   1.928   4.598 -0.7626  0.0487  0.6636
   54MOL     H613892   5.550   2.008   4.677  2.6956  1.1087 -1.4611
   54MOL     H713893   5.623   1.835   4.511 -0.0856  0.2269 -0.1408
   54MOL     H813894   5.694   2.124   4.429 -0.0523  0.1300  0.1580
   54MOL     H913895   5.787   1.968   4.386  0.4216  1.8195 -0.1627
   54MOL    H1013896   5.604   1.865   4.267  0.9902 -0.3149  0.0985
   54MOL    H1113897   5.476   1.992   4.303  0.2737  0.6883  0.4439
   54MOL    H1213898   5.385   1.829   4.638 -1.2062  0.4892  2.0131
   54MOL    H1313899   5.320   1.918   4.498  0.6402 -0.3647  0.0758
   54MOL    H1413900   5.481   2.100   4.547 -2.1178 -1.2839 -0.8966
   54MOL    C1513901   5.268   2.006   4.682 -0.1322  0.1533 -0.6703
   54MOL    C1613902   5.129   1.959   4.641 -0.2173 -0.2837 -0.3680
   54MOL    C1713903   5.063   2.016   4.516  0.9335  0.3883  0.1610
   54MOL    C1813904   5.010   2.050   4.655 -0.1490  0.8310  0.5559
   54MOL    C1913905   5.306   1.986   4.835  0.0358 -0.2540 -0.5193
   54MOL    H2013906   5.283   2.112   4.661  2.5053  0.3546  1.9408
   54MOL    H2113907   5.117   1.858   4.679 -0.6470 -1.8389 -4.3593
   54MOL    H2213908   5.004   1.962   4.443  1.7918  0.8185 -0.8774
   54MOL    H2313909   5.109   2.102   4.468 -0.0027  0.4969 -0.5533
   54MOL    H2413910   4.999   2.158   4.667  0.9954  0.8356  1.6476
   54MOL    H2513911   4.927   1.993   4.694 -0.2430 -0.9710 -2.1401
   54MOL    H2613912   5.413   1.973   4.853  0.2212  3.3488  1.5406
   54MOL    H2713913   5.268   1.891   4.872 -0.3053 -0.4969 -1.4945
   54MOL    C2813914   5.249   2.091   4.939  0.7615  0.9610 -0.6395
   54MOL    C2913915   5.299   2.227   4.915  0.1457  0.1149 -0.3091
   54MOL    C3013916   5.243   2.313   4.803  0.3803  0.5187  0.6478
   54MOL    C3113917   5.214   2.349   4.948  0.0444  0.9547 -0.5506
   54MOL    C3213918   5.283   2.058   5.087 -0.0001  0.1439 -0.2901
   54MOL    H3313919   5.141   2.086   4.923  1.1253 -1.1710 -2.6931
   54MOL    H3413920   5.408   2.233   4.919  0.2710 -1.6930 -0.5024
   54MOL    H3513921   5.158   2.282   4.742  0.0185  0.1364  1.3372
   54MOL    H3613922   5.307   2.390   4.760  0.0787  0.1578 -0.4628
   54MOL    H3713923   5.114   2.330   4.987  0.0133  0.2998 -0.9329
   54MOL    H3813924   5.252   2.446   4.979  1.8612  0.4439 -1.1428
   54MOL    H3913925   5.253   2.135   5.159 -0.2226 -1.1920  1.0577
   54MOL    H4013926   5.392   2.055   5.080 -0.0317 -1.7130 -0.1147
   54MOL    C4113927   5.247   1.930   5.156  0.0288  0.5352 -0.2972
   54MOL    C4213928   5.092   1.917   5.172 -0.2480 -0.6618  0.3616
   54MOL    C4313929   5.027   1.794   5.157 -0.1195 -0.1822 -0.2157
   54MOL    C4413930   5.000   1.898   5.052 -0.2756 -0.2866  0.2768
   54MOL    C4513931   5.310   1.921   5.298  0.3395 -0.0716  0.3521
   54MOL    H4613932   5.288   1.844   5.103  1.7821 -1.0711  3.4896
   54MOL    H4713933   5.045   1.997   5.230 -3.3901 -1.3061 -1.1689
   54MOL    H4813934   5.078   1.708   5.114  1.4253  0.5090  0.1654
   54MOL    H4913935   4.947   1.787   5.230  0.3079  0.2962  0.3015
   54MOL    H5013936   4.903   1.947   5.060 -0.7558 -0.9925 -1.1120
   54MOL    H5113937   5.040   1.883   4.952 -0.9631 -0.5164  0.0295
   54MOL    H5213938   5.233   1.949   5.370  1.5057  0.6032  1.3679
   54MOL    H5313939   5.398   1.985   5.295  0.9842 -0.9415  0.5785
   54MOL    C5413940   5.347   1.777   5.346 -0.8203 -0.5953  0.1225
   54MOL    C5513941   5.472   1.732   5.262  0.4358 -0.0386  0.2697
   54MOL    C5613942   5.460   1.650   5.136  0.3725 -0.0262  0.1504
   54MOL    C5713943   5.500   1.579   5.266  0.1692 -0.0125 -0.3400
   54MOL    C5813944   5.391   1.781   5.498 -0.2232 -0.4687  0.1895
   54MOL    H5913945   5.255   1.720   5.332 -0.5123 -1.0787  0.0679
   54MOL    H6013946   5.558   1.798   5.266  0.9061 -0.5020 -1.6389
   54MOL    H6113947   5.365   1.612   5.099  0.5870 -2.0592  1.6194
   54MOL    H6213948   5.538   1.653   5.060  0.3645 -0.5457  0.1255
   54MOL    H6313949   5.604   1.554   5.286  0.1681  0.3553  0.1302
   54MOL    H6413950   5.426   1.519   5.320 -0.3891  1.0060  0.0392
   54MOL    H6513951   5.470   1.710   5.522  1.4310  1.5079  0.8313
   54MOL    H6613952   5.444   1.874   5.521 -0.4185 -0.5356  0.9223
   54MOL    C6713953   5.263   1.765   5.592  0.0314  0.1089 -0.5953
   54MOL    C6813954   5.184   1.634   5.559 -0.6549  0.6335  0.7868
   54MOL    C6913955   5.048   1.600   5.616  0.3651  0.2907  0.4086
   54MOL    C7013956   5.062   1.621   5.468  0.2797  0.6440  0.3055
   54MOL    C7113957   5.288   1.786   5.738 -0.6433 -0.5109  0.3666
   54MOL    H7213958   5.193   1.849   5.582 -0.7709 -0.5148 -0.2534
   54MOL    H7313959   5.258   1.555   5.549  0.5968  1.9278 -0.3122
   54MOL    H7413960   5.019   1.497   5.633  1.1304 -0.2975 -1.7558
   54MOL    H7513961   4.984   1.670   5.669  0.2548 -0.1538  0.8614
   54MOL    H7613962   5.000   1.704   5.435  1.3950  0.9507 -1.0827
   54MOL    H7713963   5.044   1.533   5.406 -1.7954  1.4066 -0.2111
   54MOL    H7813964   5.195   1.773   5.793 -1.0579 -1.0999 -0.4486
   54MOL    H7913965   5.322   1.887   5.761  1.0919 -1.0025  0.0334
   54MOL    C8013966   5.396   1.688   5.794  0.1917 -0.7592  0.1831
   54MOL    C8113967   5.350   1.638   5.928 -0.0654 -0.5229 -0.0753
   54MOL    C8213968   5.393   1.501   5.963  0.6292  0.2010  0.6404
   54MOL    C8313969   5.243   1.531   5.933 -0.1789 -1.0663  0.9899
   54MOL    C8413970   5.530   1.767   5.805 -0.1711  0.0793  0.0508
   54MOL    H8513971   5.411   1.599   5.732 -0.1721 -2.0299  1.8714
   54MOL    H8613972   5.351   1.715   6.005 -0.7545  0.7683 -1.3382
   54MOL    H8713973   5.413   1.491   6.070 -2.1831  2.4178  1.4507
   54MOL    H8813974   5.449   1.438   5.894 -0.4944 -0.5916  0.4533
   54MOL    H8913975   5.192   1.507   5.840 -0.7976  1.3331  0.6694
   54MOL    H9013976   5.180   1.533   6.022 -0.1718 -2.4681  1.0367
   54MOL    H9113977   5.533   1.846   5.730  0.9217  0.8434  0.8882
   54MOL    H9213978   5.517   1.825   5.896 -0.7763  2.6969 -1.6540
   54MOL    C9313979   5.665   1.682   5.816 -0.3463  0.1396 -0.4338
   54MOL    C9413980   5.696   1.615   5.682  0.1272 -0.1996  0.1029
   54MOL    C9513981   5.779   1.503   5.668 -0.2105 -0.1632  0.3493
   54MOL    C9613982   5.628   1.491   5.640 -0.1425 -0.0890  0.5146
   54MOL    C9713983   5.772   1.780   5.867 -0.3226  0.2467  0.2936
   54MOL    H9813984   5.656   1.609   5.897 -0.6801 -0.5348 -1.0750
   54MOL    H9913985   5.709   1.687   5.601  2.0727 -1.2727 -0.5581
   54MOL   H10013986   5.843   1.498   5.580 -0.9093 -1.4010 -0.1073
   54MOL   H10113987   5.826   1.457   5.755  0.5060  0.9529  0.5567
   54MOL   H10213988   5.596   1.506   5.537  0.0056  1.1028  0.6329
   54MOL   H10313989   5.555   1.438   5.702 -2.8681  2.4444 -0.3986
   54MOL   H10413990   5.750   1.821   5.966 -0.1539 -0.9217  0.8266
   54MOL   H10513991   5.780   1.864   5.798  0.2796 -0.2860 -0.2913
   54MOL   C10613992   5.916   1.722   5.887 -0.2913 -0.0520  0.1978
   54MOL   C10713993   6.015   1.831   5.943  0.2548  0.1425 -0.6326
   54MOL   C10813994   6.025   1.970   5.878  0.3645 -0.0997 -0.1771
   54MOL   C10913995   5.971   1.952   6.019  0.5932 -0.5317  0.9304
   54MOL   C11013996   5.920   1.597   5.976 -0.7799 -0.1905  0.6192
   54MOL   H11113997   5.955   1.695   5.788 -0.2347  0.0278  0.1990
   54MOL   H11213998   6.104   1.790   5.990 -1.5191  0.0888  2.9216
   54MOL   H11313999   6.129   1.993   5.855 -0.1358  0.8603 -1.5016
   54MOL   H11414000   5.955   2.003   5.802  1.3207  0.1208 -0.9764
   54MOL   H11514001   5.865   1.971   6.037  0.1843 -0.9546 -0.9351
   54MOL   H11614002   6.038   1.983   6.100  0.6801  0.2206  0.5750
   54MOL   H11714003   5.851   1.515   5.957 -2.4403  1.5937 -1.3569
   54MOL   H11814004   6.016   1.551   5.949 -0.6419 -0.0907  0.9369
   54MOL   C11914005   5.917   1.616   6.130  0.5484 -0.0653 -0.4724
   54MOL   C12014006   5.768   1.611   6.177 -0.4534 -0.3858 -0.5115
   54MOL   C12114007   5.682   1.737   6.208  0.1971 -0.2169 -0.1896
   54MOL   C12214008   5.742   1.657   6.320  0.4174 -0.4695 -0.1203
   54MOL   C12314009   6.002   1.506   6.201 -0.0270  1.0313 -0.6584
   54MOL   H12414010   5.950   1.712   6.169  0.3538 -1.3387  2.9841
   54MOL   H12514011   5.725   1.511   6.170 -1.3854  0.0131 -0.5704
   54MOL   H12614012   5.575   1.729   6.191  0.4188  0.9814 -2.2698
   54MOL   H12714013   5.718   1.837   6.188  0.2728 -0.3367 -0.6755
   54MOL   H12814014   5.821   1.710   6.374  1.9376 -2.3502 -0.4559
   54MOL   H12914015   5.677   1.595   6.381  0.6471 -0.1545  0.4539
   54MOL   H13014016   5.982   1.507   6.308  1.8252  1.1837 -0.3034
   54MOL   H13114017   5.967   1.413   6.156 -0.6483  0.6572  0.5920
   54MOL   C13214018   6.152   1.524   6.182 -0.2033 -0.2040 -0.5562
   54MOL   C13314019   6.230   1.395   6.205 -0.2215 -0.3892 -0.2804
   54MOL   C13414020   6.347   1.354   6.118  0.1606 -0.1338 -0.5368
   54MOL   C13514021   6.217   1.269   6.116  0.1896  0.8856  1.1236
   54MOL   C13614022   6.198   1.632   6.284 -0.1258 -0.1466 -0.7727
   54MOL   H13714023   6.181   1.557   6.082 -1.0726  1.3961 -0.2957
   54MOL   H13814024   6.232   1.371   6.311  0.1157  1.2309  0.0920
   54MOL   H13914025   6.373   1.403   6.024 -0.8127  0.8462 -0.3015
   54MOL   H14014026   6.426   1.309   6.178 -0.2265  2.7075  2.1758
   54MOL   H14114027   6.148   1.286   6.035 -3.2201  2.3941  4.1922
   54MOL   H14214028   6.212   1.167   6.153  0.4194  0.2617 -0.5572
   54MOL   H14314029   6.139   1.719   6.257 -1.8464 -0.8121  0.6584
   54MOL   H14414030   6.173   1.607   6.388  1.8027  0.2068 -0.2090
   54MOL   C14514031   6.352   1.667   6.281  0.0933 -0.1416  0.1395
   54MOL   C14614032   6.354   1.816   6.284 -0.3574  0.9809 -0.6629
   54MOL   C14714033   6.467   1.911   6.240 -0.6901 -0.5757  0.7352
   54MOL   C14814034   6.345   1.887   6.149  0.2907  0.2857  0.1022
   54MOL   C14914035   6.435   1.599   6.394  0.2030 -0.5718  0.3492
   54MOL   H15014036   6.399   1.638   6.187  1.6832  0.7665  0.6283
   54MOL   H15114037   6.285   1.857   6.357 -1.8924  0.8183 -1.9987
   54MOL   H15214038   6.470   2.010   6.285 -1.2213 -1.0457  1.8148
   54MOL   H15314039   6.558   1.867   6.200 -2.2562 -0.8262 -2.7421
   54MOL   H15414040   6.365   1.823   6.064  3.2004 -0.7759  1.5089
   54MOL   H15514041   6.277   1.972   6.139 -0.3349 -0.2683 -0.3632
   54MOL   H15614042   6.399   1.629   6.493 -0.9020 -0.1018 -0.1949
   54MOL   H15714043   6.403   1.495   6.395 -1.5582 -0.0417  1.8034
   54MOL   C15814044   6.581   1.618   6.397  1.2330  0.2109 -0.3275
   54MOL   C15914045   6.642   1.536   6.290 -0.4312 -0.3253 -0.6687
   54MOL   C16014046   6.661   1.590   6.151 -0.4294  0.5119 -0.3295
   54MOL   C16114047   6.780   1.567   6.243  0.7913  0.5896  0.1202
   54MOL   C16214048   6.640   1.577   6.537 -0.1191 -0.9143  0.0027
   54MOL   H16314049   6.602   1.723   6.373  1.8715  0.0556 -0.4523
   54MOL   H16414050   6.620   1.431   6.308 -1.4079  0.1824  1.3035
   54MOL   H16514051   6.641   1.695   6.127  2.1216  0.7180 -1.7715
   54MOL   H16614052   6.648   1.519   6.070  2.0490  0.6230 -0.8620
   54MOL   H16714053   6.852   1.488   6.226  0.0089 -0.1082  0.0279
   54MOL   H16814054   6.827   1.652   6.291  0.2455  0.6348  0.5875
   54MOL   H16914055   6.747   1.570   6.517  0.0707 -3.2803  1.6219
   54MOL   H17014056   6.612   1.476   6.568  0.6571 -1.2420 -0.3528
   54MOL   C17114057   6.611   1.683   6.657 -0.4652 -0.4522  0.3530
   54MOL   C17214058   6.650   1.629   6.793 -0.5377 -0.0515 -0.9229
   54MOL   C17314059   6.581   1.666   6.927 -0.2434 -0.5001  0.3361
   54MOL   C17414060   6.551   1.537   6.855  0.0547 -0.5274 -0.5855
   54MOL   C17514061   6.672   1.823   6.627  0.4892  0.1581  0.6314
   54MOL   H17614062   6.504   1.703   6.660 -0.1212  1.3388  2.3880
   54MOL   H17714063   6.756   1.608   6.804 -0.9398 -1.9061 -0.4641
   54MOL   H17814064   6.638   1.663   7.019 -0.0969 -0.1924  0.2590
   54MOL   H17914065   6.509   1.748   6.922 -0.8258 -1.0675 -0.8581
   54MOL   H18014066   6.459   1.523   6.799 -0.6781  0.3025  0.4011
   54MOL   H18114067   6.593   1.449   6.902 -1.6954 -0.1806  1.6985
   54MOL   H18214068   6.630   1.859   6.533 -1.0401 -1.6542  0.5925
   54MOL   H18314069   6.780   1.817   6.614  0.6887  1.8393  1.2632
   54MOL   C18414070   6.635   1.935   6.723 -0.1046 -0.1126 -0.7577
   54MOL   C18514071   6.624   2.067   6.640 -0.1315 -0.4760  0.6920
   54MOL   C18614072   6.507   2.164   6.664 -0.8499 -0.8207 -0.4972
   54MOL   C18714073   6.510   2.083   6.540  0.0027  0.0413  0.3080
   54MOL   C18814074   6.738   1.949   6.830 -0.8474 -0.9187 -0.2383
   54MOL   H18914075   6.537   1.913   6.764  0.5786 -1.2118  0.3233
   54MOL   H19014076   6.717   2.111   6.603 -0.1080  0.1509  1.4832
   54MOL   H19114077   6.526   2.270   6.648 -0.9268 -1.0565 -2.2053
   54MOL   H19214078   6.430   2.143   6.738  0.3049  0.0997  1.0060
   54MOL   H19314079   6.537   2.140   6.452  0.0603 -0.5212 -0.0429
   54MOL   H19414080   6.431   2.009   6.542 -0.4530  0.5324  0.4826
   54MOL   H19514081   6.835   1.986   6.795 -0.0934 -3.0530 -0.4663
   54MOL   H19614082   6.760   1.852   6.873  0.6044 -0.0041  1.1810
   54MOL   C19714083   6.704   2.050   6.941  0.4676 -0.7778  0.1014
   54MOL   C19814084   6.824   2.061   7.038  0.0571  0.1433  0.2059
   54MOL   C19914085   6.867   2.179   7.123  0.5937 -0.0306 -0.0744
   54MOL   C20014086   6.932   2.149   6.990  0.8687 -0.4002  0.6712
   54MOL   C20114087   6.583   2.007   7.028 -0.1991  0.0285  0.1383
   54MOL   H20214088   6.684   2.147   6.895 -1.7183 -0.8722  0.7891
   54MOL   H20314089   6.856   1.963   7.072  0.5236  0.6686  1.3211
   54MOL   H20414090   6.812   2.272   7.111  1.7277  0.2412 -3.7134
   54MOL   H20514091   6.920   2.160   7.216 -0.2180 -1.3840  0.1352
   54MOL   H20614092   6.901   2.215   6.909 -1.2298  0.4127  2.0787
   54MOL   H20714093   7.034   2.114   6.977  0.9008  0.0373 -0.2465
   54MOL   H20814094   6.499   1.985   6.962  1.4208 -0.8495 -1.6990
   54MOL   H20914095   6.606   1.911   7.075  1.7528  0.3606 -0.0937
   54MOL   C21014096   6.542   2.105   7.135 -0.2952  0.4236 -0.4105
   54MOL   C21114097   6.468   2.225   7.073  0.1145  0.0118 -0.2425
   54MOL   C21214098   6.441   2.348   7.151  0.6219  0.5955 -0.5588
   54MOL   C21314099   6.534   2.357   7.033  0.3814 -0.3154 -0.7489
   54MOL   C21414100   6.449   2.035   7.236  0.0377 -0.2363 -0.7048
   54MOL   H21514101   6.628   2.138   7.192 -1.3018 -0.5868  1.7217
   54MOL   H21614102   6.388   2.205   7.003 -1.6687  1.1459  1.4414
   54MOL   H21714103   6.339   2.383   7.139  0.5547  0.8509  0.6991
   54MOL   H21814104   6.482   2.371   7.249  1.4593 -3.7727  0.2333
   54MOL   H21914105   6.641   2.362   7.052  0.7842 -3.6865 -1.6814
   54MOL   H22014106   6.507   2.400   6.937  1.5233 -3.1962 -2.4299
   54MOL   H22114107   6.408   2.099   7.314 -0.7152 -1.9065  0.2672
   54MOL   H22214108   6.362   1.990   7.188 -0.8883 -1.6206  2.1877
   54MOL   C22314109   6.513   1.928   7.330 -0.2188 -0.0797  0.1464
   54MOL   C22414110   6.658   1.958   7.386 -0.7422 -0.0598  0.9674
   54MOL   C22514111   6.688   2.042   7.507 -0.3201  0.0361  0.7112
   54MOL   C22614112   6.704   1.893   7.518  0.1117 -0.9445  0.1265
   54MOL   C22714113   6.503   1.781   7.270  0.2229 -0.9919 -0.3134
   54MOL   H22814114   6.447   1.918   7.415 -0.2810 -1.4162 -0.0385
   54MOL   H22914115   6.739   1.954   7.313 -0.9370  3.5306  0.4898
   54MOL   H23014116   6.605   2.092   7.557 -2.0030 -2.2219  0.2618
   54MOL   H23114117   6.766   2.117   7.508  2.2466 -2.5485 -0.5454
   54MOL   H23214118   6.804   1.861   7.545 -0.0956 -3.4209 -1.8587
   54MOL   H23314119   6.636   1.855   7.594  1.4215  1.1314  2.3923
   54MOL   H23414120   6.444   1.794   7.179 -2.1556 -0.4780  1.2575
   54MOL   H23514121   6.604   1.760   7.238  0.8607  1.4651 -0.0630
   54MOL   C23614122   6.461   1.670   7.371 -0.2477  0.0654 -0.4493
   54MOL   C23714123   6.519   1.538   7.325  0.1992  0.1664 -0.7707
   54MOL   C23814124   6.638   1.483   7.394 -0.3940 -0.3494  0.5165
   54MOL   C23914125   6.508   1.406   7.400  0.9939 -0.6279 -0.4157
   54MOL   C24014126   6.313   1.672   7.402 -0.1128 -0.2243 -0.0724
   54MOL   H24114127   6.509   1.694   7.466  0.0068 -1.7909 -0.1065
   54MOL   H24214128   6.516   1.530   7.217 -0.2402  0.8922 -0.8159
   54MOL   H24314129   6.718   1.443   7.331 -0.6616 -1.4116  0.8316
   54MOL   H24414130   6.673   1.533   7.484  0.9165 -2.9726  1.5259
   54MOL   H24514131   6.458   1.392   7.495 -0.6337 -1.4156 -1.3858
   54MOL   H24614132   6.475   1.335   7.324  1.6116 -0.2721 -1.0374
   54MOL   H24714133   6.276   1.773   7.380 -0.9833 -0.4251  0.4421
   54MOL   H24814134   6.266   1.595   7.341 -0.6799  0.1127 -0.0684
   54MOL   C24914135   6.272   1.626   7.545 -0.7411  0.0126 -0.2285
   54MOL   C25014136   6.131   1.580   7.556  0.0543 -0.0338  0.3477
   54MOL   C25114137   6.073   1.456   7.493 -0.1047  0.3958 -0.2216
   54MOL   C25214138   6.093   1.461   7.644  0.2711 -0.8463  0.6825
   54MOL   C25314139   6.296   1.735   7.652 -0.3910  0.0815  0.2645
   54MOL   H25414140   6.340   1.548   7.579 -0.9743  0.6645  1.8221
   54MOL   H25514141   6.065   1.667   7.564 -1.4563 -0.9269 -2.0028
   54MOL   H25614142   5.970   1.457   7.459 -0.0791 -1.6486 -0.4242
   54MOL   H25714143   6.137   1.387   7.437  0.9226 -0.4524  1.9276
   54MOL   H25814144   6.002   1.464   7.705  0.3056  0.9024  0.6787
   54MOL   H25914145   6.167   1.389   7.679  1.7931 -0.4924 -1.7002
   54MOL   H26014146   6.399   1.770   7.647 -1.1400  2.4913  0.9852
   54MOL   H26114147   6.252   1.708   7.748 -0.7624  2.7172  0.8570
   54MOL   H26214148   6.255   1.829   7.614  0.5890  0.4220  0.0342
   55MOL     C114149   3.162   3.240   7.312  0.0058  0.0169 -0.8031
   55MOL     C214150   3.095   3.112   7.275 -0.9887  0.3628  0.6168
   55MOL     C314151   3.019   3.097   7.147  0.6591 -0.0535 -0.3265
   55MOL     C414152   2.947   3.088   7.285  0.2634 -0.5605 -0.2057
   55MOL     C514153   3.284   3.272   7.221 -0.0463 -0.3369 -0.8435
   55MOL     H614154   3.101   3.330   7.312  1.5343  1.1033  1.2536
   55MOL     H714155   3.160   3.028   7.296 -0.3616  0.9896  1.2260
   55MOL     H814156   2.995   3.188   7.093  1.7728  0.6300  0.3031
   55MOL     H914157   3.051   3.009   7.093  2.1380  0.6343 -0.5960
   55MOL    H1014158   2.927   2.988   7.322  0.1215 -0.3972  0.1615
   55MOL    H1114159   2.887   3.174   7.315  2.5142  0.5587  1.2554
   55MOL    H1214160   3.246   3.274   7.119 -0.3960  4.0384 -0.7440
   55MOL    H1314161   3.361   3.195   7.226 -1.3449 -1.6502 -0.5585
   55MOL    H1414162   3.191   3.233   7.417 -0.2231 -1.0100 -0.8029
   55MOL    C1514163   3.358   3.409   7.246  1.2293  0.0016  0.1982
   55MOL    C1614164   3.446   3.413   7.369  0.4119  0.3678 -0.4466
   55MOL    C1714165   3.396   3.454   7.504 -0.2631  0.4457 -0.5136
   55MOL    C1814166   3.494   3.542   7.429 -0.5272  0.6957  0.4199
   55MOL    C1914167   3.438   3.433   7.116  0.4612  0.2186 -0.3132
   55MOL    H2014168   3.281   3.486   7.252  1.2511  0.1674 -1.2997
   55MOL    H2114169   3.513   3.328   7.364 -1.1542 -1.0002  1.0071
   55MOL    H2214170   3.426   3.400   7.594 -3.2775  0.4290  0.5351
   55MOL    H2314171   3.294   3.490   7.515  0.6217  3.3577 -1.3123
   55MOL    H2414172   3.457   3.628   7.374 -2.0775 -0.6177 -0.6316
   55MOL    H2514173   3.600   3.540   7.450 -0.7067  2.2901  1.5732
   55MOL    H2614174   3.390   3.390   7.029 -0.3652  2.1279 -0.8343
   55MOL    H2714175   3.525   3.367   7.123  0.4665  0.1831 -0.7487
   55MOL    C2814176   3.464   3.583   7.080 -1.1250 -0.2852 -0.0569
   55MOL    C2914177   3.331   3.650   7.038  0.2031 -0.0585  0.4658
   55MOL    C3014178   3.256   3.741   7.119 -0.0047  0.0878 -0.2041
   55MOL    C3114179   3.339   3.794   7.003 -0.3403  0.3895  0.4092
   55MOL    C3214180   3.573   3.584   6.965 -0.1831  0.3283 -0.0973
   55MOL    H3314181   3.510   3.648   7.155  0.3409  1.1216 -2.1161
   55MOL    H3414182   3.279   3.583   6.969 -2.1232  0.7928  1.3631
   55MOL    H3514183   3.296   3.770   7.216  0.0039  1.2944 -0.5559
   55MOL    H3614184   3.148   3.753   7.111  0.0893  2.4063  1.6994
   55MOL    H3714185   3.430   3.845   7.034 -1.5597  1.1675  2.8898
   55MOL    H3814186   3.272   3.851   6.938 -1.2654  0.7469  1.6531
   55MOL    H3914187   3.559   3.672   6.903 -2.2766  0.3604  0.4099
   55MOL    H4014188   3.571   3.491   6.907 -3.9509  1.5188 -2.0122
   55MOL    C4114189   3.718   3.595   7.003 -0.1056 -0.0245  0.2686
   55MOL    C4214190   3.737   3.732   7.064 -0.2011 -0.4009  0.2387
   55MOL    C4314191   3.864   3.779   7.126 -0.4737  0.0043  0.0713
   55MOL    C4414192   3.743   3.754   7.217  0.8170  0.2931  0.0966
   55MOL    C4514193   3.804   3.574   6.878  0.1241 -0.2155  0.6587
   55MOL    H4614194   3.742   3.521   7.079  2.7235 -0.1268 -0.6601
   55MOL    H4714195   3.679   3.809   7.013  1.8754  1.8069  1.1675
   55MOL    H4814196   3.941   3.702   7.122 -1.0617 -0.6059  0.4275
   55MOL    H4914197   3.904   3.876   7.099  0.9378 -0.2486  1.2472
   55MOL    H5014198   3.679   3.835   7.251  1.4352  0.8126  0.0097
   55MOL    H5114199   3.743   3.659   7.270 -1.1680 -1.0461 -2.1882
   55MOL    H5214200   3.896   3.631   6.894 -0.3521  0.5903  0.5283
   55MOL    H5314201   3.746   3.603   6.790 -0.8818 -0.5724  1.1993
   55MOL    C5414202   3.859   3.428   6.854  0.0435 -0.2448  0.1834
   55MOL    C5514203   3.946   3.440   6.726 -0.1845 -0.3353 -0.0924
   55MOL    C5614204   3.872   3.440   6.595  0.5146  0.0082  0.1269
   55MOL    C5714205   3.962   3.324   6.631 -0.0527  0.0087  0.2588
   55MOL    C5814206   3.950   3.381   6.963 -0.8444 -0.3561 -0.4728
   55MOL    H5914207   3.779   3.354   6.860 -1.0464  1.0190  1.5609
   55MOL    H6014208   4.024   3.516   6.736  0.5858 -1.0430 -0.6907
   55MOL    H6114209   3.769   3.407   6.597  0.3167  0.6644  0.9187
   55MOL    H6214210   3.908   3.498   6.510  0.5356 -1.7981 -1.1290
   55MOL    H6314211   4.057   3.329   6.577  0.3257  2.2871  1.0776
   55MOL    H6414212   3.914   3.226   6.635 -1.4160  0.6969  0.8371
   55MOL    H6514213   4.024   3.454   6.997 -0.2984 -1.2747  0.3360
   55MOL    H6614214   3.894   3.383   7.056 -0.4049  0.5065 -0.2135
   55MOL    C6714215   4.012   3.236   6.956  0.7136  0.0956 -0.6349
   55MOL    C6814216   4.163   3.254   6.963 -0.3955  0.0093 -0.0505
   55MOL    C6914217   4.253   3.146   6.914 -0.7331  0.2842  0.3742
   55MOL    C7014218   4.259   3.271   6.833  0.1828 -0.9248  0.6462
   55MOL    C7114219   3.976   3.156   7.083 -0.2887  0.1276  0.7037
   55MOL    H7214220   3.987   3.180   6.866 -0.3052 -0.6064  0.0632
   55MOL    H7314221   4.197   3.311   7.049 -3.6467  0.4537  0.9888
   55MOL    H7414222   4.324   3.134   6.995 -1.8559 -1.5078  1.1286
   55MOL    H7514223   4.223   3.059   6.855 -1.2452  1.0284 -0.4831
   55MOL    H7614224   4.217   3.278   6.733  3.4936  0.1285 -0.7132
   55MOL    H7714225   4.333   3.349   6.851 -0.0577 -0.0847 -1.8313
   55MOL    H7814226   4.015   3.206   7.172  0.3462 -0.9544  1.0371
   55MOL    H7914227   4.035   3.065   7.088  0.6842  0.8239  2.3237
   55MOL    C8014228   3.829   3.113   7.085 -0.1376 -0.3920  0.2295
   55MOL    C8114229   3.789   3.077   7.230  0.7032  1.2247  0.5839
   55MOL    C8214230   3.646   3.090   7.282 -0.0182 -0.0456  0.6452
   55MOL    C8314231   3.756   3.189   7.325  0.0697  0.4776 -0.2705
   55MOL    C8414232   3.803   2.993   6.991  0.0388  0.0716  0.2655
   55MOL    H8514233   3.774   3.205   7.063  1.8596  1.7055  3.5057
   55MOL    H8614234   3.851   2.996   7.269 -1.5754 -0.5487  0.5816
   55MOL    H8714235   3.609   3.007   7.342 -0.7718 -1.1838 -1.3640
   55MOL    H8814236   3.573   3.119   7.207 -0.1544  1.3658  1.3116
   55MOL    H8914237   3.755   3.288   7.280 -1.2115  0.1089 -1.0806
   55MOL    H9014238   3.798   3.179   7.425 -0.8673  0.4188  0.1297
   55MOL    H9114239   3.899   2.957   6.953 -0.2337 -1.2541  0.8103
   55MOL    H9214240   3.755   2.911   7.045 -0.2766 -1.7734 -2.7290
   55MOL    C9314241   3.719   3.030   6.874  0.3535 -0.9236  0.1574
   55MOL    C9414242   3.719   2.936   6.762 -0.8537  0.5990  0.2060
   55MOL    C9514243   3.751   2.985   6.620 -0.2165 -0.1953  0.3933
   55MOL    C9614244   3.849   2.883   6.683  0.9392  0.3165 -0.3636
   55MOL    C9714245   3.566   3.054   6.907  0.4451 -0.1151  0.1658
   55MOL    H9814246   3.762   3.124   6.839 -0.2577 -0.8282 -0.3486
   55MOL    H9914247   3.632   2.870   6.762  0.6771 -1.4820  0.9717
   55MOL   H10014248   3.686   2.952   6.540 -1.7062  0.5208  1.2891
   55MOL   H10114249   3.797   3.080   6.594 -1.7724  0.1907 -1.0614
   55MOL   H10214250   3.850   2.783   6.640  0.4068  0.0055  0.3282
   55MOL   H10314251   3.948   2.910   6.718  1.0284 -0.6809  0.1679
   55MOL   H10414252   3.568   3.113   6.998  3.1341 -1.3603  0.9531
   55MOL   H10514253   3.520   2.957   6.926  0.5517  0.0511  1.2879
   55MOL   C10614254   3.472   3.104   6.798 -0.3212  0.0869 -0.4139
   55MOL   C10714255   3.324   3.073   6.849 -0.1065 -0.1602 -0.3511
   55MOL   C10814256   3.216   3.011   6.771 -0.6002 -0.5828  0.3924
   55MOL   C10914257   3.281   2.921   6.861  0.1249  0.2778  0.1121
   55MOL   C11014258   3.499   3.252   6.756  0.4758  0.5208 -0.2917
   55MOL   H11114259   3.489   3.038   6.713 -0.3573 -0.7038  0.1921
   55MOL   H11214260   3.293   3.132   6.935  3.2088 -1.0032  1.5088
   55MOL   H11314261   3.114   3.040   6.798 -1.0409 -1.7643  0.0634
   55MOL   H11414262   3.236   3.003   6.664  0.7336  0.9302  0.5263
   55MOL   H11514263   3.221   2.887   6.946 -3.3835  2.3378 -1.4396
   55MOL   H11614264   3.332   2.842   6.806 -3.5338 -1.0027 -1.5694
   55MOL   H11714265   3.448   3.315   6.830 -1.0919  0.9977 -1.7522
   55MOL   H11814266   3.605   3.279   6.752  0.4029  0.8171 -0.2243
   55MOL   C11914267   3.436   3.278   6.613  0.4084  0.4588  0.4445
   55MOL   C12014268   3.418   3.433   6.598  0.0704  0.2369  0.1790
   55MOL   C12114269   3.293   3.504   6.655  0.1106  0.1824 -0.3102
   55MOL   C12214270   3.308   3.476   6.511 -0.1777  0.0351 -0.3487
   55MOL   C12314271   3.511   3.220   6.494 -0.2557  0.2560 -0.3998
   55MOL   H12414272   3.338   3.232   6.615  1.1773 -1.1790  2.0101
   55MOL   H12514273   3.509   3.493   6.598 -0.0997  0.5657  3.3341
   55MOL   H12614274   3.290   3.609   6.682 -2.0052 -0.3227  1.5719
   55MOL   H12714275   3.227   3.441   6.714  0.4840  3.0437  3.3596
   55MOL   H12814276   3.242   3.399   6.471  0.8477 -1.2757  0.4252
   55MOL   H12914277   3.314   3.565   6.450 -0.1316  0.1566 -0.1672
   55MOL   H13014278   3.607   3.271   6.484 -0.6595  1.0590 -0.1619
   55MOL   H13114279   3.548   3.120   6.518 -0.4372  0.7635  2.1040
   55MOL   C13214280   3.442   3.214   6.356  0.3947  0.4955  0.5486
   55MOL   C13314281   3.331   3.114   6.361 -0.2019  0.1219 -0.2709
   55MOL   C13414282   3.255   3.083   6.236 -0.2963 -0.0875  0.1438
   55MOL   C13514283   3.187   3.153   6.348 -0.5321  0.1431  0.3911
   55MOL   C13614284   3.546   3.172   6.251  0.3713  0.4269 -0.0228
   55MOL   H13714285   3.412   3.316   6.331 -0.9893 -0.0778 -0.1512
   55MOL   H13814286   3.350   3.029   6.426 -2.5342 -0.3960 -0.2189
   55MOL   H13914287   3.285   3.140   6.148  0.6763 -0.4399  0.2360
   55MOL   H14014288   3.226   2.979   6.223  0.3653 -0.2140 -0.3609
   55MOL   H14114289   3.161   3.257   6.327  2.3623  0.9563  0.6700
   55MOL   H14214290   3.135   3.099   6.427 -0.4836 -0.3340  0.0943
   55MOL   H14314291   3.620   3.107   6.297 -0.7512 -0.0330  1.1692
   55MOL   H14414292   3.500   3.116   6.170  1.6745  1.2407 -1.3463
   55MOL   C14514293   3.622   3.291   6.197 -0.6077  0.0037 -0.1341
   55MOL   C14614294   3.759   3.249   6.150  0.3344  0.3030  0.4094
   55MOL   C14714295   3.876   3.336   6.160 -0.1032 -0.1727 -0.0149
   55MOL   C14814296   3.869   3.211   6.245  0.0836  0.5949 -0.3889
   55MOL   C14914297   3.541   3.367   6.088  0.6383  0.5335 -0.4549
   55MOL   H15014298   3.641   3.353   6.284  2.1825 -3.9136  2.2410
   55MOL   H15114299   3.755   3.188   6.061  0.0024  1.1540 -0.1646
   55MOL   H15214300   3.939   3.330   6.071  1.0497  1.6873  0.6648
   55MOL   H15314301   3.879   3.432   6.210  1.3399 -0.9571  1.4419
   55MOL   H15414302   3.839   3.213   6.350  0.3360  0.6839 -0.3190
   55MOL   H15514303   3.937   3.130   6.219 -1.1865 -1.0740  1.3043
   55MOL   H15614304   3.572   3.310   6.001 -0.0097  1.1610 -1.1087
   55MOL   H15714305   3.435   3.356   6.112  0.7202 -1.0617 -0.7974
   55MOL   C15814306   3.578   3.520   6.073 -0.0257 -0.1002 -0.0493
   55MOL   C15914307   3.529   3.598   6.199 -0.3462  0.3698  0.1749
   55MOL   C16014308   3.613   3.628   6.318  0.5095 -0.0158  0.1828
   55MOL   C16114309   3.576   3.742   6.229 -0.4687 -0.2401  0.6772
   55MOL   C16214310   3.545   3.587   5.938 -0.6395 -0.1131 -0.4282
   55MOL   H16314311   3.687   3.522   6.070 -0.0279 -0.9779 -1.0117
   55MOL   H16414312   3.428   3.569   6.226  0.3423 -2.4653 -0.1123
   55MOL   H16514313   3.715   3.589   6.312 -0.3498 -3.0582  3.4442
   55MOL   H16614314   3.564   3.628   6.415 -1.2356 -1.0477 -0.6666
   55MOL   H16714315   3.498   3.807   6.270 -1.0373 -1.1277  1.0242
   55MOL   H16814316   3.662   3.790   6.185 -0.8803  1.0524  1.2417
   55MOL   H16914317   3.606   3.548   5.857 -0.7683 -0.1206 -0.5214
   55MOL   H17014318   3.579   3.689   5.958  0.9531 -0.8115  0.4958
   55MOL   C17114319   3.394   3.590   5.885  0.1241  0.4793  0.3305
   55MOL   C17214320   3.357   3.729   5.823 -0.0808  0.1409 -0.2606
   55MOL   C17314321   3.217   3.780   5.847  0.5291  0.5809  0.0141
   55MOL   C17414322   3.329   3.850   5.912  0.7323 -0.2988  0.2008
   55MOL   C17514323   3.364   3.470   5.794 -0.0987 -0.1776  0.2465
   55MOL   H17614324   3.325   3.576   5.968  0.8283  1.4931  1.0850
   55MOL   H17714325   3.398   3.741   5.723  0.2068  0.5434 -0.0961
   55MOL   H17814326   3.165   3.834   5.768 -0.8108  1.2384  1.3255
   55MOL   H17914327   3.146   3.731   5.913  0.6941  0.0780 -0.1827
   55MOL   H18014328   3.350   3.840   6.018 -0.6933 -0.6351  0.4622
   55MOL   H18114329   3.335   3.952   5.875 -2.5884  0.3151  1.2228
   55MOL   H18214330   3.421   3.381   5.823 -0.7085 -0.5307  0.3645
   55MOL   H18314331   3.396   3.485   5.691 -0.6917  1.1555  0.2496
   55MOL   C18414332   3.219   3.413   5.790 -0.7638  0.5164  0.6177
   55MOL   C18514333   3.176   3.340   5.915 -0.0712 -0.3288 -0.3224
   55MOL   C18614334   3.031   3.333   5.953 -0.6153 -0.2937 -0.5634
   55MOL   C18714335   3.126   3.409   6.042  0.8555 -0.6648  0.3143
   55MOL   C18814336   3.208   3.322   5.663  0.8847 -0.3955 -0.6228
   55MOL   H18914337   3.165   3.507   5.781 -1.3363  0.0998 -0.4244
   55MOL   H19014338   3.232   3.249   5.937  0.3499 -0.5281 -2.1288
   55MOL   H19114339   2.990   3.237   5.986  0.3593 -0.7772 -0.7113
   55MOL   H19214340   2.960   3.390   5.894  1.2572  0.1176 -2.4723
   55MOL   H19314341   3.142   3.365   6.140  1.7087 -1.5431 -0.2178
   55MOL   H19414342   3.097   3.514   6.040  1.3922 -0.5393 -1.3262
   55MOL   H19514343   3.117   3.266   5.683  0.5476  0.8509  1.4838
   55MOL   H19614344   3.279   3.239   5.673 -0.2875 -1.6214 -2.3679
   55MOL   C19714345   3.200   3.388   5.527 -0.1746 -0.1820  0.4749
   55MOL   C19814346   3.056   3.400   5.485  0.1749 -0.2088  0.5891
   55MOL   C19914347   3.000   3.513   5.402 -0.2995  0.6015  0.1758
   55MOL   C20014348   2.960   3.500   5.551 -0.1540 -0.0867 -0.2950
   55MOL   C20114349   3.279   3.313   5.419  0.8722  0.0669 -0.0791
   55MOL   H20214350   3.234   3.491   5.516  1.3600 -1.0665 -4.0869
   55MOL   H20314351   3.017   3.304   5.451  3.3766 -1.2479 -0.3636
   55MOL   H20414352   3.076   3.586   5.374 -0.4099 -0.0782 -1.9779
   55MOL   H20514353   2.921   3.490   5.332 -2.2680  0.0360  2.4942
   55MOL   H20614354   3.011   3.547   5.635 -0.1211  0.8232 -0.8132
   55MOL   H20714355   2.856   3.473   5.568 -0.0871 -1.5042 -2.0395
   55MOL   H20814356   3.261   3.213   5.458 -2.1218  0.5021 -0.2295
   55MOL   H20914357   3.234   3.325   5.320  0.2557 -0.8969  0.0866
   55MOL   C21014358   3.431   3.353   5.406 -0.2555 -0.1812 -0.9259
   55MOL   C21114359   3.505   3.252   5.324 -1.0488 -0.2319  0.4294
   55MOL   C21214360   3.647   3.200   5.353  0.3070 -0.1038  0.7413
   55MOL   C21314361   3.529   3.111   5.370  0.0048 -0.0286  0.1962
   55MOL   C21414362   3.452   3.499   5.347 -0.1626  0.6968  0.3065
   55MOL   H21514363   3.475   3.351   5.505 -1.2649 -1.5068 -0.4943
   55MOL   H21614364   3.467   3.256   5.222  2.6051  1.2655 -0.9755
   55MOL   H21714365   3.696   3.208   5.256 -0.6807  0.6970  0.3073
   55MOL   H21814366   3.706   3.227   5.440  1.4765 -2.2918  0.6857
   55MOL   H21914367   3.537   3.029   5.300  0.9745 -1.4719  1.9489
   55MOL   H22014368   3.487   3.085   5.467  0.5036 -0.1231  0.3828
   55MOL   H22114369   3.411   3.496   5.247  2.5183 -2.1944 -0.7838
   55MOL   H22214370   3.397   3.572   5.406 -0.0743  0.4522  0.7018
   55MOL   C22314371   3.597   3.552   5.356  0.3065  0.6996  0.2152
   55MOL   C22414372   3.632   3.575   5.501 -0.9214 -0.4821  0.1729
   55MOL   C22514373   3.727   3.499   5.574 -0.0341 -0.3640 -0.2845
   55MOL   C22614374   3.763   3.639   5.531 -0.1678  0.2301 -0.1778
   55MOL   C22714375   3.607   3.683   5.272  0.2119 -0.3063  0.1797
   55MOL   H22814376   3.663   3.485   5.301 -1.9730 -1.5649  0.1087
   55MOL   H22914377   3.550   3.625   5.552 -1.8992 -1.3853 -0.5067
   55MOL   H23014378   3.798   3.428   5.531 -0.8255 -1.6420  0.5215
   55MOL   H23114379   3.716   3.474   5.679 -0.4471  1.0948  0.0213
   55MOL   H23214380   3.756   3.732   5.586  0.5852  0.4949 -0.5126
   55MOL   H23314381   3.843   3.646   5.457  1.8339  1.4846  2.0358
   55MOL   H23414382   3.513   3.738   5.276  0.6335  0.7670 -3.5398
   55MOL   H23514383   3.680   3.757   5.307 -0.1611  1.9764 -3.5706
   55MOL   C23614384   3.638   3.671   5.118 -0.4764 -0.0923  0.3296
   55MOL   C23714385   3.779   3.617   5.096  0.3551  0.2382  0.1271
   55MOL   C23814386   3.793   3.467   5.074 -0.7439 -0.6131 -0.0348
   55MOL   C23914387   3.822   3.556   4.965  0.3952 -0.4050  0.6508
   55MOL   C24014388   3.640   3.806   5.038  0.3775 -0.6123 -0.5452
   55MOL   H24114389   3.562   3.604   5.078  0.7481 -0.6029 -1.1755
   55MOL   H24214390   3.862   3.674   5.138 -1.3260  0.8858  2.6872
   55MOL   H24314391   3.883   3.415   5.107 -1.4834 -1.2242  1.0704
   55MOL   H24414392   3.703   3.405   5.064  0.0544 -1.6549 -0.9276
   55MOL   H24514393   3.751   3.549   4.883  0.7630  1.2375  0.1689
   55MOL   H24614394   3.924   3.573   4.931  0.2397  2.3349  1.3935
   55MOL   H24714395   3.704   3.876   5.091 -0.1808  0.6141 -1.4623
   55MOL   H24814396   3.678   3.800   4.936  2.0210  0.0736  0.0097
   55MOL   C24914397   3.503   3.873   5.016  0.3229  0.4570 -0.2560
   55MOL   C25014398   3.423   3.797   4.912  0.3201  0.5299  0.4666
   55MOL   C25114399   3.318   3.702   4.967  0.4398  0.1519 -0.5483
   55MOL   C25214400   3.273   3.829   4.901 -0.1258 -0.6756  0.1110
   55MOL   C25314401   3.532   4.018   4.960  0.5554 -0.0337  0.2959
   55MOL   H25414402   3.447   3.886   5.109 -1.1208  0.8140 -1.1645
   55MOL   H25514403   3.470   3.763   4.820 -0.8220  0.7363 -0.2011
   55MOL   H25614404   3.301   3.615   4.904 -2.1470  0.6580 -0.6077
   55MOL   H25714405   3.304   3.685   5.074 -0.8292 -0.2496 -0.7671
   55MOL   H25814406   3.233   3.821   4.800  0.5968 -1.2977 -0.1401
   55MOL   H25914407   3.223   3.905   4.960  0.3408 -0.8719  0.7718
   55MOL   H26014408   3.440   4.076   4.947  0.7118  0.1563  0.0364
   55MOL   H26114409   3.582   4.013   4.863 -1.5067  0.6831 -0.8438
   55MOL   H26214410   3.610   4.060   5.023  1.0024  0.4273 -0.5516
   56MOL     C114411   1.307   4.491   5.600  0.1330 -0.1282 -0.0704
   56MOL     C214412   1.357   4.588   5.706  0.2345 -0.2234  0.4320
   56MOL     C314413   1.396   4.733   5.683  0.2602 -0.3287  0.2137
   56MOL     C414414   1.504   4.635   5.710  0.5151 -0.4889  0.0317
   56MOL     C514415   1.153   4.499   5.583  0.6621  0.2061 -0.2127
   56MOL     H614416   1.358   4.518   5.508 -0.7900  1.7398 -0.0567
   56MOL     H714417   1.314   4.571   5.805  0.4368  1.1328  0.7560
   56MOL     H814418   1.380   4.757   5.578  0.8887 -1.4046 -0.1373
   56MOL     H914419   1.404   4.813   5.756  0.8410  0.6040 -0.8538
   56MOL    H1014420   1.550   4.647   5.807  0.5546  0.4556 -0.1017
   56MOL    H1114421   1.563   4.601   5.625  0.7435  1.1617 -0.4780
   56MOL    H1214422   1.128   4.602   5.557 -1.7273 -0.5592 -1.0558
   56MOL    H1314423   1.109   4.461   5.675  0.4831  1.1637  0.1023
   56MOL    H1414424   1.346   4.394   5.630 -0.0355  0.4014  1.9233
   56MOL    C1514425   1.102   4.413   5.458  1.3250  0.4534  0.5846
   56MOL    C1614426   1.127   4.263   5.458  1.0406  0.5600  0.5456
   56MOL    C1714427   1.250   4.204   5.398  0.3591  0.6787 -0.1789
   56MOL    C1814428   1.121   4.177   5.324  0.0836  1.0478 -0.1211
   56MOL    C1914429   0.946   4.427   5.440 -0.8726  0.1516 -0.4608
   56MOL    H2014430   1.149   4.459   5.371 -0.7628  1.3053 -0.1196
   56MOL    H2114431   1.088   4.211   5.545 -2.1768  1.3326 -0.3316
   56MOL    H2214432   1.295   4.125   5.458  0.3840  0.5007 -0.4352
   56MOL    H2314433   1.319   4.273   5.350 -1.1515  2.0954 -0.3554
   56MOL    H2414434   1.083   4.229   5.237  0.0880  0.7836 -0.2826
   56MOL    H2514435   1.084   4.074   5.330 -1.4961  1.6748  1.6072
   56MOL    H2614436   0.895   4.374   5.521  1.1994  0.3937  1.0362
   56MOL    H2714437   0.912   4.373   5.352 -1.1546 -0.3756 -0.0352
   56MOL    C2814438   0.889   4.575   5.440 -0.6912 -0.1906  0.6284
   56MOL    C2914439   0.741   4.575   5.415 -1.1028 -0.2233 -0.6805
   56MOL    C3014440   0.664   4.497   5.525  0.1172 -0.1456  0.0191
   56MOL    C3114441   0.642   4.642   5.505 -0.1232 -0.0910 -0.0370
   56MOL    C3214442   0.953   4.672   5.337  0.5473  0.4671  0.1732
   56MOL    H3314443   0.904   4.615   5.540  0.1520 -0.6884  0.7021
   56MOL    H3414444   0.710   4.552   5.314  0.1239  0.8411 -1.3003
   56MOL    H3514445   0.716   4.471   5.618  0.1135  1.5052  0.4926
   56MOL    H3614446   0.579   4.435   5.495  1.6898 -1.3234 -2.1412
   56MOL    H3714447   0.681   4.708   5.582 -0.0695  0.4091 -0.4870
   56MOL    H3814448   0.547   4.672   5.460  0.9413  1.2597 -1.4281
   56MOL    H3914449   0.907   4.653   5.240  2.9123 -1.4737 -0.6146
   56MOL    H4014450   1.059   4.651   5.319  0.7618  1.8002 -0.2323
   56MOL    C4114451   0.929   4.831   5.363  0.1240 -0.0956  0.2164
   56MOL    C4214452   0.951   4.896   5.228  0.1291 -0.0974  0.5087
   56MOL    C4314453   0.878   5.025   5.190 -0.8723 -0.1051 -0.8762
   56MOL    C4414454   0.834   4.897   5.127 -0.0632  0.1560  0.2348
   56MOL    C4514455   1.036   4.875   5.466 -0.5757 -0.5057  0.1705
   56MOL    H4614456   0.832   4.867   5.396  0.8885  0.6900  1.6881
   56MOL    H4714457   1.050   4.874   5.189 -0.8269 -0.5632 -1.7823
   56MOL    H4814458   0.814   5.073   5.263  0.6194  0.1023  0.3147
   56MOL    H4914459   0.940   5.093   5.132  1.7718 -0.6058  1.2619
   56MOL    H5014460   0.867   4.879   5.025  1.6490 -1.4481  1.0509
   56MOL    H5114461   0.738   4.856   5.160  0.1265  0.5411  1.2905
   56MOL    H5214462   1.134   4.854   5.422 -0.4441 -2.0934  1.2015
   56MOL    H5314463   1.044   4.801   5.546  2.0689 -0.7483 -0.2490
   56MOL    C5414464   1.016   5.019   5.519 -0.8319 -0.1899  0.2099
   56MOL    C5514465   0.905   5.025   5.620  0.3011  0.0682  0.3406
   56MOL    C5614466   0.758   5.032   5.584  0.6239 -0.1130  0.3929
   56MOL    C5714467   0.830   5.159   5.644  0.4426 -0.3972  0.1876
   56MOL    C5814468   1.152   5.073   5.571  0.4419 -0.4386 -0.1636
   56MOL    H5914469   0.992   5.077   5.429 -1.2866 -0.4969  0.1289
   56MOL    H6014470   0.927   4.962   5.706  0.2027 -0.6613 -0.1683
   56MOL    H6114471   0.741   5.044   5.478  1.5114  0.2532  0.2828
   56MOL    H6214472   0.687   4.972   5.640  0.6865 -2.2259 -1.7361
   56MOL    H6314473   0.807   5.181   5.748  0.8866 -0.9923  0.4113
   56MOL    H6414474   0.859   5.243   5.581  4.1256 -1.3128  0.5513
   56MOL    H6514475   1.167   5.020   5.665 -2.4980  1.1412  1.2770
   56MOL    H6614476   1.235   5.040   5.509 -1.5968 -1.4516 -2.4703
   56MOL    C6714477   1.160   5.223   5.602  0.6201 -1.1354 -0.1265
   56MOL    C6814478   1.294   5.241   5.677 -0.3996  0.2777 -0.1713
   56MOL    C6914479   1.329   5.351   5.768  0.1623  0.3404 -0.0418
   56MOL    C7014480   1.299   5.215   5.824  0.2558 -0.1063 -0.6723
   56MOL    C7114481   1.156   5.313   5.474 -0.0654  0.6316  0.1490
   56MOL    H7214482   1.083   5.249   5.675 -0.2664  0.7643 -1.7042
   56MOL    H7314483   1.370   5.196   5.613 -0.5143  0.4906 -0.4634
   56MOL    H7414484   1.429   5.389   5.788 -0.5421  2.3502 -0.1628
   56MOL    H7514485   1.253   5.429   5.774  1.4352  1.4109  2.6491
   56MOL    H7614486   1.206   5.213   5.882  0.3268  0.2943 -0.5384
   56MOL    H7714487   1.386   5.176   5.876  0.3814 -0.8280 -1.4062
   56MOL    H7814488   1.059   5.298   5.428  0.5499 -0.2254 -0.9095
   56MOL    H7914489   1.232   5.271   5.408 -0.7249 -0.3198 -0.0181
   56MOL    C8014490   1.156   5.467   5.506  0.5892  0.2075  0.1385
   56MOL    C8114491   1.018   5.516   5.563 -0.1421 -0.3135  0.1341
   56MOL    C8214492   0.992   5.661   5.603  0.2542 -0.7003  0.5637
   56MOL    C8314493   1.002   5.559   5.706  0.4334  0.6455  0.0354
   56MOL    C8414494   1.188   5.540   5.369  0.1891 -0.5187  0.1272
   56MOL    H8514495   1.240   5.490   5.572 -0.2232 -0.4113  1.3936
   56MOL    H8614496   0.936   5.458   5.522  1.1513 -1.0271 -1.5025
   56MOL    H8714497   0.892   5.694   5.577  0.2431 -0.9299  0.3072
   56MOL    H8814498   1.074   5.732   5.594 -0.1605 -0.0683  1.7240
   56MOL    H8914499   1.095   5.554   5.763  0.1544 -0.8422  0.3925
   56MOL    H9014500   0.908   5.540   5.757 -1.1860  0.8038 -2.8231
   56MOL    H9114501   1.128   5.496   5.290 -0.4896  2.5066 -1.1384
   56MOL    H9214502   1.151   5.641   5.388  1.3946 -0.3227  1.5959
   56MOL    C9314503   1.339   5.530   5.325 -0.0078  0.2612 -0.0375
   56MOL    C9414504   1.340   5.564   5.175  0.4446  0.4198 -0.5496
   56MOL    C9514505   1.434   5.493   5.079 -0.0265 -0.6172 -0.5594
   56MOL    C9614506   1.286   5.464   5.074  0.0524  0.0297  0.8649
   56MOL    C9714507   1.418   5.640   5.403 -0.6069 -0.1485 -0.9042
   56MOL    H9814508   1.375   5.428   5.337  0.6202  0.4970  0.0823
   56MOL    H9914509   1.297   5.662   5.155  0.8038  0.6946  0.0120
   56MOL   H10014510   1.470   5.555   4.997  2.2656  1.4213  1.9092
   56MOL   H10114511   1.500   5.416   5.117 -0.4626  0.3417  2.3333
   56MOL   H10214512   1.242   5.518   4.990 -1.4510  0.5129  1.9465
   56MOL   H10314513   1.252   5.368   5.112  0.2674 -0.7369 -0.8345
   56MOL   H10414514   1.405   5.627   5.510 -1.6729 -1.1907 -1.1527
   56MOL   H10514515   1.389   5.741   5.372  1.4643  0.0314 -2.3552
   56MOL   C10614516   1.573   5.631   5.367  0.5541  0.1791  0.2961
   56MOL   C10714517   1.643   5.767   5.375 -0.0513  0.7872 -0.5465
   56MOL   C10814518   1.766   5.820   5.290  0.5051 -0.4178  0.3318
   56MOL   C10914519   1.621   5.856   5.255 -0.0012 -0.4524  0.9504
   56MOL   C11014520   1.633   5.529   5.467  0.3910  1.0548  0.0802
   56MOL   H11114521   1.578   5.597   5.263 -2.5017 -2.4460  0.9128
   56MOL   H11214522   1.634   5.804   5.477 -0.2110  0.4206 -0.4296
   56MOL   H11314523   1.823   5.892   5.347 -0.3571 -1.0154  1.9985
   56MOL   H11414524   1.819   5.748   5.228  0.5594 -0.3038  0.2452
   56MOL   H11514525   1.574   5.813   5.167 -1.2952  0.1000  1.3508
   56MOL   H11614526   1.573   5.949   5.287  0.2897 -0.4068  1.2631
   56MOL   H11714527   1.643   5.577   5.565  0.4920  1.5698 -0.1823
   56MOL   H11814528   1.572   5.442   5.493  0.5770  0.4918 -1.3194
   56MOL   C11914529   1.772   5.482   5.416  0.2685  0.1229 -0.3326
   56MOL   C12014530   1.873   5.456   5.524  0.2696  0.0472 -0.6932
   56MOL   C12114531   1.949   5.567   5.589 -0.3090  0.6163 -0.2255
   56MOL   C12214532   2.021   5.466   5.504 -0.2749 -0.4241 -0.3678
   56MOL   C12314533   1.756   5.351   5.336  0.0176  0.2395  0.8239
   56MOL   H12414534   1.820   5.558   5.354  0.5587 -1.2203 -1.7783
   56MOL   H12514535   1.823   5.394   5.599  0.8750  0.0292 -0.3012
   56MOL   H12614536   1.963   5.558   5.696  0.3601  0.5010 -0.3208
   56MOL   H12714537   1.923   5.666   5.550  2.3754  1.8010  0.8580
   56MOL   H12814538   2.059   5.492   5.405  0.4368 -0.0317  0.0009
   56MOL   H12914539   2.089   5.404   5.561 -1.4005  0.2870  1.7890
   56MOL   H13014540   1.741   5.261   5.396  0.3557 -0.6818 -0.4295
   56MOL   H13114541   1.668   5.368   5.273 -0.0859 -0.4641  0.7732
   56MOL   C13214542   1.873   5.313   5.244  0.2365 -0.3933 -0.3530
   56MOL   C13314543   1.879   5.396   5.122 -0.1815  0.2282  0.2540
   56MOL   C13414544   2.006   5.405   5.034 -0.3613 -0.6027 -0.1278
   56MOL   C13514545   1.957   5.524   5.113  0.0307 -0.1229  0.6569
   56MOL   C13614546   1.882   5.163   5.218 -0.8195 -0.2528 -0.1095
   56MOL   H13714547   1.963   5.347   5.296 -0.5467 -0.3896  1.0077
   56MOL   H13814548   1.785   5.392   5.067 -0.0351  0.7916 -0.0353
   56MOL   H13914549   2.092   5.357   5.081 -0.4712  0.7251  1.4819
   56MOL   H14014550   2.005   5.433   4.929  1.4130 -0.1290 -0.0381
   56MOL   H14114551   2.021   5.556   5.195 -2.4783  2.0794  1.8368
   56MOL   H14214552   1.920   5.595   5.041  2.0186 -1.5063 -1.8036
   56MOL   H14314553   1.785   5.116   5.204 -1.5886  2.2778 -3.9449
   56MOL   H14414554   1.928   5.152   5.120 -2.7958  0.1907 -1.0927
   56MOL   C14514555   1.972   5.083   5.313 -0.6385  0.1614  0.5996
   56MOL   C14614556   2.120   5.111   5.282 -0.5091  0.7513 -0.1159
   56MOL   C14714557   2.215   5.187   5.373  0.2786 -0.2898 -0.1821
   56MOL   C14814558   2.240   5.045   5.335 -0.4045  0.8876  0.2336
   56MOL   C14914559   1.941   5.070   5.472 -0.0546 -0.0422  0.5489
   56MOL   H15014560   1.962   4.979   5.282 -0.9568  0.1490  0.7478
   56MOL   H15114561   2.128   5.135   5.176 -1.1994  1.1738 -0.0762
   56MOL   H15214562   2.279   5.265   5.333  0.0784 -0.9926 -1.8801
   56MOL   H15314563   2.183   5.206   5.476  1.9881 -1.6859  0.6416
   56MOL   H15414564   2.212   4.964   5.402 -2.8857  0.6664 -0.9818
   56MOL   H15514565   2.339   5.042   5.291 -0.3892  1.3878  0.2316
   56MOL   H15614566   2.013   4.992   5.498 -0.6675  0.2592  3.3678
   56MOL   H15714567   1.960   5.166   5.521 -1.9260  0.4284  0.3849
   56MOL   C15814568   1.798   5.019   5.511  0.1322 -0.1665  0.0307
   56MOL   C15914569   1.750   5.088   5.636  0.2766 -0.1481 -0.0026
   56MOL   C16014570   1.644   5.193   5.637 -0.3277 -0.0727  0.7379
   56MOL   C16114571   1.618   5.051   5.688  0.6019 -0.9532 -0.6278
   56MOL   C16214572   1.794   4.862   5.518  0.0470 -0.5984 -0.5933
   56MOL   H16314573   1.724   5.052   5.438 -0.2554  0.2220  0.5943
   56MOL   H16414574   1.833   5.088   5.706  0.8078 -0.0650 -0.6333
   56MOL   H16514575   1.582   5.213   5.550 -0.2275 -2.0532  0.1786
   56MOL   H16614576   1.647   5.285   5.696 -0.9775 -0.1083  0.8362
   56MOL   H16714577   1.601   5.023   5.792  4.9430 -1.5018  0.0077
   56MOL   H16814578   1.547   5.006   5.618 -1.2438 -0.8910  1.1612
   56MOL   H16914579   1.694   4.834   5.552  0.5003 -1.7486 -0.1544
   56MOL   H17014580   1.862   4.850   5.602  1.4774  2.9033 -1.1696
   56MOL   C17114581   1.839   4.768   5.403  0.3512 -0.6122  0.0746
   56MOL   C17214582   1.840   4.622   5.455 -0.4912  0.0607  1.2609
   56MOL   C17314583   1.926   4.513   5.406  0.0968 -0.0387 -0.3467
   56MOL   C17414584   1.956   4.575   5.540  0.5738  0.1065 -0.3530
   56MOL   C17514585   1.751   4.799   5.284  0.9371  0.3513  0.0090
   56MOL   H17614586   1.943   4.790   5.378  0.6639 -0.6152  1.3425
   56MOL   H17714587   1.747   4.591   5.502 -1.2103  0.6253  0.2604
   56MOL   H17814588   1.875   4.417   5.408 -0.3875  0.2360  0.6189
   56MOL   H17914589   1.995   4.531   5.323 -1.0857  2.1193 -0.8827
   56MOL   H18014590   2.041   4.642   5.547 -0.1653  0.9732  0.6854
   56MOL   H18114591   1.935   4.514   5.627 -0.2027  0.7599 -0.0652
   56MOL   H18214592   1.746   4.908   5.272 -0.5301  0.3690  0.6193
   56MOL   H18314593   1.650   4.766   5.306  1.4978 -0.8313  0.8548
   56MOL   C18414594   1.800   4.722   5.150  0.0025 -0.4099 -0.5757
   56MOL   C18514595   1.920   4.783   5.079  1.2494 -0.5544 -0.0863
   56MOL   C18614596   1.996   4.709   4.974 -0.1496 -0.6358 -0.0467
   56MOL   C18714597   2.061   4.740   5.109 -0.3286 -0.4861 -0.1608
   56MOL   C18814598   1.680   4.711   5.052  0.2943  0.1205  0.2475
   56MOL   H18914599   1.837   4.623   5.177  0.8555  0.1972  0.5159
   56MOL   H19014600   1.910   4.886   5.046 -2.9245  0.5713  4.2012
   56MOL   H19114601   2.037   4.764   4.889  2.3240  0.8541  2.0472
   56MOL   H19214602   1.956   4.612   4.948 -0.6767 -0.4245 -0.0308
   56MOL   H19314603   2.124   4.828   5.124 -0.1783 -0.8553  1.4440
   56MOL   H19414604   2.085   4.662   5.180 -3.9553 -0.7901  0.8155
   56MOL   H19514605   1.706   4.718   4.946 -0.3487  2.1116  0.1949
   56MOL   H19614606   1.614   4.798   5.050  0.2998  0.1383 -2.8996
   56MOL   C19714607   1.585   4.584   5.069 -0.3449 -0.2070  1.1847
   56MOL   C19814608   1.673   4.454   5.067  0.5546 -0.3636 -0.0694
   56MOL   C19914609   1.601   4.320   5.098  0.1707 -0.2829 -0.5803
   56MOL   C20014610   1.696   4.379   5.190  0.0097  0.4251 -0.0983
   56MOL   C20114611   1.477   4.583   4.954  0.1260 -0.6670 -0.5154
   56MOL   H20214612   1.536   4.601   5.165  0.4379  0.1506  1.5197
   56MOL   H20314613   1.747   4.439   4.988  0.0935  0.6495 -0.6990
   56MOL   H20414614   1.494   4.324   5.118 -0.1622 -1.9916 -1.8495
   56MOL   H20514615   1.632   4.238   5.033 -2.7845 -2.2119  0.3512
   56MOL   H20614616   1.651   4.403   5.286  1.4686 -0.5675  0.8662
   56MOL   H20714617   1.792   4.328   5.191  0.2301  0.8513  0.9884
   56MOL   H20814618   1.497   4.663   4.882 -1.9089 -0.6315 -1.0720
   56MOL   H20914619   1.484   4.492   4.895  2.3163 -0.2800 -0.9019
   56MOL   C21014620   1.330   4.614   4.987 -0.0863  0.1442  0.2814
   56MOL   C21114621   1.256   4.505   5.067  0.0164  0.5272 -0.2828
   56MOL   C21214622   1.101   4.482   5.067 -0.2181  0.3476 -0.1845
   56MOL   C21314623   1.194   4.394   4.993 -0.3357  0.0594  0.4758
   56MOL   C21414624   1.301   4.746   5.060  0.2361  0.5587  0.6383
   56MOL   H21514625   1.282   4.616   4.889  0.5050  0.6174 -0.0028
   56MOL   H21614626   1.303   4.482   5.162  0.6782  1.7529 -0.3099
   56MOL   H21714627   1.067   4.454   5.167 -2.1996 -1.8277 -1.4316
   56MOL   H21814628   1.039   4.547   5.007 -1.5076 -1.2726 -0.6307
   56MOL   H21914629   1.235   4.304   5.037  3.1234  0.5888 -1.3960
   56MOL   H22014630   1.196   4.406   4.884 -1.9768 -0.6817  0.3584
   56MOL   H22114631   1.194   4.750   5.079  0.0612  1.7909 -0.5036
   56MOL   H22214632   1.349   4.742   5.157 -1.7749  0.1855  1.6339
   56MOL   C22314633   1.328   4.878   4.979  0.3465  0.9747 -0.3330
   56MOL   C22414634   1.315   5.004   5.072  0.3694 -0.4528 -0.4197
   56MOL   C22514635   1.402   5.039   5.195  0.2737  1.0689 -0.2446
   56MOL   C22614636   1.420   5.110   5.061  0.7585 -0.0024 -0.1986
   56MOL   C22714637   1.211   4.878   4.875 -0.0226  0.1757  0.7460
   56MOL   H22814638   1.429   4.870   4.937  1.1720  0.7533  1.6077
   56MOL   H22914639   1.207   5.018   5.084  0.1776 -2.0312 -0.2266
   56MOL   H23014640   1.470   4.962   5.231  0.3446  0.6462 -1.2431
   56MOL   H23114641   1.354   5.098   5.273 -0.7922  0.1520 -0.1799
   56MOL   H23214642   1.405   5.217   5.070 -2.2386 -0.2858 -1.3310
   56MOL   H23314643   1.508   5.092   4.999  1.3137 -2.2908  1.1813
   56MOL   H23414644   1.225   4.800   4.801  1.1895  1.6135 -0.5490
   56MOL   H23514645   1.112   4.863   4.918  0.1267 -1.4026  0.5823
   56MOL   C23614646   1.205   5.006   4.779 -0.3694  0.0433 -0.1026
   56MOL   C23714647   1.075   5.002   4.698 -0.4094 -0.8495  0.0974
   56MOL   C23814648   0.951   5.027   4.777  0.2695  0.4847 -0.3838
   56MOL   C23914649   1.003   5.136   4.689  0.0091  0.2399  0.9862
   56MOL   C24014650   1.335   5.015   4.693  0.6623  0.1613 -0.2260
   56MOL   H24114651   1.206   5.088   4.851 -1.2588  1.0840 -1.2528
   56MOL   H24214652   1.075   4.929   4.617  1.3386 -1.2332  0.4157
   56MOL   H24314653   0.858   4.982   4.741  1.3156 -2.0087 -0.0477
   56MOL   H24414654   0.968   5.030   4.884  1.0807  0.3533 -0.5044
   56MOL   H24514655   1.046   5.217   4.748 -0.5883  0.2800  1.3702
   56MOL   H24614656   0.951   5.163   4.598  1.5736  1.2795  0.3806
   56MOL   H24714657   1.424   4.994   4.752  0.3576  1.9231  0.9260
   56MOL   H24814658   1.315   4.948   4.609 -3.3704  1.3005 -0.2937
   56MOL   C24914659   1.361   5.156   4.641 -0.0096  0.1811  0.9120
   56MOL   C25014660   1.415   5.167   4.501  0.0569  0.7895  0.1686
   56MOL   C25114661   1.524   5.065   4.475  0.5179  0.1627 -0.1592
   56MOL   C25214662   1.402   5.066   4.384 -0.3123 -1.1615 -0.2082
   56MOL   C25314663   1.442   5.246   4.733 -0.1691  0.6767 -0.0646
   56MOL   H25414664   1.260   5.196   4.644  0.2857  0.8713  1.8785
   56MOL   H25514665   1.413   5.271   4.470 -0.6831  1.0596  1.1038
   56MOL   H25614666   1.609   5.118   4.433  2.1953 -1.3589  1.2417
   56MOL   H25714667   1.543   4.975   4.533  1.0622  0.2995 -0.1217
   56MOL   H25814668   1.410   5.115   4.287  0.9526 -1.9841 -0.5294
   56MOL   H25914669   1.336   4.979   4.383 -0.0428 -1.3631 -0.5192
   56MOL   H26014670   1.394   5.253   4.830  0.2810  0.2070  0.1963
   56MOL   H26114671   1.454   5.349   4.698  0.3141  0.9220  0.8044
   56MOL   H26214672   1.544   5.208   4.745  0.0327  1.5583  1.1618
   57MOL     C114673   5.115   4.102   5.049  0.1960 -0.3411 -0.3738
   57MOL     C214674   4.966   4.116   5.088  0.2812 -0.8386  0.7724
   57MOL     C314675   4.902   4.248   5.048  0.1941 -0.0795  0.1148
   57MOL     C414676   4.919   4.223   5.194  0.7198 -0.4670 -0.4161
   57MOL     C514677   5.177   3.989   5.138  0.5634 -0.1601 -0.4739
   57MOL     H614678   5.132   4.082   4.943  0.1381 -0.8971 -0.2799
   57MOL     H714679   4.905   4.027   5.080 -2.4463  0.7177  3.0306
   57MOL     H814680   4.963   4.323   4.998 -0.4127 -0.5822 -1.3803
   57MOL     H914681   4.795   4.254   5.029  0.1277 -1.6054 -0.0906
   57MOL    H1014682   4.848   4.180   5.266  0.9883 -0.0876  0.0798
   57MOL    H1114683   4.994   4.278   5.250 -0.8306 -1.1513  2.4629
   57MOL    H1214684   5.110   3.903   5.133  1.0524 -0.7456  2.2086
   57MOL    H1314685   5.158   4.015   5.242  1.0243  0.6878 -0.5997
   57MOL    H1414686   5.162   4.197   5.073 -1.4749  0.3263  0.3135
   57MOL    C1514687   5.318   3.941   5.104  0.1364  0.8166  0.0484
   57MOL    C1614688   5.395   3.920   5.233  0.4138 -0.5080 -0.3031
   57MOL    C1714689   5.453   4.036   5.306  0.1393 -0.6072  0.2462
   57MOL    C1814690   5.548   3.934   5.247  0.1346 -0.5534  0.6101
   57MOL    C1914691   5.307   3.803   5.027 -0.3231  0.0851 -0.3482
   57MOL    H2014692   5.367   4.008   5.033  0.1694 -1.1920 -1.8723
   57MOL    H2114693   5.347   3.854   5.305  0.8911  2.8487  3.2713
   57MOL    H2214694   5.440   4.034   5.414 -1.0038 -0.4285  0.1130
   57MOL    H2314695   5.445   4.131   5.253  0.9689  0.4544  1.9579
   57MOL    H2414696   5.614   3.961   5.165  1.9478 -2.7120  1.2969
   57MOL    H2514697   5.596   3.874   5.325  0.1883 -0.1179  0.9143
   57MOL    H2614698   5.234   3.733   5.068  0.1452 -0.8334 -1.0776
   57MOL    H2714699   5.404   3.754   5.026 -0.2153  0.2721  1.0438
   57MOL    C2814700   5.266   3.815   4.880  0.6504 -0.9522  0.7423
   57MOL    C2914701   5.197   3.684   4.828  0.5617 -0.3888 -0.5963
   57MOL    C3014702   5.068   3.625   4.888  0.5814 -0.4571  0.1837
   57MOL    C3114703   5.072   3.683   4.751 -0.4026  0.5994  0.4364
   57MOL    C3214704   5.381   3.862   4.790  0.1616  0.0739  0.3061
   57MOL    H3314705   5.189   3.891   4.877  0.3552 -1.2299  1.1159
   57MOL    H3414706   5.272   3.605   4.817  1.3583  0.4129 -1.0200
   57MOL    H3514707   5.009   3.681   4.960 -0.3229 -1.0216 -0.1166
   57MOL    H3614708   5.051   3.517   4.887 -0.3789 -0.3135 -1.3923
   57MOL    H3714709   5.019   3.778   4.745 -0.6112  0.4759  0.3208
   57MOL    H3814710   5.072   3.618   4.663  1.1032  1.6345 -0.3634
   57MOL    H3914711   5.441   3.771   4.780 -3.9002 -2.7295  0.0040
   57MOL    H4014712   5.446   3.940   4.828 -0.9748  0.4705  1.4609
   57MOL    C4114713   5.336   3.902   4.647 -0.2392 -0.6277 -0.2233
   57MOL    C4214714   5.459   3.919   4.557 -0.0753  0.7026  0.1024
   57MOL    C4314715   5.460   3.849   4.423 -0.4219 -0.2889  0.0044
   57MOL    C4414716   5.556   3.816   4.528 -0.0357 -0.2440 -0.0559
   57MOL    C4514717   5.245   4.032   4.633 -0.4791 -0.0409 -0.1945
   57MOL    H4614718   5.273   3.825   4.603  0.0573  0.0276 -1.8210
   57MOL    H4714719   5.491   4.023   4.564 -0.5788  0.7743  1.6238
   57MOL    H4814720   5.378   3.780   4.402 -0.1887 -0.1445 -1.4641
   57MOL    H4914721   5.486   3.909   4.336 -0.4640 -1.0386 -0.5360
   57MOL    H5014722   5.554   3.723   4.585  1.1287 -0.2918 -0.0695
   57MOL    H5114723   5.655   3.840   4.489 -0.4291 -2.1433 -2.3436
   57MOL    H5214724   5.304   4.123   4.640 -0.4954  0.0985 -1.6180
   57MOL    H5314725   5.175   4.035   4.716  2.4405 -1.7560  2.4381
   57MOL    C5414726   5.157   4.042   4.504 -0.3268  0.3324 -0.0341
   57MOL    C5514727   5.043   3.944   4.507 -0.3355  0.2541 -1.1870
   57MOL    C5614728   5.060   3.821   4.417  1.0019  0.7283 -0.2168
   57MOL    C5714729   4.968   3.929   4.376 -0.0417 -0.0528 -0.1867
   57MOL    C5814730   5.107   4.188   4.479  0.0767  0.4406  0.3099
   57MOL    H5914731   5.227   4.023   4.423 -1.0269 -0.4412 -0.4691
   57MOL    H6014732   4.977   3.951   4.593  1.0180  1.3856 -0.2153
   57MOL    H6114733   5.016   3.736   4.470 -2.8146  1.0531 -2.6988
   57MOL    H6214734   5.146   3.805   4.353 -0.3515 -0.3104 -1.8024
   57MOL    H6314735   4.860   3.920   4.385 -0.0510  1.4114  1.4467
   57MOL    H6414736   5.008   3.976   4.286  1.0694 -0.6402 -0.0163
   57MOL    H6514737   5.019   4.182   4.415  0.6548 -0.4402 -0.4165
   57MOL    H6614738   5.072   4.236   4.570  1.8079  0.6697  0.8680
   57MOL    C6714739   5.207   4.276   4.401 -0.0253 -0.1389 -0.0505
   57MOL    C6814740   5.218   4.247   4.251  0.7578 -0.2019 -0.2802
   57MOL    C6914741   5.331   4.298   4.163  0.4820  0.2900 -0.1705
   57MOL    C7014742   5.321   4.148   4.193  0.4381 -0.2375  0.6042
   57MOL    C7114743   5.164   4.417   4.427  0.7764 -0.3299 -0.8965
   57MOL    H7214744   5.307   4.263   4.442  0.2284  2.4514  0.2266
   57MOL    H7314745   5.123   4.255   4.199  1.2684 -3.1353 -1.7897
   57MOL    H7414746   5.303   4.344   4.068  0.1977  0.1457 -0.1581
   57MOL    H7514747   5.407   4.347   4.223  1.1860 -3.6016  2.3341
   57MOL    H7614748   5.388   4.105   4.268 -0.1349 -1.5310  0.3957
   57MOL    H7714749   5.307   4.096   4.098 -3.5316 -1.0919  1.5613
   57MOL    H7814750   5.056   4.420   4.436  0.8170 -0.5645 -0.2597
   57MOL    H7914751   5.188   4.487   4.347  2.2637  1.7379  1.2926
   57MOL    C8014752   5.228   4.478   4.555  0.0112 -0.4146  0.0983
   57MOL    C8114753   5.148   4.591   4.620 -0.9096  0.0634 -0.1320
   57MOL    C8214754   5.127   4.589   4.769 -0.5160  0.3987 -0.2767
   57MOL    C8314755   5.009   4.567   4.675  0.0201 -0.0929  0.6629
   57MOL    C8414756   5.377   4.514   4.539  0.1438  0.1985 -0.3268
   57MOL    H8514757   5.224   4.394   4.623 -1.3808 -2.6846 -2.6600
   57MOL    H8614758   5.165   4.689   4.576 -0.7366  0.2570  0.3621
   57MOL    H8714759   5.126   4.684   4.823 -3.4426  0.8040 -0.9303
   57MOL    H8814760   5.166   4.507   4.829  2.0986  0.8732 -1.2897
   57MOL    H8914761   4.973   4.465   4.680  1.0741 -0.7279 -3.3154
   57MOL    H9014762   4.929   4.641   4.675 -0.3723 -0.3245 -4.3301
   57MOL    H9114763   5.429   4.449   4.468  0.0146 -0.3235  0.0536
   57MOL    H9214764   5.384   4.610   4.488  0.4377  1.2271  1.6160
   57MOL    C9314765   5.458   4.510   4.674  0.6738 -0.1072  0.2282
   57MOL    C9414766   5.480   4.369   4.716  0.1850 -0.0988 -0.1689
   57MOL    C9514767   5.556   4.345   4.844 -0.2208 -0.1056 -0.2968
   57MOL    C9614768   5.412   4.308   4.835 -0.2276 -0.1146  0.7187
   57MOL    C9714769   5.594   4.587   4.655 -0.5815  0.3850  0.3350
   57MOL    H9814770   5.406   4.561   4.755 -1.6826 -1.2200 -0.5592
   57MOL    H9914771   5.508   4.302   4.634 -1.6993  1.1443 -1.8757
   57MOL   H10014772   5.638   4.273   4.845  0.0734  0.1480 -3.1488
   57MOL   H10114773   5.576   4.437   4.898  0.4871 -0.1343 -0.5056
   57MOL   H10214774   5.394   4.201   4.837 -2.3782  0.2142  0.9606
   57MOL   H10314775   5.329   4.361   4.882 -0.3286  0.0219  0.3868
   57MOL   H10414776   5.626   4.572   4.552  0.1104  0.3711  0.5514
   57MOL   H10514777   5.671   4.536   4.712 -0.6251  1.0155  0.9591
   57MOL   C10614778   5.586   4.738   4.696 -0.4037  0.4139 -0.2948
   57MOL   C10714779   5.486   4.820   4.625  0.1044 -0.3405 -0.1189
   57MOL   C10814780   5.498   4.971   4.595 -0.1664  0.5586  0.3795
   57MOL   C10914781   5.513   4.868   4.486 -0.3760 -0.4791 -0.1919
   57MOL   C11014782   5.581   4.762   4.853  0.1866  0.6456  0.4012
   57MOL   H11114783   5.675   4.793   4.666 -1.4335  0.6332 -3.1006
   57MOL   H11214784   5.386   4.783   4.646 -0.4243  1.4231  0.6164
   57MOL   H11314785   5.413   5.038   4.582  0.5092  1.3240 -0.1856
   57MOL   H11414786   5.588   5.021   4.630 -0.8978 -0.3961  3.8094
   57MOL   H11514787   5.614   4.845   4.453  1.1874  2.0851  2.5323
   57MOL   H11614788   5.433   4.849   4.414 -0.8290  0.1588  0.1308
   57MOL   H11714789   5.533   4.858   4.870 -2.8356 -0.6909 -0.1481
   57MOL   H11814790   5.510   4.694   4.900 -0.6212 -0.5451 -2.4039
   57MOL   C11914791   5.704   4.756   4.936  0.8573 -0.1951  1.2363
   57MOL   C12014792   5.804   4.870   4.895  0.5074 -0.2473  0.5413
   57MOL   C12114793   5.908   4.876   4.783 -0.0797  0.4370  0.6036
   57MOL   C12214794   5.948   4.860   4.925 -0.6460  0.0173  0.4757
   57MOL   C12314795   5.674   4.773   5.089 -0.0390  0.7437  0.3849
   57MOL   H12414796   5.739   4.656   4.912 -0.3432 -0.4577  0.5572
   57MOL   H12514797   5.753   4.964   4.918 -0.6108 -0.6261 -0.3151
   57MOL   H12614798   5.945   4.965   4.732 -0.9843  0.0855 -0.7114
   57MOL   H12714799   5.914   4.783   4.727 -0.7706  0.7165  0.0546
   57MOL   H12814800   5.999   4.769   4.956 -1.6638 -0.5137  0.6411
   57MOL   H12914801   5.982   4.945   4.983  0.0805 -0.8880  1.4023
   57MOL   H13014802   5.772   4.784   5.135  1.5771 -4.5818 -1.3165
   57MOL   H13114803   5.622   4.867   5.108 -0.9561  0.1974  0.6112
   57MOL   C13214804   5.594   4.657   5.154 -0.3008 -0.1813 -0.3816
   57MOL   C13314805   5.462   4.706   5.217 -0.0536 -0.3132  0.2653
   57MOL   C13414806   5.346   4.614   5.238  0.2973 -0.5413 -0.1406
   57MOL   C13514807   5.338   4.732   5.142  0.2378  0.4731  0.2038
   57MOL   C13614808   5.669   4.571   5.265  0.7937 -0.6408  0.7632
   57MOL   H13714809   5.573   4.595   5.067  2.3083  1.1983 -2.0441
   57MOL   H13814810   5.481   4.777   5.297 -2.4078  1.1095 -0.3742
   57MOL   H13914811   5.363   4.516   5.194  0.1311 -0.4852 -0.3290
   57MOL   H14014812   5.285   4.623   5.327  1.2589 -0.9104  0.5666
   57MOL   H14114813   5.322   4.707   5.037  1.4680  0.9352 -0.1126
   57MOL   H14214814   5.279   4.816   5.179 -0.5436  0.1206 -0.2318
   57MOL   H14314815   5.692   4.642   5.345 -0.1409 -0.6816  1.0736
   57MOL   H14414816   5.598   4.497   5.302 -1.8931  0.3953 -2.1088
   57MOL   C14514817   5.799   4.499   5.218 -0.7019 -0.1356 -0.4668
   57MOL   C14614818   5.884   4.475   5.345  0.0102  0.1120 -0.0417
   57MOL   C14714819   6.036   4.480   5.339  0.1841  0.1864  0.2480
   57MOL   C14814820   5.957   4.590   5.410  0.7626 -0.3285 -0.3479
   57MOL   C14914821   5.774   4.364   5.156  0.2182  0.0907  0.1435
   57MOL   H15014822   5.864   4.560   5.157 -0.1909 -1.0312 -0.8303
   57MOL   H15114823   5.836   4.409   5.417 -0.3979 -1.1732 -1.4633
   57MOL   H15214824   6.083   4.405   5.402 -2.7352 -2.4931 -0.6172
   57MOL   H15314825   6.092   4.499   5.248  0.8251 -1.6165  0.2411
   57MOL   H15414826   5.962   4.684   5.355  0.0883  0.5292  1.0215
   57MOL   H15514827   5.968   4.591   5.518 -1.3632  0.4112 -0.1144
   57MOL   H15614828   5.745   4.292   5.232  1.7819 -0.1082  0.5715
   57MOL   H15714829   5.694   4.376   5.082  0.3051 -0.1962  0.0013
   57MOL   C15814830   5.895   4.292   5.088 -0.2373  0.2496 -0.3730
   57MOL   C15914831   5.927   4.356   4.959 -1.2968 -0.0813  0.2788
   57MOL   C16014832   6.014   4.482   4.936  0.0568  0.2807 -0.8835
   57MOL   C16114833   6.058   4.346   4.892 -0.5807  0.1788 -0.2587
   57MOL   C16214834   5.844   4.143   5.064 -0.2712 -0.1105 -0.2093
   57MOL   H16314835   5.986   4.301   5.148 -0.4806 -0.8588  0.1757
   57MOL   H16414836   5.852   4.339   4.883  0.0418 -0.3951 -0.9895
   57MOL   H16514837   6.057   4.517   5.030 -1.0009 -0.1715 -0.2166
   57MOL   H16614838   5.983   4.556   4.863 -2.3908 -1.7672 -1.9943
   57MOL   H16714839   6.052   4.331   4.784 -0.4312 -0.1241 -0.2231
   57MOL   H16814840   6.134   4.298   4.952 -4.6402 -0.5374  4.6033
   57MOL   H16914841   5.749   4.141   5.011  0.1822 -2.8010 -0.9814
   57MOL   H17014842   5.823   4.087   5.156  0.3441 -1.6586 -0.9866
   57MOL   C17114843   5.944   4.054   4.986  0.1991  0.0736 -0.2129
   57MOL   C17214844   6.026   3.983   5.089 -0.5771 -0.1930 -0.6616
   57MOL   C17314845   6.159   3.928   5.055  0.1406  0.2408  0.2857
   57MOL   C17414846   6.145   4.045   5.153 -0.0641  0.2835  0.4242
   57MOL   C17514847   5.858   3.949   4.908  0.0443 -0.4840 -0.2183
   57MOL   H17614848   6.012   4.111   4.922  0.9175 -2.0231 -1.3578
   57MOL   H17714849   5.979   3.924   5.168 -1.5880  0.6893 -0.5996
   57MOL   H17814850   6.199   3.833   5.089 -0.4768 -0.2316 -0.3067
   57MOL   H17914851   6.206   3.951   4.959  1.7829 -1.5007  0.6302
   57MOL   H18014852   6.177   4.146   5.128 -0.9796  0.1332 -1.4449
   57MOL   H18114853   6.189   4.003   5.243  0.6997 -0.8801 -0.4573
   57MOL   H18214854   5.780   4.004   4.855 -0.9455 -0.1843  1.5168
   57MOL   H18314855   5.811   3.882   4.980  0.0564 -0.2620 -0.0048
   57MOL   C18414856   5.945   3.872   4.805  1.0431  0.1196  0.0398
   57MOL   C18514857   5.982   3.973   4.697  0.8892  0.2505 -0.4882
   57MOL   C18614858   5.890   4.024   4.588 -0.4208 -0.0827  0.2325
   57MOL   C18714859   6.012   3.943   4.549  0.0751 -0.0994 -0.7454
   57MOL   C18814860   5.880   3.750   4.748 -0.0110 -0.1378 -0.0023
   57MOL   H18914861   6.045   3.841   4.837  1.1819  0.4758 -0.0577
   57MOL   H19014862   6.055   4.042   4.738  0.4494  0.6404 -0.3577
   57MOL   H19114863   5.893   4.132   4.577  0.6785 -0.3171 -1.8765
   57MOL   H19214864   5.792   3.980   4.569  0.1492 -2.0934  1.7137
   57MOL   H19314865   6.093   4.005   4.510  0.6816 -0.0253  0.6048
   57MOL   H19414866   6.014   3.849   4.495  0.9116  1.0963 -2.8361
   57MOL   H19514867   5.927   3.740   4.651 -0.4240  0.5281 -0.2762
   57MOL   H19614868   5.777   3.764   4.714 -0.8558  0.7165  2.7810
   57MOL   C19714869   5.897   3.615   4.813 -0.0617 -0.0201  0.1265
   57MOL   C19814870   5.819   3.604   4.940  0.3035 -0.4403  0.0520
   57MOL   C19914871   5.726   3.487   4.963 -1.0955 -0.2938  0.1202
   57MOL   C20014872   5.668   3.622   4.923  0.0639 -0.0162 -0.6904
   57MOL   C20114873   6.044   3.570   4.838  0.7046  0.0050 -0.5311
   57MOL   H20214874   5.853   3.550   4.738  0.3527 -0.7548  0.5151
   57MOL   H20314875   5.863   3.646   5.031  1.0465  0.1045 -0.5525
   57MOL   H20414876   5.734   3.405   4.892 -0.9685 -1.0589  1.0102
   57MOL   H20514877   5.692   3.454   5.061 -1.9030 -0.0968 -0.0882
   57MOL   H20614878   5.630   3.643   4.824 -2.0458 -0.9247 -0.0960
   57MOL   H20714879   5.608   3.676   4.997  2.4580 -0.1180  1.4034
   57MOL   H20814880   6.091   3.638   4.909 -0.6233 -0.3911  0.7500
   57MOL   H20914881   6.037   3.474   4.890 -0.7393  0.6397  0.4879
   57MOL   C21014882   6.138   3.554   4.718  0.6686 -0.0614 -0.1704
   57MOL   C21114883   6.292   3.571   4.757 -0.5567 -0.3419  0.7951
   57MOL   C21214884   6.393   3.602   4.654  0.2607  0.6282 -0.6788
   57MOL   C21314885   6.367   3.708   4.763 -0.0348  0.0192  0.2655
   57MOL   C21414886   6.111   3.427   4.634 -0.2985  0.3215 -0.1624
   57MOL   H21514887   6.116   3.644   4.661 -3.9962 -0.3693  0.9429
   57MOL   H21614888   6.322   3.483   4.812  2.7864 -0.8814 -1.7212
   57MOL   H21714889   6.496   3.567   4.644 -0.0984 -0.4535 -0.6363
   57MOL   H21814890   6.362   3.629   4.554 -0.0496  3.0198  0.0215
   57MOL   H21914891   6.452   3.721   4.829 -0.8821 -0.2131  1.4309
   57MOL   H22014892   6.322   3.802   4.730 -0.6929 -0.7711 -1.1296
   57MOL   H22114893   6.207   3.384   4.603  1.0044  3.6012 -0.8560
   57MOL   H22214894   6.063   3.354   4.699 -2.1351  0.1165 -1.7181
   57MOL   C22314895   6.029   3.450   4.508  0.1632 -0.0897  0.8451
   57MOL   C22414896   5.985   3.310   4.472  0.8670  0.8927  0.2498
   57MOL   C22514897   5.865   3.258   4.543  0.5058 -0.8629 -0.4491
   57MOL   C22614898   5.858   3.297   4.394 -0.2739 -0.6390  0.3400
   57MOL   C22714899   6.119   3.511   4.391 -0.6707 -0.0024 -0.5639
   57MOL   H22814900   5.943   3.512   4.533  1.5052  2.2822 -0.2160
   57MOL   H22914901   6.060   3.233   4.458  0.1774 -0.0191  1.5483
   57MOL   H23014902   5.833   3.314   4.631 -0.5709  2.1709 -2.6790
   57MOL   H23114903   5.858   3.152   4.565  1.0875 -0.8228 -0.0532
   57MOL   H23214904   5.857   3.207   4.332 -0.0079  0.0144 -0.6340
   57MOL   H23314905   5.805   3.387   4.362 -0.4555 -0.8271  0.1064
   57MOL   H23414906   6.173   3.594   4.437  0.5042 -1.9893  1.7740
   57MOL   H23514907   6.188   3.433   4.361  1.5414  1.5199  0.4429
   57MOL   C23614908   6.056   3.547   4.255  0.3320  0.2612  0.1634
   57MOL   C23714909   6.166   3.613   4.173 -0.3490  0.2797 -0.3565
   57MOL   C23814910   6.286   3.543   4.114  0.0884 -0.3161 -0.2853
   57MOL   C23914911   6.173   3.590   4.020  0.4978  0.2709 -0.1154
   57MOL   C24014912   5.944   3.648   4.263  1.2042 -0.3786  0.2622
   57MOL   H24114913   6.021   3.454   4.209 -0.2350 -0.0843  1.2659
   57MOL   H24214914   6.183   3.718   4.199  2.3238 -0.1783 -0.1003
   57MOL   H24314915   6.386   3.578   4.090  1.1455 -1.6473  2.0009
   57MOL   H24414916   6.292   3.437   4.139  0.0282 -0.7911 -2.2160
   57MOL   H24514917   6.108   3.509   3.988 -0.3041  1.7250 -2.2444
   57MOL   H24614918   6.197   3.671   3.952 -1.2462  0.7554 -0.1817
   57MOL   H24714919   5.877   3.627   4.346 -1.4609  1.1847 -1.3968
   57MOL   H24814920   5.981   3.746   4.293  1.0318  0.4636 -2.1135
   57MOL   C24914921   5.860   3.666   4.133  0.6529 -0.8255  0.1137
   57MOL   C25014922   5.743   3.755   4.170  0.5935  0.5804  0.0850
   57MOL   C25114923   5.762   3.908   4.172  0.4598  0.6527 -0.8114
   57MOL   C25214924   5.690   3.849   4.054  0.4320  0.2296 -0.5033
   57MOL   C25314925   5.806   3.536   4.072 -0.3647 -0.1158 -0.4763
   57MOL   H25414926   5.923   3.724   4.066  0.9327  3.3204  3.7492
   57MOL   H25514927   5.670   3.707   4.235  0.5416 -1.8239 -1.6792
   57MOL   H25614928   5.706   3.960   4.249  2.4308  0.8339  0.5283
   57MOL   H25714929   5.863   3.947   4.164  0.3971  0.5621 -2.1368
   57MOL   H25814930   5.584   3.867   4.044  0.6001  1.6526  0.1659
   57MOL   H25914931   5.744   3.854   3.959  2.8966  0.6292  0.8710
   57MOL   H26014932   5.750   3.481   4.148  1.0566 -0.1611  0.5748
   57MOL   H26114933   5.886   3.467   4.045  0.5078 -0.0184  1.7451
   57MOL   H26214934   5.745   3.559   3.985 -1.1791 -0.1179  0.0855
   58MOL     C114935   2.065   2.392   0.648  0.2436 -0.4450  0.8200
   58MOL     C214936   2.082   2.247   0.603  0.1385 -0.5589  0.4245
   58MOL     C314937   2.099   2.141   0.718  0.0506  0.3330  0.1572
   58MOL     C414938   2.207   2.172   0.611  0.9168  0.3826 -0.1644
   58MOL     C514939   1.925   2.441   0.632 -0.8682  0.3210 -0.3456
   58MOL     H614940   2.090   2.400   0.754  1.0727  0.4354  0.5650
   58MOL     H714941   2.011   2.226   0.523  2.3191  0.3478 -1.7895
   58MOL     H814942   2.137   2.170   0.815  0.2823  1.8901 -0.3829
   58MOL     H914943   2.034   2.054   0.712  1.4650 -0.7130 -0.5783
   58MOL    H1014944   2.219   2.100   0.531 -0.3761  0.1669 -0.1710
   58MOL    H1114945   2.294   2.230   0.642 -0.3375  1.3093  1.7178
   58MOL    H1214946   1.857   2.378   0.690 -1.3803  1.7299  0.6207
   58MOL    H1314947   1.896   2.418   0.529  0.0547  0.2405 -0.5860
   58MOL    H1414948   2.136   2.444   0.583 -0.6690 -0.7519 -0.4452
   58MOL    C1514949   1.897   2.591   0.667 -0.3217 -0.3829  0.9259
   58MOL    C1614950   1.999   2.689   0.600  0.2815 -0.2790  0.3226
   58MOL    C1714951   2.138   2.719   0.654 -0.4231 -1.1228 -0.1287
   58MOL    C1814952   2.033   2.823   0.656 -0.1997  0.3590  0.6998
   58MOL    C1914953   1.753   2.632   0.633  0.2557  0.1303  0.2499
   58MOL    H2014954   1.928   2.596   0.772 -0.3905 -0.0380  0.9304
   58MOL    H2114955   2.006   2.674   0.492 -0.2647  0.7562  0.1295
   58MOL    H2214956   2.208   2.728   0.571  0.1733 -1.8648  0.2899
   58MOL    H2314957   2.161   2.678   0.752 -1.4398 -1.7843 -0.1691
   58MOL    H2414958   1.995   2.849   0.755 -0.6789 -0.4766  0.7411
   58MOL    H2514959   2.039   2.908   0.588  0.0764  0.8794  1.3682
   58MOL    H2614960   1.719   2.612   0.531  1.7502  0.1791 -0.2761
   58MOL    H2714961   1.755   2.740   0.619 -0.5210 -0.2688 -3.6042
   58MOL    C2814962   1.653   2.595   0.743  0.5804  0.9443 -0.0252
   58MOL    C2914963   1.512   2.603   0.684 -0.0954  0.0992 -0.2913
   58MOL    C3014964   1.437   2.484   0.632  0.1578  0.4035 -0.1373
   58MOL    C3114965   1.399   2.545   0.767  0.0851  0.4326 -0.3500
   58MOL    C3214966   1.665   2.678   0.871  0.2337 -0.3739 -1.3380
   58MOL    H3314967   1.678   2.490   0.763  1.1448  0.9601 -0.6485
   58MOL    H3414968   1.491   2.696   0.632 -2.6097  0.1246  0.7137
   58MOL    H3514969   1.495   2.393   0.614 -2.4583 -1.4328  0.3943
   58MOL    H3614970   1.381   2.503   0.541 -1.5106 -0.9927  0.5656
   58MOL    H3714971   1.411   2.488   0.859 -3.0692  1.8967  1.0373
   58MOL    H3814972   1.298   2.584   0.763 -0.2509 -0.2837  0.7175
   58MOL    H3914973   1.569   2.702   0.917 -0.2916 -3.2354 -0.8278
   58MOL    H4014974   1.716   2.769   0.840 -1.9967  1.1911 -0.5111
   58MOL    C4114975   1.748   2.618   0.986 -0.6246  0.0576  0.0861
   58MOL    C4214976   1.664   2.537   1.081 -0.1136 -0.7009 -0.6132
   58MOL    C4314977   1.716   2.430   1.182  0.5263 -0.0131 -0.0857
   58MOL    C4414978   1.626   2.393   1.068  0.0178 -0.2794  0.1593
   58MOL    C4514979   1.820   2.733   1.061 -0.0934  0.4928  0.1373
   58MOL    H4614980   1.819   2.546   0.946  0.6147  0.0946  2.1403
   58MOL    H4714981   1.578   2.598   1.109  0.4389 -0.2970  0.2116
   58MOL    H4814982   1.819   2.396   1.180  0.6398  0.1949  1.5896
   58MOL    H4914983   1.666   2.440   1.279 -1.4534  0.0377 -1.0803
   58MOL    H5014984   1.524   2.363   1.091  0.4554 -1.5736  0.4468
   58MOL    H5114985   1.664   2.345   0.978  0.7079 -1.3605  1.0228
   58MOL    H5214986   1.738   2.786   1.109 -0.9149 -0.8689  0.2664
   58MOL    H5314987   1.867   2.793   0.983  0.7945 -0.0999  0.2156
   58MOL    C5414988   1.934   2.691   1.161  0.1430  1.1264  0.1998
   58MOL    C5514989   2.048   2.640   1.087  0.8977 -0.3432  0.4338
   58MOL    C5614990   2.092   2.510   1.018  0.0222  0.4953 -0.6072
   58MOL    C5714991   2.155   2.552   1.147 -0.2896 -0.0649  0.2378
   58MOL    C5814992   1.977   2.800   1.255 -0.2410  0.7908 -0.4021
   58MOL    H5914993   1.906   2.607   1.223  0.8180  0.5828 -0.2281
   58MOL    H6014994   2.092   2.722   1.030  1.1160 -1.0468 -0.4089
   58MOL    H6114995   2.020   2.429   1.014 -0.3257  0.7050  0.9074
   58MOL    H6214996   2.164   2.504   0.937  0.1598 -1.2342 -0.3694
   58MOL    H6314997   2.254   2.597   1.139 -1.6239  3.0931  0.4687
   58MOL    H6414998   2.127   2.492   1.234  0.1730  0.0779  0.4837
   58MOL    H6514999   2.076   2.778   1.296 -0.5964 -0.2737 -0.0921
   58MOL    H6615000   1.985   2.895   1.203  0.5666  1.4592  0.9465
   58MOL    C6715001   1.884   2.810   1.377  0.0610 -0.6692 -0.2467
   58MOL    C6815002   1.741   2.857   1.350 -0.6407  0.1325 -0.0140
   58MOL    C6915003   1.676   2.959   1.438 -0.6935  0.0620 -0.0622
   58MOL    C7015004   1.713   3.002   1.302 -0.2413  0.0423 -0.0354
   58MOL    C7115005   1.879   2.695   1.478  0.3069 -0.5055 -0.4492
   58MOL    H7215006   1.925   2.894   1.433 -3.0664  1.1243 -0.4747
   58MOL    H7315007   1.673   2.779   1.318  0.0200 -0.2546 -0.4781
   58MOL    H7415008   1.578   2.925   1.473  0.0726 -1.1145  0.9512
   58MOL    H7515009   1.742   3.006   1.511 -0.3039 -0.8032  0.1481
   58MOL    H7615010   1.800   3.067   1.292 -0.1283  0.1408  1.4207
   58MOL    H7715011   1.634   3.017   1.229 -1.4876  0.0588  1.2913
   58MOL    H7815012   1.837   2.606   1.430 -0.6611  0.5230 -1.5505
   58MOL    H7915013   1.813   2.722   1.560  1.1688 -0.3967  0.2237
   58MOL    C8015014   2.011   2.641   1.552  0.7306  0.4920 -0.0681
   58MOL    C8115015   1.965   2.505   1.609 -0.1242  0.7834 -0.3607
   58MOL    C8215016   2.048   2.394   1.667  0.3292  0.2534 -0.1946
   58MOL    C8315017   1.982   2.383   1.527 -0.3317 -1.3364 -0.0412
   58MOL    C8415018   2.059   2.736   1.671  1.1122 -0.4303 -0.2220
   58MOL    H8515019   2.093   2.637   1.480 -0.1107  1.3761 -1.0747
   58MOL    H8615020   1.876   2.522   1.669  0.9522  2.2316  0.8853
   58MOL    H8715021   2.012   2.355   1.762 -0.1453  1.1507 -0.0000
   58MOL    H8815022   2.153   2.419   1.671  0.4274  0.1873 -2.2047
   58MOL    H8915023   2.051   2.383   1.443  0.5017 -0.3658  0.6326
   58MOL    H9015024   1.893   2.322   1.513 -0.1557 -1.5516 -0.2227
   58MOL    H9115025   1.972   2.776   1.722 -1.6673 -2.4640 -3.1864
   58MOL    H9215026   2.111   2.669   1.739  1.7470  0.4685  0.1875
   58MOL    C9315027   2.162   2.845   1.642  0.0155 -0.3672  0.5401
   58MOL    C9415028   2.122   2.988   1.683  0.4122 -0.4136  0.6300
   58MOL    C9515029   1.977   3.042   1.686 -0.3645 -0.1511  0.3074
   58MOL    C9615030   2.054   3.032   1.814 -0.3609  0.5101 -0.3744
   58MOL    C9715031   2.294   2.799   1.703 -0.6203 -0.5293  0.2254
   58MOL    H9815032   2.172   2.842   1.533 -0.6955 -0.7844  0.4843
   58MOL    H9915033   2.191   3.066   1.651 -1.8579  1.5725  0.4588
   58MOL   H10015034   1.966   3.135   1.631 -1.8450  0.3158  1.3741
   58MOL   H10115035   1.883   2.988   1.692 -0.6593  0.1511 -1.2867
   58MOL   H10215036   2.091   3.120   1.868 -4.3413  1.5434  0.8031
   58MOL   H10315037   2.034   2.945   1.876 -2.9797  1.0620 -0.4052
   58MOL   H10415038   2.270   2.779   1.808  0.5291  0.3864  0.6779
   58MOL   H10515039   2.358   2.887   1.710 -1.8737  0.2322  2.5972
   58MOL   C10615040   2.374   2.689   1.620  0.7945  0.3659 -0.4350
   58MOL   C10715041   2.449   2.744   1.510  0.4898  0.5906 -0.1690
   58MOL   C10815042   2.526   2.655   1.415  0.1180 -0.5386  0.2691
   58MOL   C10915043   2.399   2.730   1.373  0.0946 -0.0546 -0.2991
   58MOL   C11015044   2.470   2.601   1.706 -0.4334 -0.0038  0.7040
   58MOL   H11115045   2.299   2.620   1.582  0.1227  0.6398  0.3883
   58MOL   H11215046   2.497   2.838   1.536 -0.6444  0.5142  2.3849
   58MOL   H11315047   2.621   2.697   1.380 -0.4417 -2.2001 -3.5164
   58MOL   H11415048   2.510   2.548   1.419 -1.2510 -0.3876 -0.7613
   58MOL   H11515049   2.312   2.671   1.345 -1.2502  2.0113 -0.5910
   58MOL   H11615050   2.407   2.816   1.307 -0.7776  0.7199  0.5834
   58MOL   H11715051   2.526   2.522   1.656  0.7246  0.3528  1.4301
   58MOL   H11815052   2.548   2.661   1.752  0.0333  1.1111 -1.4921
   58MOL   C11915053   2.400   2.528   1.823  0.4136  0.3107  0.1113
   58MOL   C12015054   2.453   2.390   1.838 -1.1265 -0.5207 -0.0095
   58MOL   C12115055   2.408   2.280   1.736 -0.1879  0.5713  0.0313
   58MOL   C12215056   2.352   2.280   1.873  0.2149 -0.0475 -0.2190
   58MOL   C12315057   2.429   2.606   1.964  0.6813  0.0797 -0.4679
   58MOL   H12415058   2.294   2.523   1.798  0.2627 -1.9085  1.1210
   58MOL   H12515059   2.557   2.382   1.869 -1.0674 -0.2855 -0.1480
   58MOL   H12615060   2.473   2.195   1.715 -0.4161  0.3709  0.1373
   58MOL   H12715061   2.321   2.287   1.672  0.9489  0.2077 -1.5823
   58MOL   H12815062   2.248   2.311   1.883  0.4597  1.0527 -0.8775
   58MOL   H12915063   2.382   2.192   1.930 -1.4209 -0.8994 -0.6455
   58MOL   H13015064   2.525   2.571   2.000  0.2217 -2.1275 -1.2910
   58MOL   H13115065   2.443   2.713   1.947 -1.5797  0.1173 -2.3972
   58MOL   C13215066   2.332   2.575   2.076 -0.3533  0.4968  0.6384
   58MOL   C13315067   2.193   2.604   2.043  0.2740  0.3737 -0.2504
   58MOL   C13415068   2.143   2.748   2.049  0.5879 -0.1113  0.3251
   58MOL   C13515069   2.091   2.645   2.142  0.2097  0.0200 -0.1294
   58MOL   C13615070   2.372   2.629   2.210 -0.2591 -0.3114 -0.2724
   58MOL   H13715071   2.323   2.467   2.092  1.4837  0.1015 -0.9097
   58MOL   H13815072   2.154   2.547   1.959  0.4556  2.3996 -1.7393
   58MOL   H13915073   2.212   2.827   2.077 -1.6188  1.4448  1.5987
   58MOL   H14015074   2.072   2.779   1.973 -0.9638 -0.5772  1.5595
   58MOL   H14115075   2.112   2.647   2.249 -0.5559 -3.1840  0.1316
   58MOL   H14215076   1.986   2.621   2.126  0.5880 -0.1595 -2.5398
   58MOL   H14315077   2.481   2.632   2.208 -0.2900  0.1018 -3.3815
   58MOL   H14415078   2.345   2.733   2.226  1.0440  0.2312 -1.4919
   58MOL   C14515079   2.351   2.539   2.341  0.0012 -0.3576 -0.1459
   58MOL   C14615080   2.444   2.422   2.341 -0.1134 -0.7449 -0.5109
   58MOL   C14715081   2.436   2.294   2.427  0.1916  0.6356 -0.1847
   58MOL   C14815082   2.418   2.299   2.275  0.4470 -0.4584  0.4087
   58MOL   C14915083   2.392   2.614   2.473 -0.1153  0.1906 -0.3793
   58MOL   H15015084   2.250   2.502   2.355 -0.0439 -0.6633 -1.2356
   58MOL   H15115085   2.545   2.462   2.339  0.4490 -2.1596 -0.4963
   58MOL   H15215086   2.535   2.279   2.470 -0.4999  1.3345  1.6881
   58MOL   H15315087   2.362   2.299   2.506  0.9955 -1.4767  0.7379
   58MOL   H15415088   2.491   2.243   2.218  0.8939 -0.9820  1.4889
   58MOL   H15515089   2.317   2.289   2.237 -0.1522 -0.4295  1.9551
   58MOL   H15615090   2.391   2.535   2.548 -1.6201  1.2830  0.7788
   58MOL   H15715091   2.496   2.645   2.460 -0.2460  0.2771 -1.2356
   58MOL   C15815092   2.292   2.722   2.524 -0.0326 -0.1817 -0.4202
   58MOL   C15915093   2.356   2.823   2.621 -0.5516 -0.6741 -0.5579
   58MOL   C16015094   2.452   2.931   2.569  0.2825 -0.0706 -0.2677
   58MOL   C16115095   2.317   2.975   2.630  0.0488 -0.0853  0.6439
   58MOL   C16215096   2.169   2.646   2.581  0.4557  0.5827 -0.2148
   58MOL   H16315097   2.268   2.782   2.436 -0.1444 -0.9017 -0.8873
   58MOL   H16415098   2.389   2.776   2.713  0.9502 -1.5319 -1.5058
   58MOL   H16515099   2.458   2.957   2.464  4.0145 -1.5549 -0.5146
   58MOL   H16615100   2.547   2.946   2.621 -0.1304 -0.8504  0.7200
   58MOL   H16715101   2.315   3.014   2.732  1.2668  1.9222 -0.0788
   58MOL   H16815102   2.243   3.002   2.555 -0.5547 -1.4450  0.7256
   58MOL   H16915103   2.206   2.606   2.676 -1.6835  1.0190  0.8344
   58MOL   H17015104   2.137   2.571   2.509  2.1840  0.5814 -1.0055
   58MOL   C17115105   2.049   2.738   2.609  0.0478  0.1020 -0.2859
   58MOL   C17215106   1.967   2.767   2.484 -0.1804 -0.1139 -0.1193
   58MOL   C17315107   1.868   2.872   2.459  0.3320 -0.1591 -0.1379
   58MOL   C17415108   2.003   2.883   2.394  0.6440 -0.0734 -0.5941
   58MOL   C17515109   1.959   2.660   2.708 -0.1874  0.1907 -0.0677
   58MOL   H17615110   2.094   2.828   2.651  1.4935 -0.2596 -0.9969
   58MOL   H17715111   1.943   2.671   2.439  0.0469  0.2006 -0.9324
   58MOL   H17815112   1.780   2.850   2.399 -0.6983 -2.0257  1.9885
   58MOL   H17915113   1.854   2.957   2.525  3.8454  1.1713 -0.9973
   58MOL   H18015114   2.075   2.955   2.433  1.1446  0.1854 -1.9567
   58MOL   H18115115   1.998   2.866   2.287  0.5032 -0.5661 -0.5123
   58MOL   H18215116   2.013   2.597   2.778 -1.0304 -0.1276  0.3018
   58MOL   H18315117   1.880   2.603   2.658  1.0288 -1.7331  0.1310
   58MOL   C18415118   1.875   2.754   2.799  1.0650 -0.4433  0.4800
   58MOL   C18515119   1.961   2.857   2.867 -0.1228 -0.2040  0.0900
   58MOL   C18615120   1.892   2.977   2.929 -0.1236 -0.0293  0.3374
   58MOL   C18715121   1.999   2.997   2.812 -0.4718 -0.1931 -0.9092
   58MOL   C18815122   1.790   2.685   2.907 -0.2525  0.2617 -0.1712
   58MOL   H18915123   1.807   2.816   2.741  0.2015 -0.4337  1.4720
   58MOL   H19015124   2.039   2.805   2.922 -2.8063 -2.7486  1.5962
   58MOL   H19115125   1.926   3.008   3.028 -1.1782 -2.4195  1.5099
   58MOL   H19215126   1.788   2.994   2.903 -0.7839 -0.9796  2.2629
   58MOL   H19315127   2.096   3.044   2.828 -0.0029 -1.5885  0.5369
   58MOL   H19415128   1.943   3.045   2.732  0.3959  0.9074 -0.8762
   58MOL   H19515129   1.735   2.760   2.964 -0.9654 -1.2078  1.1101
   58MOL   H19615130   1.853   2.634   2.980 -0.3926 -0.1453 -0.3383
   58MOL   C19715131   1.676   2.587   2.859 -0.1585  0.3038  0.0311
   58MOL   C19815132   1.554   2.663   2.804  0.0127 -0.6970 -0.3921
   58MOL   C19915133   1.466   2.596   2.703  0.0146 -0.2458 -1.3661
   58MOL   C20015134   1.562   2.708   2.659  0.2770 -0.0820 -0.2565
   58MOL   C20115135   1.634   2.490   2.971 -0.7203 -0.3211  0.5469
   58MOL   H20215136   1.724   2.529   2.781  0.4696 -1.3207  1.5875
   58MOL   H20315137   1.499   2.728   2.872 -2.5873  0.6081 -3.6027
   58MOL   H20415138   1.484   2.495   2.669  1.2333 -0.2299 -0.8069
   58MOL   H20515139   1.360   2.623   2.709  0.1463  0.2626 -1.2886
   58MOL   H20615140   1.641   2.673   2.594 -0.7336  1.3495 -2.3074
   58MOL   H20715141   1.513   2.800   2.627  1.8207  0.6113 -0.6318
   58MOL   H20815142   1.708   2.492   3.051  2.5378  0.1859 -2.3985
   58MOL   H20915143   1.536   2.518   3.011 -0.3634 -0.2306  1.3744
   58MOL   C21015144   1.614   2.338   2.924 -0.5040 -0.5872  0.0812
   58MOL   C21115145   1.736   2.286   2.851 -0.5285  0.1815 -0.1028
   58MOL   C21215146   1.733   2.149   2.791 -0.4121 -0.1845 -0.1410
   58MOL   C21315147   1.728   2.263   2.698 -0.5778 -0.3346 -0.7656
   58MOL   C21415148   1.577   2.246   3.051  0.2267 -0.0163  0.2963
   58MOL   H21515149   1.525   2.348   2.862 -0.6555  0.6333  0.4817
   58MOL   H21615150   1.832   2.308   2.896 -0.3916 -0.1314 -0.2349
   58MOL   H21715151   1.824   2.091   2.799  0.8562  1.7849  0.0094
   58MOL   H21815152   1.642   2.090   2.795 -0.3538 -0.4792 -2.5355
   58MOL   H21915153   1.820   2.275   2.641  0.8050 -2.0688  1.0552
   58MOL   H22015154   1.635   2.293   2.650 -2.1575  0.5517  2.7515
   58MOL   H22115155   1.580   2.140   3.029  1.0346 -0.1859  1.1733
   58MOL   H22215156   1.660   2.255   3.121  0.6708  2.8827 -0.5486
   58MOL   C22315157   1.442   2.281   3.114  0.9055 -0.4529  0.1259
   58MOL   C22415158   1.419   2.224   3.257 -0.0979 -0.3284  0.5066
   58MOL   C22515159   1.495   2.274   3.372  0.8135  0.2919 -0.3721
   58MOL   C22615160   1.347   2.304   3.370 -0.2332 -0.2452  0.6128
   58MOL   C22715161   1.318   2.246   3.016 -0.2331 -0.5721 -0.2267
   58MOL   H22815162   1.451   2.389   3.121 -2.4278  0.1263 -2.9807
   58MOL   H22915163   1.386   2.121   3.266  1.3331 -0.6384  2.6298
   58MOL   H23015164   1.571   2.349   3.353  1.1238  0.6882  2.1851
   58MOL   H23115165   1.524   2.198   3.445 -0.2154  0.8617  0.6582
   58MOL   H23215166   1.288   2.248   3.442 -3.3629 -2.5768 -3.5374
   58MOL   H23315167   1.338   2.413   3.368  0.2230 -0.2147 -0.8895
   58MOL   H23415168   1.331   2.244   2.908  1.8635  0.3505 -0.0200
   58MOL   H23515169   1.281   2.147   3.040 -2.2234  0.2132  0.0518
   58MOL   C23615170   1.197   2.346   3.046  0.3092 -0.1934  0.0078
   58MOL   C23715171   1.062   2.282   2.997 -0.8175 -0.6509  0.7525
   58MOL   C23815172   1.009   2.160   3.055  0.0431  0.6322  0.0364
   58MOL   C23915173   0.938   2.296   3.075  0.9251  0.3978  0.5727
   58MOL   C24015174   1.214   2.482   2.985  0.8851 -0.5063 -0.1377
   58MOL   H24115175   1.178   2.357   3.153 -0.3451  1.4577 -0.2547
   58MOL   H24215176   1.057   2.297   2.889 -0.6242  0.0915  0.8485
   58MOL   H24315177   0.958   2.088   2.991  0.8128  1.3463 -1.3934
   58MOL   H24415178   1.065   2.121   3.140  0.1220  0.1999 -0.2139
   58MOL   H24515179   0.947   2.343   3.173 -0.7972  0.3052  0.7955
   58MOL   H24615180   0.850   2.313   3.013  1.0701 -0.6285  0.0881
   58MOL   H24715181   1.300   2.542   3.014  0.5116  0.3752 -0.8134
   58MOL   H24815182   1.247   2.466   2.882  0.8822  2.0521 -0.5759
   58MOL   C24915183   1.095   2.582   2.976 -0.2580 -0.5982 -0.9166
   58MOL   C25015184   1.133   2.697   2.882  0.2373 -0.6041 -0.0199
   58MOL   C25115185   1.080   2.695   2.739  0.5128 -0.0477  0.6779
   58MOL   C25215186   1.018   2.791   2.839 -0.3995  0.4019  0.1606
   58MOL   C25315187   1.061   2.630   3.116 -0.4224  0.5463 -0.1610
   58MOL   H25415188   1.007   2.535   2.932 -0.6731  1.4037 -2.2803
   58MOL   H25515189   1.229   2.739   2.913  0.2031 -1.2420  0.9868
   58MOL   H25615190   1.149   2.739   2.667  1.5378 -0.6971  1.2433
   58MOL   H25715191   1.032   2.603   2.707 -0.0378 -0.5181  2.7912
   58MOL   H25815192   1.027   2.896   2.813  0.0729  0.7248  1.5929
   58MOL   H25915193   0.912   2.769   2.847 -0.5791  1.0176 -0.4579
   58MOL   H26015194   1.129   2.708   3.151  3.1957 -3.3892  2.0886
   58MOL   H26115195   1.070   2.543   3.182 -1.5646  0.3682 -0.2381
   58MOL   H26215196   0.958   2.664   3.122 -0.4703  0.1545  1.7877
   59MOL     C115197   2.467   4.057   0.841 -0.2442  0.0043 -0.3168
   59MOL     C215198   2.462   4.002   0.701 -0.5513 -0.3147 -0.1767
   59MOL     C315199   2.519   3.869   0.666  0.2837 -0.6943 -0.2609
   59MOL     C415200   2.587   3.991   0.620  0.1478 -0.4278  0.9920
   59MOL     C515201   2.358   4.004   0.933  0.2869 -0.0508  0.3763
   59MOL     H615202   2.562   4.040   0.890 -0.4318  0.1910  0.1185
   59MOL     H715203   2.382   4.037   0.637  0.3176  0.1256 -1.0386
   59MOL     H815204   2.559   3.813   0.750  1.2165  1.9995  1.1589
   59MOL     H915205   2.462   3.806   0.597 -0.9715  0.1188  0.0215
   59MOL    H1015206   2.575   4.020   0.516  0.6489  0.7415  1.2558
   59MOL    H1115207   2.680   4.025   0.666  1.4254 -1.6452 -0.6396
   59MOL    H1215208   2.349   3.896   0.929  1.2723 -0.0969 -0.5937
   59MOL    H1315209   2.270   4.052   0.891  0.0788  1.4115  2.3793
   59MOL    H1415210   2.442   4.163   0.838  1.7513  0.5251  1.0894
   59MOL    C1515211   2.365   4.034   1.085 -0.3032  0.8780  0.0738
   59MOL    C1615212   2.490   3.977   1.156 -0.2068 -0.2625 -0.2776
   59MOL    C1715213   2.503   3.838   1.215 -0.8386 -0.9310 -0.7468
   59MOL    C1815214   2.477   3.956   1.306 -0.0135  0.7158 -0.1327
   59MOL    C1915215   2.334   4.179   1.118  0.3748  0.4513 -0.6085
   59MOL    H2015216   2.280   3.975   1.116 -0.5467  0.7529 -0.8346
   59MOL    H2115217   2.581   4.024   1.120 -0.0869  0.8850  1.4409
   59MOL    H2215218   2.603   3.795   1.224 -1.2573 -1.8964 -0.6607
   59MOL    H2315219   2.425   3.766   1.192 -0.0034 -1.4122 -2.1546
   59MOL    H2415220   2.382   3.977   1.354 -1.3162  0.0171 -2.3213
   59MOL    H2515221   2.559   3.993   1.367  1.0192 -0.6926 -0.6228
   59MOL    H2615222   2.401   4.251   1.071  0.4177 -0.2132 -1.5786
   59MOL    H2715223   2.362   4.196   1.222 -0.8637  0.8196 -0.3349
   59MOL    C2815224   2.189   4.229   1.088  0.2163 -0.2299 -0.2373
   59MOL    C2915225   2.180   4.384   1.091 -0.0980 -0.0952  0.0706
   59MOL    C3015226   2.240   4.461   0.981  0.2937  0.7029  0.3672
   59MOL    C3115227   2.092   4.472   1.001 -0.2453  0.0056  0.0369
   59MOL    C3215228   2.103   4.174   1.200 -0.4103 -0.0620  0.3707
   59MOL    H3315229   2.150   4.201   0.989 -2.9357 -0.6448  1.0541
   59MOL    H3415230   2.195   4.435   1.187 -2.1116  1.7607 -0.5434
   59MOL    H3515231   2.259   4.429   0.878 -1.5879  1.2637 -0.1747
   59MOL    H3615232   2.289   4.554   1.007 -0.1173  1.1091 -0.2840
   59MOL    H3715233   2.024   4.420   0.934  2.1121 -1.4101 -1.3630
   59MOL    H3815234   2.061   4.567   1.043  1.2714  0.1004  0.9719
   59MOL    H3915235   2.147   4.206   1.295 -0.0366  0.5544 -0.0054
   59MOL    H4015236   2.108   4.066   1.210 -1.3657 -0.4056 -2.5278
   59MOL    C4115237   1.954   4.219   1.201 -0.2220 -0.3324  0.1557
   59MOL    C4215238   1.887   4.172   1.338 -0.2589  0.3564 -0.0799
   59MOL    C4315239   1.775   4.220   1.418 -0.0053 -0.3509 -0.3914
   59MOL    C4415240   1.924   4.225   1.475 -0.6685 -0.2087 -0.3777
   59MOL    C4515241   1.870   4.178   1.076 -1.2834 -0.4464  0.2306
   59MOL    H4615242   1.960   4.327   1.208  1.4843 -0.4812  1.1597
   59MOL    H4715243   1.873   4.064   1.329  0.6994 -0.0822  3.0439
   59MOL    H4815244   1.732   4.317   1.394  0.8335  0.1748  0.2105
   59MOL    H4915245   1.717   4.143   1.471  2.2638 -0.6702  1.7332
   59MOL    H5015246   1.953   4.156   1.554  2.0515  2.6067  1.1852
   59MOL    H5115247   1.981   4.317   1.484  1.1298 -1.2939 -0.4339
   59MOL    H5215248   1.855   4.070   1.077  0.1817 -0.6956 -1.6049
   59MOL    H5315249   1.921   4.207   0.985 -0.6670  0.2317  0.7927
   59MOL    C5415250   1.725   4.242   1.064 -0.3490  0.3715  0.0146
   59MOL    C5515251   1.730   4.391   1.032  0.7384 -0.2195  0.7047
   59MOL    C5615252   1.771   4.482   1.140  0.0971 -0.2434  0.3559
   59MOL    C5715253   1.634   4.496   1.081  0.0434 -0.1528  0.1556
   59MOL    C5815254   1.647   4.164   0.949 -0.7147 -0.4508  0.0893
   59MOL    H5915255   1.675   4.219   1.159 -2.0668  0.7232 -0.7789
   59MOL    H6015256   1.774   4.405   0.933  0.0117 -0.3657  0.3549
   59MOL    H6115257   1.777   4.445   1.243 -2.3257  0.2068  0.6872
   59MOL    H6215258   1.861   4.536   1.112 -1.1396  1.4536 -0.4381
   59MOL    H6315259   1.619   4.587   1.022  1.9277  0.7075  0.9483
   59MOL    H6415260   1.551   4.475   1.147  1.1604  0.3232  1.7499
   59MOL    H6515261   1.658   4.220   0.857 -0.7753  2.3675  1.7401
   59MOL    H6615262   1.692   4.066   0.936  0.1343 -0.0366 -0.1167
   59MOL    C6715263   1.508   4.145   0.976 -0.0183  0.5489 -0.4286
   59MOL    C6815264   1.431   4.126   0.851  0.9428  0.1471 -0.0386
   59MOL    C6915265   1.282   4.144   0.836 -0.3272 -0.8748 -0.3610
   59MOL    C7015266   1.380   4.244   0.779  0.1374  0.0511  1.0676
   59MOL    C7115267   1.476   4.033   1.079  0.0550  0.1396  0.3937
   59MOL    H7215268   1.470   4.239   1.017 -2.9726 -0.0607 -1.6700
   59MOL    H7315269   1.477   4.042   0.800 -1.4850 -1.3681  0.1900
   59MOL    H7415270   1.230   4.090   0.757  1.1466  0.0931 -2.0273
   59MOL    H7515271   1.215   4.184   0.911  0.9956  1.3919 -0.3445
   59MOL    H7615272   1.387   4.337   0.836 -1.8601 -0.1411  1.6555
   59MOL    H7715273   1.389   4.249   0.671 -2.3531  0.4836  0.8629
   59MOL    H7815274   1.569   3.989   1.114  0.2000  1.7266  2.0914
   59MOL    H7915275   1.436   3.949   1.022 -0.3792  1.3970 -1.1923
   59MOL    C8015276   1.374   4.064   1.187 -0.5485  0.1296 -0.0649
   59MOL    C8115277   1.430   4.165   1.289  0.5298 -0.2115  0.2695
   59MOL    C8215278   1.325   4.224   1.383  0.0873  0.1290 -0.2686
   59MOL    C8315279   1.401   4.312   1.281  0.5975 -0.1572 -1.0742
   59MOL    C8415280   1.337   3.933   1.259 -0.4903 -0.3168 -0.1696
   59MOL    H8515281   1.285   4.109   1.144  0.1201  2.0679  0.5145
   59MOL    H8615282   1.524   4.136   1.335  0.3266 -0.4899  0.5179
   59MOL    H8715283   1.348   4.236   1.488 -1.7298 -2.4863  0.4882
   59MOL    H8815284   1.219   4.211   1.360 -0.4717  1.8939  1.2259
   59MOL    H8915285   1.334   4.361   1.211  0.2101  1.1112  0.1536
   59MOL    H9015286   1.478   4.370   1.333 -1.2974  0.1562  1.4779
   59MOL    H9115287   1.401   3.852   1.223  0.6550  0.2805  0.4816
   59MOL    H9215288   1.356   3.918   1.365 -0.6962 -0.1127 -0.1031
   59MOL    C9315289   1.197   3.888   1.231  0.3550  0.4629 -0.7988
   59MOL    C9415290   1.089   3.976   1.295 -0.5077 -0.4541  0.2589
   59MOL    C9515291   0.963   3.916   1.360 -1.1899 -0.6677  0.0948
   59MOL    C9615292   1.064   3.978   1.445 -1.0251 -0.2180  0.3204
   59MOL    C9715293   1.169   3.859   1.079  0.5353  0.1685 -0.7573
   59MOL    H9815294   1.191   3.788   1.274 -0.0850 -0.2044 -2.3666
   59MOL    H9915295   1.072   4.070   1.242 -1.4036 -0.4496  0.5424
   59MOL   H10015296   0.867   3.968   1.360 -0.1281  1.3631  1.9462
   59MOL   H10115297   0.948   3.808   1.351  0.6212 -0.9064 -0.2212
   59MOL   H10215298   1.034   4.068   1.498  2.7068 -0.0170  2.2508
   59MOL   H10315299   1.133   3.912   1.497  0.6107  0.3138 -1.1241
   59MOL   H10415300   1.249   3.791   1.047 -1.2963 -2.2560 -0.2939
   59MOL   H10515301   1.180   3.945   1.012 -1.2771 -0.8132 -2.3756
   59MOL   C10615302   1.036   3.802   1.035  0.3299 -0.1359  0.0653
   59MOL   C10715303   1.040   3.801   0.883  0.0277  0.3764  0.1619
   59MOL   C10815304   0.921   3.800   0.806  0.6408 -0.0911 -0.4298
   59MOL   C10915305   1.003   3.922   0.802  0.2894 -0.2062  1.2095
   59MOL   C11015306   1.007   3.662   1.104  0.7038  0.1335  0.0335
   59MOL   H11115307   0.957   3.871   1.063  1.4764  1.9375 -1.6339
   59MOL   H11215308   1.115   3.735   0.840  0.1167 -0.3673  1.4263
   59MOL   H11315309   0.913   3.730   0.723 -3.9128 -1.4369  0.9937
   59MOL   H11415310   0.828   3.816   0.860  1.5733 -0.5293  1.3710
   59MOL   H11515311   0.971   4.009   0.859 -1.0666  0.0234  0.1384
   59MOL   H11615312   1.069   3.937   0.717 -1.2900  3.3527  0.5225
   59MOL   H11715313   1.070   3.589   1.053 -1.1857 -0.5533 -1.3929
   59MOL   H11815314   1.040   3.652   1.207 -0.3954  2.9376  0.6864
   59MOL   C11915315   0.872   3.602   1.079  0.0547 -0.6256 -0.0894
   59MOL   C12015316   0.874   3.452   1.052 -0.3867  0.2218  0.6721
   59MOL   C12115317   0.932   3.386   0.932  0.6727  0.5508 -0.0446
   59MOL   C12215318   0.781   3.393   0.940  0.2947 -0.2778  0.2030
   59MOL   C12315319   0.773   3.637   1.200 -0.4980  0.8239  0.1412
   59MOL   H12415320   0.827   3.649   0.992 -0.7106 -0.2779  0.4882
   59MOL   H12515321   0.860   3.388   1.138  1.3027 -0.7297  0.2705
   59MOL   H12615322   0.968   3.287   0.960 -2.5412 -0.3259  1.1848
   59MOL   H12715323   0.977   3.444   0.852  2.1509  0.7680  0.9182
   59MOL   H12815324   0.738   3.471   0.877  0.1714  1.5101  2.4592
   59MOL   H12915325   0.731   3.298   0.955 -2.5259  1.2583  0.9090
   59MOL   H13015326   0.788   3.574   1.288 -1.8814  1.2245  0.6746
   59MOL   H13115327   0.778   3.742   1.229 -0.7631  0.4456  1.5865
   59MOL   C13215328   0.624   3.616   1.173  0.1279  0.4579 -0.2748
   59MOL   C13315329   0.566   3.741   1.095 -1.0822 -0.2598  0.1258
   59MOL   C13415330   0.441   3.733   1.010 -0.1858  0.6631 -0.6285
   59MOL   C13515331   0.578   3.748   0.945 -0.1349  0.3009 -0.3268
   59MOL   C13615332   0.531   3.583   1.294 -0.1877  0.4900  0.4068
   59MOL   H13715333   0.614   3.533   1.103  1.0741  0.6401 -0.6336
   59MOL   H13815334   0.566   3.835   1.150 -1.3312 -0.8789  1.1930
   59MOL   H13915335   0.394   3.635   1.020  3.3269 -1.0123  0.1630
   59MOL   H14015336   0.378   3.821   1.020  0.8886  1.2463  1.0436
   59MOL   H14115337   0.590   3.657   0.886  1.7554  0.7786 -0.6991
   59MOL   H14215338   0.592   3.845   0.897 -2.0005  1.5224  1.5326
   59MOL   H14315339   0.550   3.659   1.371 -0.4576  0.5231  0.4397
   59MOL   H14415340   0.428   3.611   1.278 -0.4769 -1.1723 -0.7073
   59MOL   C14515341   0.549   3.441   1.333  0.3369  0.3755 -0.1664
   59MOL   C14615342   0.515   3.439   1.480 -0.1755  0.1713  0.0806
   59MOL   C14715343   0.595   3.344   1.568 -0.1872  0.4325  0.5685
   59MOL   C14815344   0.619   3.493   1.582  0.2778 -0.0191 -0.4797
   59MOL   C14915345   0.447   3.352   1.256  0.4777  0.2464  0.9667
   59MOL   H15015346   0.653   3.409   1.328  1.0769  2.7593 -1.0352
   59MOL   H15115347   0.413   3.468   1.504  0.7969  3.2622  0.7375
   59MOL   H15215348   0.550   3.319   1.663 -1.5803  0.4764 -0.0737
   59MOL   H15315349   0.679   3.284   1.533 -0.7419  0.1052 -0.2191
   59MOL   H15415350   0.708   3.538   1.538 -0.1150 -1.1619 -2.5113
   59MOL   H15515351   0.594   3.521   1.684  0.7165 -2.2333  0.2627
   59MOL   H15615352   0.348   3.374   1.296 -0.1475 -0.7579 -0.0328
   59MOL   H15715353   0.442   3.370   1.149  0.9430 -5.1344 -0.1009
   59MOL   C15815354   0.480   3.201   1.275 -0.8407  0.3218  0.3260
   59MOL   C15915355   0.598   3.143   1.191 -0.0433 -0.0451  0.3875
   59MOL   C16015356   0.743   3.154   1.220 -0.3676 -0.8070  0.5826
   59MOL   C16115357   0.677   3.014   1.230  0.8927 -0.4081 -0.8203
   59MOL   C16215358   0.356   3.126   1.236 -0.6481  0.7310  0.0433
   59MOL   H16315359   0.503   3.175   1.378 -0.1307 -1.0104 -0.1517
   59MOL   H16415360   0.578   3.154   1.085  1.3333 -0.9644  0.0110
   59MOL   H16515361   0.771   3.201   1.314 -0.2966 -0.0246  0.1791
   59MOL   H16615362   0.808   3.172   1.135 -0.7725  2.3858  0.9034
   59MOL   H16715363   0.701   2.944   1.149  0.5879 -0.8159 -0.5614
   59MOL   H16815364   0.663   2.981   1.332  0.4950  0.8228 -0.4716
   59MOL   H16915365   0.377   3.040   1.171 -0.3318  1.7752 -1.2499
   59MOL   H17015366   0.290   3.196   1.185 -1.5102  0.3683  0.6459
   59MOL   C17115367   0.272   3.062   1.352  0.2669 -0.2391 -0.2304
   59MOL   C17215368   0.189   3.160   1.430  0.2275 -0.3212 -0.1027
   59MOL   C17315369   0.114   3.115   1.557  0.1089 -0.4020 -0.1191
   59MOL   C17415370   0.212   3.228   1.561  0.1790 -0.1691 -0.1262
   59MOL   C17515371   0.187   2.930   1.319 -0.4412 -0.0596  0.8011
   59MOL   H17615372   0.353   3.027   1.416 -0.2259  1.7564  1.5543
   59MOL   H17715373   0.130   3.229   1.370 -1.4483 -3.0067 -1.6819
   59MOL   H17815374   0.011   3.141   1.577 -0.2486 -0.7372 -1.4874
   59MOL   H17915375   0.158   3.027   1.602  1.5363  0.1793 -0.3425
   59MOL   H18015376   0.303   3.204   1.616 -0.0623  1.1158  0.8612
   59MOL   H18115377   0.186   3.334   1.553  3.0523  0.5158 -0.8849
   59MOL   H18215378   0.102   2.969   1.263  0.5980  1.3999  0.2252
   59MOL   H18315379   0.141   2.909   1.415  0.3547 -2.4015  0.7083
   59MOL   C18415380   0.260   2.800   1.258  0.6360 -0.0536  0.6403
   59MOL   C18515381   0.271   2.812   1.104  0.2827  0.0914 -0.4497
   59MOL   C18615382   0.334   2.696   1.033  0.1362 -0.1446  0.9001
   59MOL   C18715383   0.403   2.828   1.039 -0.2078  0.6612 -0.2388
   59MOL   C18815384   0.176   2.672   1.297 -0.3142 -0.5299 -0.3689
   59MOL   H18915385   0.364   2.795   1.289  1.5701  1.9413 -2.0188
   59MOL   H19015386   0.185   2.859   1.057  1.1823  1.7190 -0.4910
   59MOL   H19115387   0.286   2.670   0.939  1.3732 -1.3918  0.6130
   59MOL   H19215388   0.379   2.622   1.098 -3.4595 -1.8841  1.5247
   59MOL   H19315389   0.417   2.862   0.937 -0.5618  0.1184 -0.4716
   59MOL   H19415390   0.487   2.839   1.107  0.9277 -1.6022 -1.2182
   59MOL   H19515391   0.148   2.622   1.204 -3.2465 -0.9110  0.6677
   59MOL   H19615392   0.078   2.710   1.327  1.2340  3.1054  0.3255
   59MOL   C19715393   0.244   2.584   1.398  0.2704  0.6182  0.6681
   59MOL   C19815394   0.166   2.453   1.411 -0.0359  0.4214 -0.8905
   59MOL   C19915395   0.246   2.324   1.430 -0.5434 -0.7786 -0.5069
   59MOL   C20015396   0.166   2.355   1.301 -0.4994 -0.3168 -0.6356
   59MOL   C20115397   0.240   2.651   1.535 -0.0548 -0.9670  1.0993
   59MOL   H20215398   0.347   2.570   1.364  0.8711 -0.2562  2.7413
   59MOL   H20315399   0.062   2.457   1.444  0.1039 -1.8558 -0.0900
   59MOL   H20415400   0.353   2.317   1.416 -0.3699  0.0265  0.3310
   59MOL   H20515401   0.209   2.250   1.500  1.0841 -0.8991  0.2367
   59MOL   H20615402   0.217   2.387   1.211  0.3327  1.1697  0.3292
   59MOL   H20715403   0.069   2.307   1.293  0.0125 -1.4964  0.1233
   59MOL   H20815404   0.285   2.750   1.528  2.6716 -2.1534  1.3409
   59MOL   H20915405   0.136   2.677   1.555 -0.9201 -0.8241 -3.0018
   59MOL   C21015406   0.306   2.581   1.654  0.6744  0.5211 -0.3779
   59MOL   C21115407   0.452   2.600   1.663 -0.4469  0.2383 -0.8105
   59MOL   C21215408   0.533   2.496   1.741 -0.2450 -0.5068 -0.2792
   59MOL   C21315409   0.545   2.515   1.589 -0.7713  0.1516  0.0863
   59MOL   C21415410   0.236   2.630   1.782 -0.9591  0.0361  0.5460
   59MOL   H21515411   0.283   2.475   1.643  3.9091 -0.2930  0.0504
   59MOL   H21615412   0.479   2.702   1.691 -0.9946  0.8737 -2.5313
   59MOL   H21715413   0.609   2.541   1.804 -1.9334  2.7783 -0.4964
   59MOL   H21815414   0.499   2.397   1.772 -0.8443 -0.2259 -0.0480
   59MOL   H21915415   0.637   2.557   1.549 -0.9882 -0.3382 -0.9594
   59MOL   H22015416   0.502   2.427   1.540 -0.6225 -1.5716  2.9408
   59MOL   H22115417   0.312   2.635   1.861  1.1332  0.7831 -1.4451
   59MOL   H22215418   0.209   2.735   1.790 -3.5582 -0.5300 -0.5209
   59MOL   C22315419   0.121   2.542   1.834  0.1709  0.2546 -0.2172
   59MOL   C22415420   0.049   2.608   1.950  0.0760  0.3752 -0.7565
   59MOL   C22515421   7.815   2.738   1.944 -0.4162  0.0725  0.4206
   59MOL   C22615422   7.730   2.615   1.966 -0.8516  0.0535  0.6242
   59MOL   C22715423   0.172   2.401   1.878  0.2106 -0.1445  0.4591
   59MOL   H22815424   0.049   2.535   1.752 -0.3830 -1.3650  0.3914
   59MOL   H22915425   0.095   2.589   2.046  2.1913  0.3238 -1.7446
   59MOL   H23015426   7.805   2.784   1.846  1.1474 -1.4715 -0.4987
   59MOL   H23115427   7.824   2.803   2.030 -1.1633 -0.3374  0.8126
   59MOL   H23215428   7.691   2.592   2.064  0.3896  2.4875  1.7382
   59MOL   H23315429   7.674   2.589   1.876  3.0837 -1.8746 -1.4680
   59MOL   H23415430   0.243   2.355   1.810 -1.8498  0.5069 -2.1932
   59MOL   H23515431   0.237   2.415   1.965  1.0768  3.3221 -0.6799
   59MOL   C23615432   0.056   2.298   1.890  0.1175 -0.3995 -0.1103
   59MOL   C23715433   0.090   2.170   1.976 -0.0591 -0.4598 -0.1190
   59MOL   C23815434   0.205   2.090   1.943 -0.1369  0.3466 -0.7755
   59MOL   C23915435   0.207   2.165   2.071  0.3351  0.8190 -0.1393
   59MOL   C24015436   0.009   2.258   1.749 -0.0471  1.0426  0.8393
   59MOL   H24115437   7.817   2.355   1.940 -0.3619  1.1798 -2.5435
   59MOL   H24215438   0.005   2.113   2.013 -0.0308 -0.6149 -0.2917
   59MOL   H24315439   0.206   1.983   1.962  0.3787  0.2787 -1.1722
   59MOL   H24415440   0.252   2.118   1.849 -0.9935  3.8437 -0.2682
   59MOL   H24515441   0.279   2.246   2.072  1.5216 -0.2166 -1.4140
   59MOL   H24615442   0.182   2.124   2.169  1.4322  0.6070  0.0513
   59MOL   H24715443   7.803   2.343   1.698  0.8908  2.4706  2.3226
   59MOL   H24815444   0.090   2.224   1.684 -0.4918  2.5320 -0.5224
   59MOL   C24915445   7.732   2.139   1.756  0.1064  0.1544  0.4136
   59MOL   C25015446   7.691   2.089   1.616  0.4322 -0.3998 -0.2002
   59MOL   C25115447   7.680   2.180   1.496  0.2350  0.0663  0.2346
   59MOL   C25215448   7.784   2.083   1.497  0.1622 -0.0935 -0.4101
   59MOL   C25315449   7.612   2.174   1.847  0.2868 -0.1985 -0.1395
   59MOL   H25415450   7.774   2.047   1.796  0.9072  0.2034 -0.2974
   59MOL   H25515451   7.621   2.006   1.616 -1.4870  1.1700  0.9908
   59MOL   H25615452   7.586   2.170   1.443  0.6199  2.8376 -1.0686
   59MOL   H25715453   7.693   2.287   1.512 -1.3728  0.1047  1.3318
   59MOL   H25815454   7.781   1.984   1.452 -0.0232 -0.5284  0.5427
   59MOL   H25915455   0.049   2.112   1.512  0.7078 -0.7537 -2.7092
   59MOL   H26015456   7.627   2.206   1.950 -0.9915 -1.7215  0.5369
   59MOL   H26115457   7.538   2.096   1.828  0.3739 -0.2646 -0.2077
   59MOL   H26215458   7.559   2.262   1.810  0.2079 -0.4989 -0.7574
   60MOL     C115459   4.051   7.515   3.213 -0.4274 -0.3084  0.6676
   60MOL     C215460   4.064   7.575   3.355 -0.2410 -0.2221  0.0588
   60MOL     C315461   3.961   7.662   3.423 -0.0227  0.2460  0.6375
   60MOL     C415462   4.097   7.720   3.373  0.1620 -0.4935 -0.2292
   60MOL     C515463   4.187   7.494   3.147  0.0034 -0.1490  0.4942
   60MOL     H615464   3.987   7.427   3.210  0.1723 -0.6973 -0.8295
   60MOL     H715465   4.120   7.511   3.423  0.9671  0.7257 -0.0141
   60MOL     H815466   3.881   7.698   3.359 -0.9770  0.0275  1.6967
   60MOL     H915467   3.945   7.633   3.526 -0.7133  1.6382  0.9293
   60MOL    H1015468   4.175   7.736   3.447  1.9304 -0.0973 -2.1273
   60MOL    H1115469   4.106   7.782   3.284  0.7790  1.7226  1.3309
   60MOL    H1215470   4.266   7.445   3.203  0.3439 -0.5855 -0.3637
   60MOL    H1315471   4.208   7.597   3.116  0.2500 -0.1494  0.6543
   60MOL    H1415472   4.001   7.591   3.154  0.2817 -0.1834  0.2212
   60MOL    C1515473   4.164   7.417   3.012  0.1152  1.0486 -0.1949
   60MOL    C1615474   4.113   7.515   2.910 -0.5617 -0.1890  0.0208
   60MOL    C1715475   3.974   7.540   2.868  0.7715  0.2154  0.0408
   60MOL    C1815476   4.062   7.465   2.773 -0.3981 -0.7632  0.2112
   60MOL    C1915477   4.297   7.341   2.967 -0.4440 -0.6021  0.6245
   60MOL    H2015478   4.084   7.344   3.025  0.6071  0.8801  2.0818
   60MOL    H2115479   4.184   7.595   2.886 -0.6800 -0.0523  0.1256
   60MOL    H2215480   3.950   7.645   2.854 -1.1818  0.0890  2.0618
   60MOL    H2315481   3.885   7.491   2.908  0.0109  1.1002 -0.5290
   60MOL    H2415482   4.046   7.358   2.758  0.3600 -0.8462 -0.0637
   60MOL    H2515483   4.092   7.517   2.682 -0.9762 -1.7652 -0.5591
   60MOL    H2615484   4.385   7.404   2.975  0.1555 -1.4957  1.2097
   60MOL    H2715485   4.293   7.302   2.865 -4.5278  1.7347 -0.2061
   60MOL    C2815486   4.339   7.215   3.048  0.0437  0.5283  0.2636
   60MOL    C2915487   4.488   7.193   3.026  0.9801  0.2049 -0.1325
   60MOL    C3015488   4.600   7.267   3.096 -0.3376  0.2495  0.4224
   60MOL    C3115489   4.573   7.127   3.128 -0.5028  0.1975  0.2740
   60MOL    C3215490   4.261   7.079   3.026 -0.9278  0.3189  0.1189
   60MOL    H3315491   4.328   7.242   3.153 -1.1810 -0.2978  0.3562
   60MOL    H3415492   4.519   7.163   2.927  0.0521 -3.2694  0.5611
   60MOL    H3515493   4.583   7.343   3.172  0.7137  0.2725  0.6441
   60MOL    H3615494   4.689   7.290   3.039 -1.9750  1.8295 -1.5805
   60MOL    H3715495   4.543   7.111   3.232  1.5103  0.0551  0.8485
   60MOL    H3815496   4.660   7.067   3.104 -1.1647 -1.2313  1.3395
   60MOL    H3915497   4.321   6.990   3.045 -2.2317 -0.4582  0.6351
   60MOL    H4015498   4.231   7.080   2.921 -1.3095 -2.2122  0.1721
   60MOL    C4115499   4.130   7.064   3.100 -0.0067  0.5964  0.5031
   60MOL    C4215500   4.163   7.046   3.253 -1.0967  0.6265  0.0399
   60MOL    C4315501   4.063   7.080   3.363 -0.4241  0.1063  0.6912
   60MOL    C4415502   4.179   7.173   3.337  0.2231  0.1043 -0.1616
   60MOL    C4515503   4.056   6.936   3.062  0.4279 -0.4037  0.2115
   60MOL    H4615504   4.064   7.151   3.093 -0.6789  0.0034 -0.6277
   60MOL    H4715505   4.222   6.956   3.271 -0.0321  1.5364  1.1892
   60MOL    H4815506   3.960   7.111   3.343  0.4235  2.7846  0.2517
   60MOL    H4915507   4.064   7.027   3.458  0.3423 -0.3693  0.4197
   60MOL    H5015508   4.242   7.187   3.424  0.5924  1.1380 -0.5802
   60MOL    H5115509   4.162   7.270   3.291 -1.7485 -0.1871 -0.0992
   60MOL    H5215510   4.116   6.847   3.080 -0.5554 -0.7792  1.6732
   60MOL    H5315511   4.053   6.934   2.953  2.0428  0.3582  0.1350
   60MOL    C5415512   3.906   6.930   3.102  0.2274  0.2280 -0.2818
   60MOL    C5515513   3.825   7.042   3.031  0.2295 -0.4463  0.4347
   60MOL    C5615514   3.783   7.177   3.097 -0.2607 -0.3630 -0.0246
   60MOL    C5715515   3.674   7.072   3.074 -0.1599  0.0814  0.1331
   60MOL    C5815516   3.849   6.791   3.069 -1.4633 -0.0262 -0.2612
   60MOL    H5915517   3.893   6.939   3.210 -1.4544  0.2500 -0.4691
   60MOL    H6015518   3.848   7.046   2.925  1.2713  2.8411  0.7419
   60MOL    H6115519   3.811   7.198   3.200 -0.5156 -0.4175  0.0568
   60MOL    H6215520   3.759   7.259   3.029 -1.6022 -1.8520 -1.3905
   60MOL    H6315521   3.598   7.105   3.004  0.1244 -2.1342 -1.2587
   60MOL    H6415522   3.634   7.018   3.159 -1.1053  0.6639  0.0618
   60MOL    H6515523   3.741   6.795   3.083 -1.3464 -1.7256  1.4141
   60MOL    H6615524   3.842   6.774   2.962  1.8059  1.2009 -0.7358
   60MOL    C6715525   3.910   6.671   3.145  0.3206 -1.0820  0.4862
   60MOL    C6815526   3.868   6.669   3.293  0.0349  0.1879 -0.0752
   60MOL    C6915527   3.953   6.613   3.406  0.1452 -0.0356  0.4927
   60MOL    C7015528   3.921   6.763   3.405  0.1334 -0.5050 -0.1760
   60MOL    C7115529   3.876   6.542   3.067  0.4201 -0.2759 -0.8506
   60MOL    H7215530   4.017   6.691   3.139 -0.3395  2.3183 -0.6075
   60MOL    H7315531   3.764   6.637   3.304 -0.5534  1.8358 -0.6605
   60MOL    H7415532   3.888   6.542   3.457  1.1302 -0.9332  0.5238
   60MOL    H7515533   4.060   6.594   3.397 -0.2383 -1.0842 -2.5027
   60MOL    H7615534   4.014   6.819   3.404 -0.9445  1.4027  1.9347
   60MOL    H7715535   3.853   6.813   3.474 -1.2829  3.3382 -4.0898
   60MOL    H7815536   3.883   6.558   2.960 -1.1015 -0.9971 -1.0832
   60MOL    H7915537   3.769   6.523   3.076  0.3621  0.2544 -0.3977
   60MOL    C8015538   3.955   6.420   3.102 -0.0624  0.1445 -0.2649
   60MOL    C8115539   4.088   6.424   3.029 -0.0305 -0.5350 -0.1477
   60MOL    C8215540   4.213   6.355   3.073 -0.1525  0.0459  0.0666
   60MOL    C8315541   4.212   6.512   3.077  0.0260 -0.0374 -0.4908
   60MOL    C8415542   3.887   6.284   3.070  0.3068  0.0788  0.3139
   60MOL    H8515543   3.959   6.436   3.210 -3.5376  0.2147 -0.0741
   60MOL    H8615544   4.072   6.426   2.921 -2.6321 -1.2408  0.1926
   60MOL    H8715545   4.267   6.304   2.993 -1.1149 -0.1623 -0.4601
   60MOL    H8815546   4.210   6.299   3.166  2.1000 -0.0401  0.1031
   60MOL    H8915547   4.173   6.558   3.168  0.4828  0.1068 -0.3705
   60MOL    H9015548   4.256   6.580   3.004 -1.1665 -0.6963 -1.8569
   60MOL    H9115549   3.845   6.281   2.970  0.6948 -2.3074  0.1858
   60MOL    H9215550   3.958   6.200   3.068 -0.6971 -0.7740  0.1201
   60MOL    C9315551   3.779   6.247   3.175 -0.0068 -0.5171  0.2856
   60MOL    C9415552   3.707   6.123   3.116  0.2074  0.2257 -0.1374
   60MOL    C9515553   3.569   6.084   3.151  0.3270  0.6574 -0.5225
   60MOL    C9615554   3.600   6.125   3.006  0.5230  0.2288  0.5932
   60MOL    C9715555   3.842   6.204   3.313  0.5602 -0.0693  0.0277
   60MOL    H9815556   3.718   6.337   3.186  0.6630 -0.0850  0.4497
   60MOL    H9915557   3.767   6.034   3.129 -0.7218 -0.5171 -0.8673
   60MOL   H10015558   3.539   5.980   3.152 -0.4958  0.8975 -0.0690
   60MOL   H10115559   3.506   6.145   3.215 -1.0662  1.3120 -2.4524
   60MOL   H10215560   3.618   6.052   2.928 -0.2032  0.4358  0.2234
   60MOL   H10315561   3.566   6.224   2.975  1.1257  0.1672 -0.2711
   60MOL   H10415562   3.903   6.288   3.346 -0.5290 -0.1778  2.4100
   60MOL   H10515563   3.902   6.112   3.308  0.0953 -0.4329  1.0947
   60MOL   C10615564   3.746   6.186   3.431 -0.5227 -0.2874  0.2684
   60MOL   C10715565   3.833   6.132   3.551 -0.5240  0.4498 -0.0236
   60MOL   C10815566   3.780   6.012   3.629  0.2127  0.2376 -0.1917
   60MOL   C10915567   3.906   6.003   3.545  0.4443  0.4537 -0.0674
   60MOL   C11015568   3.668   6.314   3.463  0.6305 -0.5221 -0.0477
   60MOL   H11115569   3.685   6.102   3.399 -1.6375  0.3033  0.8316
   60MOL   H11215570   3.888   6.205   3.611 -1.3984 -0.7133  2.2534
   60MOL   H11315571   3.789   6.007   3.737  0.9119 -0.9360 -0.2944
   60MOL   H11415572   3.701   5.948   3.589 -0.5888  1.1993 -0.1794
   60MOL   H11515573   3.907   5.936   3.459 -0.1374  0.2882  0.0571
   60MOL   H11615574   4.000   6.000   3.601 -1.4150  1.2046  3.2459
   60MOL   H11715575   3.746   6.383   3.494  2.9787 -1.5626 -3.3546
   60MOL   H11815576   3.623   6.356   3.373  1.8631  0.0114 -0.4196
   60MOL   C11915577   3.558   6.301   3.573 -0.4786 -0.3983  0.1122
   60MOL   C12015578   3.518   6.451   3.623  0.0901  0.2658 -0.4283
   60MOL   C12115579   3.611   6.558   3.656  0.6701  0.0270 -0.2851
   60MOL   C12215580   3.510   6.504   3.763  0.6539  0.0215 -0.0751
   60MOL   C12315581   3.437   6.214   3.524 -0.3162  0.1341 -0.3324
   60MOL   H12415582   3.603   6.264   3.666 -1.1124  1.3657  1.1534
   60MOL   H12515583   3.433   6.485   3.564 -0.9203  1.4094  1.6545
   60MOL   H12615584   3.589   6.650   3.604 -1.2304 -0.2676 -0.0294
   60MOL   H12715585   3.716   6.529   3.655  1.4346  2.6333  1.3299
   60MOL   H12815586   3.548   6.446   3.846  1.2681 -1.0079 -1.0489
   60MOL   H12915587   3.423   6.564   3.789  1.2455  1.7118 -1.8594
   60MOL   H13015588   3.390   6.275   3.447 -0.7371  1.2951  0.8316
   60MOL   H13115589   3.485   6.125   3.483 -0.0693  0.4923 -0.8188
   60MOL   C13215590   3.336   6.161   3.639 -0.6964 -0.4910 -0.1788
   60MOL   C13315591   3.408   6.076   3.749  0.2494 -0.1539  0.4107
   60MOL   C13415592   3.325   6.043   3.866 -0.1509 -0.0986  0.2158
   60MOL   C13515593   3.449   6.127   3.883 -0.4387  1.0924 -0.6789
   60MOL   C13615594   3.229   6.081   3.563  0.0328  0.3308 -0.6188
   60MOL   H13715595   3.294   6.251   3.683  0.0518 -1.2445  2.1664
   60MOL   H13815596   3.465   5.991   3.711  1.4527  0.7167  0.2188
   60MOL   H13915597   3.228   6.093   3.873  1.2532  2.5860  1.4278
   60MOL   H14015598   3.319   5.939   3.895 -2.2071 -0.0083  0.1495
   60MOL   H14115599   3.443   6.234   3.900  0.1218  1.3394 -1.9035
   60MOL   H14215600   3.531   6.075   3.932 -0.3060  2.0630  0.1481
   60MOL   H14315601   3.276   5.994   3.517 -0.6529 -1.2068  1.4723
   60MOL   H14415602   3.158   6.042   3.637  3.0003 -0.8606  1.7103
   60MOL   C14515603   3.142   6.150   3.455  0.1461 -0.5869 -0.0237
   60MOL   C14615604   3.059   6.043   3.398  0.2362 -0.1384  0.4202
   60MOL   C14715605   3.010   6.052   3.258  0.4144  0.2753  0.0678
   60MOL   C14815606   3.132   5.966   3.293 -0.8322 -0.0847 -0.0014
   60MOL   C14915607   3.058   6.266   3.510 -0.0095  0.1252 -0.2834
   60MOL   H15015608   3.199   6.194   3.373 -1.6735  0.9075 -0.5131
   60MOL   H15115609   2.995   5.986   3.465  1.2431 -0.7945  0.8310
   60MOL   H15215610   2.912   6.007   3.242  0.5972 -0.5666  1.2278
   60MOL   H15315611   3.017   6.146   3.203 -2.1343 -0.4517 -1.5790
   60MOL   H15415612   3.229   6.003   3.259 -0.2560 -0.7775  0.8854
   60MOL   H15515613   3.119   5.858   3.298 -0.4665 -0.2612 -2.2068
   60MOL   H15615614   2.961   6.251   3.461  0.4779 -1.3972 -0.8172
   60MOL   H15715615   3.030   6.260   3.615 -0.3972  0.4077 -0.3685
   60MOL   C15815616   3.116   6.410   3.471  0.8601  0.4372 -0.2562
   60MOL   C15915617   3.041   6.511   3.563 -0.0675  0.8833  0.4310
   60MOL   C16015618   3.075   6.536   3.705  0.1953 -0.1293 -0.2344
   60MOL   C16115619   3.106   6.638   3.599 -0.2956 -0.2496 -0.7930
   60MOL   C16215620   3.073   6.448   3.325 -0.3678 -0.4984 -0.2267
   60MOL   H16315621   3.223   6.427   3.479  0.6107  1.3191  1.6435
   60MOL   H16415622   2.936   6.523   3.538  0.7916 -0.5496 -4.3888
   60MOL   H16515623   3.163   6.486   3.744 -0.3210 -0.3586  0.6342
   60MOL   H16615624   2.992   6.560   3.770 -0.6806 -0.9894 -1.0128
   60MOL   H16715625   3.042   6.725   3.613 -1.3077 -0.9802 -0.8932
   60MOL   H16815626   3.205   6.655   3.557  0.6378 -1.0353  1.0486
   60MOL   H16915627   2.976   6.498   3.318 -0.1213 -0.0827 -0.6635
   60MOL   H17015628   3.053   6.354   3.273 -1.6753 -0.6622  0.5293
   60MOL   C17115629   3.167   6.543   3.250 -0.4176 -0.0847 -0.6422
   60MOL   C17215630   3.229   6.497   3.115 -0.3551 -0.7529  0.0210
   60MOL   C17315631   3.375   6.525   3.081 -0.3741 -0.5301  0.2847
   60MOL   C17415632   3.328   6.382   3.107  0.6436  0.1096 -0.3492
   60MOL   C17515633   3.103   6.685   3.249 -0.0431  0.0986  0.7812
   60MOL   H17615634   3.252   6.546   3.319 -1.3306  1.0947  0.4731
   60MOL   H17715635   3.159   6.502   3.032 -0.1564 -1.5899 -0.1943
   60MOL   H17815636   3.392   6.550   2.977  2.1474 -2.4675  0.1798
   60MOL   H17915637   3.445   6.567   3.153  1.5160 -1.6978 -0.8151
   60MOL   H18015638   3.356   6.342   3.204  2.7168  0.2782 -0.8614
   60MOL   H18115639   3.319   6.314   3.023 -3.0105 -2.8119  2.1879
   60MOL   H18215640   3.058   6.712   3.344 -1.8161 -1.5966  0.4484
   60MOL   H18315641   3.023   6.680   3.174  0.5701  2.9723 -0.1662
   60MOL   C18415642   3.206   6.802   3.217 -0.3663 -0.7931 -0.1668
   60MOL   C18515643   3.273   6.854   3.341  0.6228  1.1864 -0.4961
   60MOL   C18615644   3.396   6.944   3.334  0.5374  0.6212 -0.1159
   60MOL   C18715645   3.401   6.800   3.388 -0.2056 -0.0552  0.5653
   60MOL   C18815646   3.135   6.925   3.149 -0.7799 -0.1586 -0.2526
   60MOL   H18915647   3.280   6.761   3.149  1.5746  1.5272  0.4939
   60MOL   H19015648   3.195   6.876   3.414  0.4153  0.2164 -0.4139
   60MOL   H19115649   3.390   7.025   3.406 -0.3228  0.4026  0.0628
   60MOL   H19215650   3.429   6.964   3.232  1.4565  0.0594  0.0685
   60MOL   H19315651   3.435   6.796   3.492  1.3428 -3.6077 -0.0332
   60MOL   H19415652   3.463   6.733   3.330  2.4072  3.1255 -0.4947
   60MOL   H19515653   3.179   7.016   3.190 -0.2159 -0.2848 -0.5660
   60MOL   H19615654   3.036   6.931   3.193 -0.5744  0.8789  0.0775
   60MOL   C19715655   3.138   6.933   3.000 -0.4800  0.1966 -0.0828
   60MOL   C19815656   3.272   6.997   2.964  0.4306  0.6078  0.1894
   60MOL   C19915657   3.321   6.983   2.818 -0.5753 -0.4545  0.6294
   60MOL   C20015658   3.385   6.904   2.936  0.6811 -0.5490 -0.0774
   60MOL   C20115659   3.020   7.014   2.947 -0.0104  0.2018  0.1032
   60MOL   H20215660   3.136   6.832   2.960  0.5307  0.2479 -0.2717
   60MOL   H20315661   3.286   7.099   3.000 -0.3828  0.6407  0.4317
   60MOL   H20415662   3.259   6.930   2.747  0.1253  2.5320 -2.3597
   60MOL   H20515663   3.378   7.066   2.775  0.4374 -1.4590  0.0147
   60MOL   H20615664   3.355   6.800   2.946 -1.7198 -0.0906 -2.0217
   60MOL   H20715665   3.480   6.936   2.978 -0.5953  1.6270  1.2106
   60MOL   H20815666   3.021   7.116   2.986 -2.5808 -0.4173  1.9613
   60MOL   H20915667   3.040   7.040   2.843  1.1888  0.8017  0.4753
   60MOL   C21015668   2.881   6.941   2.956 -0.4897 -0.0898 -0.7111
   60MOL   C21115669   2.766   7.035   2.925 -0.3757  0.5095 -0.8166
   60MOL   C21215670   2.623   7.027   2.988 -0.1882  0.4907  0.5277
   60MOL   C21315671   2.723   7.136   3.031  0.1478  0.1146 -0.2391
   60MOL   C21415672   2.883   6.814   2.861 -0.2679  0.8538  0.0829
   60MOL   H21515673   2.867   6.914   3.061  0.4698  0.0124 -0.5564
   60MOL   H21615674   2.752   7.060   2.820  0.5593  0.3689 -0.9779
   60MOL   H21715675   2.535   7.078   2.949  0.8029  2.4343  0.7826
   60MOL   H21815676   2.601   6.941   3.051  0.5199 -0.8913 -1.0877
   60MOL   H21915677   2.696   7.228   2.980  0.9459  0.2619 -0.4011
   60MOL   H22015678   2.778   7.124   3.124  0.0310 -1.1804 -0.3285
   60MOL   H22115679   2.921   6.842   2.763 -0.5552  0.0716 -0.2555
   60MOL   H22215680   2.959   6.745   2.898 -1.4763 -0.8050 -0.4477
   60MOL   C22315681   2.754   6.729   2.854 -1.0852  0.8471 -0.5067
   60MOL   C22415682   2.804   6.585   2.841  0.1983  0.1020 -0.4067
   60MOL   C22515683   2.857   6.507   2.961  0.4221 -0.7163 -0.7865
   60MOL   C22615684   2.738   6.466   2.889  0.5749  0.5097 -0.0095
   60MOL   C22715685   2.675   6.774   2.727  0.0216  0.3594 -0.3707
   60MOL   H22815686   2.706   6.726   2.951 -0.8454 -0.5325 -0.4225
   60MOL   H22915687   2.856   6.577   2.746 -0.3822  2.3566 -0.9366
   60MOL   H23015688   2.840   6.552   3.059 -1.6063 -1.0030 -0.9688
   60MOL   H23115689   2.948   6.448   2.950  0.3674 -0.6851 -1.4100
   60MOL   H23215690   2.738   6.371   2.836  0.9585 -0.7326  2.1506
   60MOL   H23315691   2.643   6.484   2.939 -0.0048 -0.0089 -0.9179
   60MOL   H23415692   2.657   6.882   2.725 -1.0032  0.2376  1.3281
   60MOL   H23515693   2.742   6.762   2.642 -1.1370 -1.7223 -1.0190
   60MOL   C23615694   2.542   6.699   2.699  1.5797 -0.2385 -0.2151
   60MOL   C23715695   2.482   6.746   2.573 -0.3599  0.5025  0.4934
   60MOL   C23815696   2.552   6.751   2.435 -0.5404  0.5423  0.2059
   60MOL   C23915697   2.453   6.644   2.458  0.7464  0.0911  0.3074
   60MOL   C24015698   2.446   6.721   2.825 -0.4374 -0.7709 -0.1169
   60MOL   H24115699   2.567   6.593   2.697 -0.4882 -0.7902  1.4707
   60MOL   H24215700   2.401   6.815   2.595 -1.1091  0.5740 -2.2714
   60MOL   H24315701   2.520   6.825   2.361  0.0210  1.0357  0.4535
   60MOL   H24415702   2.656   6.722   2.428 -1.2609 -2.4086  1.1108
   60MOL   H24515703   2.487   6.546   2.488  0.3525 -0.3499 -0.6602
   60MOL   H24615704   2.354   6.661   2.415  0.9983  0.5107 -0.1220
   60MOL   H24715705   2.500   6.690   2.915 -0.6498 -0.6055  0.0683
   60MOL   H24815706   2.430   6.825   2.853  0.8101 -0.9332  1.2654
   60MOL   C24915707   2.303   6.660   2.808 -0.4777  0.4621  0.1598
   60MOL   C25015708   2.205   6.724   2.913 -0.0176  0.8094  0.0961
   60MOL   C25115709   2.150   6.859   2.884 -0.4637 -0.3757  0.1181
   60MOL   C25215710   2.064   6.735   2.875  0.4229 -0.1189 -0.0684
   60MOL   C25315711   2.296   6.508   2.808  0.5298  0.3978 -0.3196
   60MOL   H25415712   2.271   6.683   2.706 -2.2019 -0.9071  0.3631
   60MOL   H25515713   2.224   6.705   3.018 -1.8251 -0.0036  0.2881
   60MOL   H25615714   2.134   6.925   2.970 -0.1536 -0.2496  0.0785
   60MOL   H25715715   2.190   6.906   2.795 -1.1684  0.8820  0.4476
   60MOL   H25815716   1.993   6.704   2.952  1.3870 -1.2770  0.3535
   60MOL   H25915717   2.039   6.701   2.775 -0.6067  0.1637  0.0807
   60MOL   H26015718   2.304   6.467   2.908  2.7644  2.7242  0.4958
   60MOL   H26115719   2.370   6.460   2.744  0.5364 -0.5449  0.3967
   60MOL   H26215720   2.200   6.466   2.776  1.5932 -0.8467 -1.9337
   61MOL     C115721   0.612   6.559   4.540  0.1104  0.8828  0.0829
   61MOL     C215722   0.512   6.624   4.631 -0.4654  0.6390  0.1872
   61MOL     C315723   0.511   6.571   4.771  0.6207 -0.1496  0.3900
   61MOL     C415724   0.387   6.553   4.681 -0.0282 -0.1912  0.0792
   61MOL     C515725   0.752   6.625   4.544  0.2551  0.2323 -0.6043
   61MOL     H615726   0.614   6.455   4.572 -0.9577  1.2048  1.2158
   61MOL     H715727   0.496   6.732   4.624  0.5938  0.7840 -0.0077
   61MOL     H815728   0.589   6.500   4.796  1.2194 -0.3357 -1.9129
   61MOL     H915729   0.493   6.641   4.852 -0.0493 -0.7049  0.7314
   61MOL    H1015730   0.298   6.613   4.703 -0.4599 -1.2453  1.2773
   61MOL    H1115731   0.369   6.460   4.627 -0.4764  0.9851 -1.8679
   61MOL    H1215732   0.837   6.573   4.500 -0.1033  1.9436 -3.4250
   61MOL    H1315733   0.776   6.625   4.651  0.4623 -1.7704 -0.6230
   61MOL    H1415734   0.566   6.571   4.442  2.2624 -2.3772 -1.3909
   61MOL    C1515735   0.759   6.777   4.504  0.1957  0.1364 -0.5826
   61MOL    C1615736   0.895   6.830   4.554 -0.6261 -0.5788  0.2432
   61MOL    C1715737   0.915   6.891   4.690  0.0611 -0.6340 -0.7631
   61MOL    C1815738   0.923   6.982   4.573 -0.1057  0.2464 -0.4979
   61MOL    C1915739   0.750   6.782   4.349 -0.3087 -0.8379  0.3569
   61MOL    H2015740   0.678   6.832   4.552 -1.4962 -2.1504 -0.7330
   61MOL    H2115741   0.978   6.768   4.521 -1.5635 -3.0429  2.3396
   61MOL    H2215742   1.007   6.871   4.745  0.9362  0.5328 -1.7745
   61MOL    H2315743   0.824   6.891   4.749 -0.1788  0.6488 -1.1315
   61MOL    H2415744   0.840   7.046   4.544  1.2458  1.6520 -1.3398
   61MOL    H2515745   1.025   7.019   4.569 -0.0166  0.0297 -0.2543
   61MOL    H2615746   0.693   6.702   4.301 -0.5817 -1.3335  1.5012
   61MOL    H2715747   0.853   6.783   4.315 -0.3779 -0.1371  0.1744
   61MOL    C2815748   0.680   6.906   4.294  0.3582 -0.3149 -0.1794
   61MOL    C2915749   0.538   6.927   4.343  0.5780 -0.1552 -0.0186
   61MOL    C3015750   0.502   7.000   4.478 -0.7552  0.3201  0.1229
   61MOL    C3115751   0.470   7.063   4.343  0.2887  0.3083 -1.3062
   61MOL    C3215752   0.689   6.907   4.138  0.1082 -0.3745 -0.4239
   61MOL    H3315753   0.733   6.993   4.332  0.6570 -1.0293  1.0728
   61MOL    H3415754   0.464   6.849   4.322 -0.2883  0.5237  0.4809
   61MOL    H3515755   0.583   7.042   4.538 -1.3939  0.9396  0.5651
   61MOL    H3615756   0.415   6.971   4.537 -0.2693 -0.9425  0.2241
   61MOL    H3715757   0.527   7.155   4.336  1.8284 -0.4298  0.8361
   61MOL    H3815758   0.362   7.069   4.339 -0.1367 -3.7839  0.6943
   61MOL    H3915759   0.624   6.985   4.100  1.0879  1.8756  2.3014
   61MOL    H4015760   0.652   6.811   4.100 -0.4595 -0.2595 -0.1653
   61MOL    C4115761   0.818   6.912   4.070  0.3672  0.3908  0.8574
   61MOL    C4215762   0.892   7.036   4.101  0.0530 -0.6744 -0.7608
   61MOL    C4315763   1.042   7.033   4.085 -0.0287 -0.6108  0.8187
   61MOL    C4415764   0.985   7.034   4.220 -0.0725  0.1673  0.4960
   61MOL    C4515765   0.790   6.899   3.916  0.5762 -0.5068 -0.4644
   61MOL    H4615766   0.885   6.833   4.104  0.8253  0.3713 -0.0628
   61MOL    H4715767   0.831   7.121   4.071 -1.7390 -2.1527 -1.4455
   61MOL    H4815768   1.091   6.945   4.044  1.3460  0.6727 -0.4017
   61MOL    H4915769   1.078   7.129   4.047  0.3112 -1.3804 -0.8464
   61MOL    H5015770   0.989   7.129   4.274  1.0913  0.0594  0.6098
   61MOL    H5115771   1.009   6.944   4.275  1.6496  1.6259  2.2163
   61MOL    H5215772   0.885   6.934   3.875 -0.0660  1.0959 -0.5958
   61MOL    H5315773   0.722   6.978   3.883 -1.4250 -1.3898  1.4249
   61MOL    C5415774   0.734   6.770   3.864  0.3831  0.2556  0.1451
   61MOL    C5515775   0.735   6.777   3.711  0.2657  0.0802  0.0443
   61MOL    C5615776   0.644   6.873   3.625 -0.4463  0.9099  0.1662
   61MOL    C5715777   0.635   6.726   3.611 -0.1423 -1.2483  0.1374
   61MOL    C5815778   0.808   6.633   3.911  0.5526 -0.0056  0.2495
   61MOL    H5915779   0.628   6.773   3.889  0.3176  0.1855 -0.1171
   61MOL    H6015780   0.831   6.737   3.678  0.1732 -1.5571  1.6765
   61MOL    H6115781   0.562   6.919   3.680 -2.5503 -1.7897 -0.5834
   61MOL    H6215782   0.693   6.937   3.552  0.3821  2.1524  1.7674
   61MOL    H6315783   0.679   6.677   3.524 -0.1053  2.4098 -2.0275
   61MOL    H6415784   0.548   6.675   3.651 -2.6365  0.7325 -2.5700
   61MOL    H6515785   0.911   6.632   3.876  1.0104  1.0145  1.5374
   61MOL    H6615786   0.817   6.634   4.019  2.9977  1.1920  0.0716
   61MOL    C6715787   0.735   6.502   3.874  0.6055  0.1317  0.1540
   61MOL    C6815788   0.840   6.393   3.866  0.7626  0.3022 -0.1546
   61MOL    C6915789   0.839   6.284   3.760  0.2185  0.3480 -0.3205
   61MOL    C7015790   0.939   6.390   3.756 -0.0757 -0.2487  0.4156
   61MOL    C7115791   0.614   6.471   3.968 -0.0646 -0.0622  0.0627
   61MOL    H7215792   0.695   6.517   3.774  1.1582  2.2814  0.2496
   61MOL    H7315793   0.873   6.368   3.967 -1.0335  2.7437  1.0860
   61MOL    H7415794   0.878   6.186   3.789  0.8202  0.5469 -0.4460
   61MOL    H7515795   0.767   6.290   3.679 -0.6992 -0.8059  0.4006
   61MOL    H7615796   0.930   6.467   3.679  0.3214 -1.3811 -0.7958
   61MOL    H7715797   1.040   6.363   3.786  0.1406 -2.8494 -2.3405
   61MOL    H7815798   0.557   6.562   3.985 -1.1647 -0.3439 -1.9026
   61MOL    H7915799   0.652   6.443   4.066  0.9096 -0.0548 -0.3046
   61MOL    C8015800   0.515   6.362   3.924 -0.0607 -0.1168 -0.1684
   61MOL    C8115801   0.387   6.394   4.000 -0.0551 -0.4568 -0.1869
   61MOL    C8215802   0.247   6.348   3.942 -0.2815 -1.0302 -0.1287
   61MOL    C8315803   0.287   6.499   3.952  0.7605 -0.0825 -0.4092
   61MOL    C8415804   0.570   6.220   3.955 -0.2671 -0.5409  0.2241
   61MOL    H8515805   0.500   6.392   3.820 -2.3954 -0.6356 -0.0235
   61MOL    H8615806   0.399   6.384   4.107 -1.2117 -0.5696 -0.0538
   61MOL    H8715807   0.181   6.316   4.022 -0.1551 -1.1580 -0.0758
   61MOL    H8815808   0.245   6.298   3.846 -3.5221 -0.5604 -0.3681
   61MOL    H8915809   0.313   6.549   3.859 -1.7015  0.6480 -0.7456
   61MOL    H9015810   0.230   6.558   4.023  0.6776  0.6619 -1.0885
   61MOL    H9115811   0.677   6.206   3.942 -0.6202 -2.2085 -0.9634
   61MOL    H9215812   0.545   6.208   4.061 -0.5638 -2.5739 -0.0639
   61MOL    C9315813   0.504   6.107   3.879 -0.4621  0.1120  0.0397
   61MOL    C9415814   0.566   6.090   3.743 -0.0774  0.4737 -1.0826
   61MOL    C9515815   0.486   6.027   3.627  0.1101 -0.1124 -0.5002
   61MOL    C9615816   0.519   6.175   3.629 -0.6688 -0.2200  0.0458
   61MOL    C9715817   0.523   5.971   3.952  0.4994 -0.1995  0.3912
   61MOL    H9815818   0.396   6.117   3.870 -0.6509 -1.4308  0.5039
   61MOL    H9915819   0.669   6.054   3.745  0.0248  0.8260  0.2949
   61MOL   H10015820   0.384   5.993   3.646  0.6112 -1.9648 -1.0378
   61MOL   H10115821   0.548   5.967   3.561  2.6605  1.8201  0.0365
   61MOL   H10215822   0.591   6.208   3.556 -0.9841  0.1791 -0.0856
   61MOL   H10315823   0.434   6.243   3.635 -0.5636 -0.0711 -0.1890
   61MOL   H10415824   0.628   5.973   3.982  1.1706  1.7137 -1.9850
   61MOL   H10515825   0.520   5.895   3.874 -3.0064  1.5862 -1.3549
   61MOL   C10615826   0.415   5.935   4.057 -0.1739 -0.7217 -0.1877
   61MOL   C10715827   0.317   5.828   3.996  0.7489 -0.7830  0.5972
   61MOL   C10815828   0.163   5.847   4.006 -0.3695  0.1922  0.6809
   61MOL   C10915829   0.236   5.861   3.870 -0.7226  0.3801  0.3904
   61MOL   C11015830   0.480   5.874   4.181 -0.3121  0.0542  0.0156
   61MOL   H11115831   0.367   6.025   4.095 -0.4234 -0.5921 -0.8061
   61MOL   H11215832   0.353   5.725   3.999  1.4578 -0.5549  0.2133
   61MOL   H11315833   0.097   5.762   4.023 -0.6208  0.4200  0.8472
   61MOL   H11415834   0.116   5.931   4.058 -1.9946 -0.4269  0.2642
   61MOL   H11515835   0.248   5.963   3.836 -4.6027  0.9084  0.3663
   61MOL   H11615836   0.233   5.783   3.794 -0.2879  1.2644 -0.5491
   61MOL   H11715837   0.421   5.794   4.225  2.5715  0.2100  4.4644
   61MOL   H11815838   0.576   5.832   4.150 -0.0626 -0.7208  1.7779
   61MOL   C11915839   0.526   5.967   4.292  0.6848 -0.5031 -0.1083
   61MOL   C12015840   0.412   5.993   4.383 -0.6170 -0.3387  0.3100
   61MOL   C12115841   0.300   6.082   4.353 -0.6944 -0.0074  0.5073
   61MOL   C12215842   0.388   6.121   4.468  0.7989 -0.4202 -0.3905
   61MOL   C12315843   0.643   5.901   4.383 -0.3586  0.0910 -0.4286
   61MOL   H12415844   0.555   6.059   4.242 -2.4920  0.2224 -0.6818
   61MOL   H12515845   0.400   5.906   4.448  0.2863 -0.9670 -0.3424
   61MOL   H12615846   0.198   6.052   4.376 -0.2013 -1.7911  0.4283
   61MOL   H12715847   0.315   6.148   4.267  0.8507 -0.7202  0.2128
   61MOL   H12815848   0.450   6.209   4.453  0.1648 -0.0405 -0.8113
   61MOL   H12915849   0.345   6.115   4.567  0.9284 -0.0235 -0.3101
   61MOL   H13015850   0.636   5.943   4.484 -1.0716 -0.5550 -0.2029
   61MOL   H13115851   0.617   5.795   4.387 -0.2041  0.0488 -0.5601
   61MOL   C13215852   0.794   5.917   4.346  0.1566 -0.4517 -0.4281
   61MOL   C13315853   0.882   5.838   4.435 -0.2132  0.3727 -0.1411
   61MOL   C13415854   0.994   5.741   4.390  0.3460 -0.8129 -0.0310
   61MOL   C13515855   0.867   5.682   4.446 -0.1607 -0.2084 -0.0706
   61MOL   C13615856   0.837   6.064   4.359  0.0340 -0.1912  0.3530
   61MOL   H13715857   0.805   5.875   4.246  0.8174  0.7447 -0.8630
   61MOL   H13815858   0.894   5.879   4.535  2.3097 -1.1241  0.2203
   61MOL   H13915859   1.013   5.735   4.283 -2.0016 -0.1631 -0.5253
   61MOL   H14015860   1.081   5.719   4.451  1.7154  2.0244 -0.8937
   61MOL   H14115861   0.806   5.623   4.379 -1.0832  0.2863  0.3280
   61MOL   H14215862   0.887   5.635   4.542  0.8881 -0.2234 -0.2912
   61MOL   H14315863   0.769   6.136   4.313 -0.0538 -0.8871 -0.6269
   61MOL   H14415864   0.839   6.087   4.465 -0.4939 -1.9912  0.7798
   61MOL   C14515865   0.976   6.098   4.299  0.4829  0.4428 -0.0311
   61MOL   C14615866   0.970   6.129   4.155 -0.7649  0.2897 -0.4216
   61MOL   C14715867   1.088   6.114   4.071  0.3294 -0.4008  1.1112
   61MOL   C14815868   0.970   6.027   4.042  0.7700 -0.0260  0.0448
   61MOL   C14915869   1.046   6.208   4.382  0.2859  0.9356 -0.3477
   61MOL   H15015870   1.032   6.004   4.297  0.0286  0.1125  2.1976
   61MOL   H15115871   0.903   6.213   4.136 -0.0713  1.1413  0.8462
   61MOL   H15215872   1.104   6.183   3.988  1.3071 -1.5470  0.3367
   61MOL   H15315873   1.175   6.074   4.123 -0.3783 -1.4592  1.4803
   61MOL   H15415874   0.972   5.925   4.078  0.3332  0.6858  2.1997
   61MOL   H15515875   0.911   6.050   3.954 -0.7954 -2.4708  0.4295
   61MOL   H15615876   1.130   6.241   4.322  1.0509 -1.1411 -0.4816
   61MOL   H15715877   0.974   6.289   4.386 -0.4652  0.2890 -0.5526
   61MOL   C15815878   1.090   6.157   4.521  0.4710  0.2892  0.3695
   61MOL   C15915879   1.093   6.275   4.618 -0.2915  0.2020 -0.3596
   61MOL   C16015880   0.968   6.349   4.661 -0.2167 -0.2738 -0.5827
   61MOL   C16115881   1.043   6.271   4.759 -0.2575 -0.8121  0.3563
   61MOL   C16215882   1.227   6.089   4.517 -0.0471 -0.2493  0.4721
   61MOL   H16315883   1.031   6.072   4.556  0.0137 -0.3926 -1.9974
   61MOL   H16415884   1.179   6.337   4.591  0.7506 -0.8241  0.5324
   61MOL   H16515885   0.873   6.309   4.627 -0.6273  0.4068 -0.2413
   61MOL   H16615886   0.977   6.457   4.663  3.5017 -0.5273  1.5766
   61MOL   H16715887   1.104   6.325   4.831  1.1903 -0.6940 -0.9528
   61MOL   H16815888   1.019   6.167   4.782  0.4952 -0.9136  0.7114
   61MOL   H16915889   1.295   6.151   4.459 -3.8962  2.5370 -1.2731
   61MOL   H17015890   1.230   5.996   4.460 -2.4849 -1.1213  1.6817
   61MOL   C17115891   1.299   6.049   4.654  0.3834  0.7052 -0.1556
   61MOL   C17215892   1.253   5.911   4.706 -0.2340  0.5896 -0.9391
   61MOL   C17315893   1.251   5.879   4.854 -0.0664  0.8918 -1.0826
   61MOL   C17415894   1.125   5.881   4.778  0.2047 -0.7228  0.3983
   61MOL   C17515895   1.454   6.033   4.630  0.3723  0.6039 -0.2778
   61MOL   H17615896   1.285   6.117   4.737  2.4061 -1.3412  1.9320
   61MOL   H17715897   1.281   5.831   4.639  1.0148 -0.4970  0.8450
   61MOL   H17815898   1.305   5.786   4.869 -1.8944  0.0408  0.4065
   61MOL   H17915899   1.285   5.958   4.921 -0.2359 -0.3991  0.5453
   61MOL   H18015900   1.052   5.960   4.796  0.0343 -0.2482 -2.1162
   61MOL   H18115901   1.078   5.782   4.780  1.4358 -1.3056  0.4807
   61MOL   H18215902   1.481   6.100   4.548  0.9780  0.3627 -0.2745
   61MOL   H18315903   1.473   5.931   4.598  0.4666 -0.3543  2.6836
   61MOL   C18415904   1.544   6.063   4.753 -0.0852  0.1597  0.4002
   61MOL   C18515905   1.519   6.210   4.808  0.2434  0.5991  0.2066
   61MOL   C18615906   1.586   6.266   4.928 -0.1829  0.2205 -0.5893
   61MOL   C18715907   1.439   6.234   4.933  0.4879  0.1570  0.2154
   61MOL   C18815908   1.695   6.034   4.720 -0.3313 -0.4585  0.0712
   61MOL   H18915909   1.518   5.994   4.834  0.5651 -1.8854 -1.0911
   61MOL   H19015910   1.509   6.285   4.730 -0.9139  1.4285  1.1301
   61MOL   H19115911   1.619   6.368   4.946  2.2614 -0.8895  1.6771
   61MOL   H19215912   1.648   6.195   4.982  0.2972  1.2997  0.2911
   61MOL   H19315913   1.380   6.324   4.946  1.1137  0.7491 -0.9754
   61MOL   H19415914   1.419   6.143   4.991 -0.5458 -0.3941 -0.9947
   61MOL   H19515915   1.753   6.050   4.811  0.4255 -2.9471  0.0520
   61MOL   H19615916   1.725   6.117   4.656 -4.0026 -0.8699 -2.3409
   61MOL   C19715917   1.735   5.901   4.654 -0.6148  0.5219 -1.1691
   61MOL   C19815918   1.873   5.869   4.701 -0.3854  0.8880  0.2509
   61MOL   C19915919   1.923   5.727   4.717 -0.3203  0.5410 -0.2136
   61MOL   C20015920   1.913   5.821   4.834  0.5662  0.2377  0.1319
   61MOL   C20115921   1.725   5.898   4.498  0.4729 -0.2229 -0.0528
   61MOL   H20215922   1.665   5.827   4.691 -0.4401  1.1912  0.5351
   61MOL   H20315923   1.944   5.948   4.680 -0.9512  1.0312 -1.1529
   61MOL   H20415924   1.849   5.649   4.700 -0.8681  1.5603 -2.8718
   61MOL   H20515925   2.023   5.695   4.688 -0.0231  0.1215  1.2496
   61MOL   H20615926   1.829   5.797   4.898  1.7286 -0.6801  1.3523
   61MOL   H20715927   2.004   5.857   4.881 -1.6522  2.7782  2.6792
   61MOL   H20815928   1.649   5.964   4.456  3.2489  1.0926 -3.2080
   61MOL   H20915929   1.811   5.955   4.464 -1.8237  3.7267  0.4362
   61MOL   C21015930   1.707   5.763   4.428  0.0888 -0.2474 -0.0535
   61MOL   C21115931   1.557   5.723   4.453  0.4233 -0.1141  0.0567
   61MOL   C21215932   1.509   5.583   4.418 -0.1746 -0.6368  0.0955
   61MOL   C21315933   1.531   5.628   4.563  0.5156 -0.0548  0.2016
   61MOL   C21415934   1.735   5.769   4.274 -0.2504 -0.3309 -0.3286
   61MOL   H21515935   1.778   5.695   4.475  1.1972  0.2111 -1.0727
   61MOL   H21615936   1.486   5.803   4.434 -1.8261 -2.4280 -1.7592
   61MOL   H21715937   1.405   5.569   4.388 -0.4283  1.0859  0.1415
   61MOL   H21815938   1.586   5.523   4.369  1.4943 -0.6385  2.6521
   61MOL   H21915939   1.450   5.672   4.620  0.8234  0.5134  0.2043
   61MOL   H22015940   1.615   5.587   4.619 -1.0581 -3.2497  0.2860
   61MOL   H22115941   1.841   5.794   4.268  0.1640 -1.4692  1.9012
   61MOL   H22215942   1.740   5.664   4.243  0.8232 -0.2472 -0.4681
   61MOL   C22315943   1.659   5.865   4.185 -0.2868  0.3815  1.4986
   61MOL   C22415944   1.514   5.826   4.150 -0.0399 -0.2289  0.3829
   61MOL   C22515945   1.384   5.896   4.209 -0.3415  0.2949  0.7571
   61MOL   C22615946   1.429   5.924   4.066  0.2875 -0.1056 -0.6312
   61MOL   C22715947   1.741   5.912   4.053 -0.4007  0.1576 -0.0321
   61MOL   H22815948   1.657   5.957   4.243  2.0936  1.9757 -0.8400
   61MOL   H22915949   1.503   5.726   4.108 -2.0818  0.4680 -0.8117
   61MOL   H23015950   1.386   5.972   4.286 -1.2230  1.3374 -0.2355
   61MOL   H23115951   1.292   5.838   4.219 -1.3735  1.5113 -1.3068
   61MOL   H23215952   1.355   5.876   4.001 -1.2459 -1.3908  1.9686
   61MOL   H23315953   1.463   6.025   4.045  1.7204 -0.1565  1.2880
   61MOL   H23415954   1.687   5.997   4.011 -2.5257 -1.6564 -1.0853
   61MOL   H23515955   1.835   5.950   4.093  0.1070 -0.9426 -0.1545
   61MOL   C23615956   1.771   5.798   3.946  0.8406  0.2888 -0.5703
   61MOL   C23715957   1.919   5.810   3.890 -0.0678  1.0568 -0.0055
   61MOL   C23815958   2.031   5.800   3.982  0.1722  0.7883 -0.7675
   61MOL   C23915959   2.003   5.681   3.893  0.0787 -0.6437 -0.3495
   61MOL   C24015960   1.673   5.805   3.833  0.3294 -0.1557  0.4520
   61MOL   H24115961   1.753   5.704   3.999 -0.9485  1.2002  0.4504
   61MOL   H24215962   1.934   5.870   3.800 -0.6509 -0.2704 -0.9924
   61MOL   H24315963   2.122   5.854   3.955 -1.2433  2.5198 -2.1474
   61MOL   H24415964   2.010   5.811   4.088  1.1713 -0.7282 -0.3854
   61MOL   H24515965   1.962   5.586   3.927 -3.5821  1.6626  2.0736
   61MOL   H24615966   2.068   5.662   3.808  0.8248 -1.3391  0.3760
   61MOL   H24715967   1.576   5.843   3.864  1.1156  1.3226  1.1169
   61MOL   H24815968   1.703   5.879   3.760  2.5809 -0.0165  1.4550
   61MOL   C24915969   1.654   5.671   3.763  0.2550 -0.0221  0.2624
   61MOL   C25015970   1.644   5.692   3.614 -0.3597  0.1415  0.2368
   61MOL   C25115971   1.759   5.693   3.528 -0.1647  0.9875  0.5849
   61MOL   C25215972   1.659   5.576   3.523 -0.3803  0.1880  0.1050
   61MOL   C25315973   1.532   5.610   3.818  1.4164 -0.5653  0.4243
   61MOL   H25415974   1.741   5.607   3.775  0.7770  0.0314 -2.7395
   61MOL   H25515975   1.566   5.756   3.574  0.1863  0.9514  0.4497
   61MOL   H25615976   1.751   5.767   3.449  0.4348  0.8545  0.3969
   61MOL   H25715977   1.859   5.676   3.569  0.5159  0.2292 -1.3612
   61MOL   H25815978   1.597   5.561   3.435 -1.1218  4.8712 -0.2885
   61MOL   H25915979   1.695   5.485   3.571  0.4489  1.3523  1.7428
   61MOL   H26015980   1.553   5.592   3.923  1.3700  0.6367  0.6517
   61MOL   H26115981   1.509   5.516   3.768 -0.7528 -0.6907  1.5887
   61MOL   H26215982   1.447   5.677   3.802  2.2229  0.5553  0.7324
   62MOL     C115983   3.598   2.922   7.719 -0.3142  0.0607  0.2696
   62MOL     C215984   3.522   3.033   7.653 -0.3776 -0.0645 -0.0110
   62MOL     C315985   3.381   3.061   7.692  0.1638  0.0216 -0.5312
   62MOL     C415986   3.412   3.007   7.558 -0.6675 -0.2710 -0.0113
   62MOL     C515987   3.713   2.875   7.631 -0.4238 -0.2827  0.0795
   62MOL     H615988   3.644   2.966   7.808 -1.4592  1.8637  0.0115
   62MOL     H715989   3.591   3.115   7.633 -0.6984 -0.1820 -1.6969
   62MOL     H815990   3.327   2.996   7.761  0.8669  1.4617  1.4156
   62MOL     H915991   3.336   3.160   7.682 -2.0930 -0.9352 -0.2365
   62MOL    H1015992   3.422   3.068   7.469 -0.9106  1.1316  0.9073
   62MOL    H1115993   3.404   2.900   7.543 -0.6070 -0.5061  1.5287
   62MOL    H1215994   3.776   2.961   7.610  0.2187 -0.5583  0.8692
   62MOL    H1315995   3.679   2.832   7.536 -2.0563  1.6165 -0.2250
   62MOL    H1415996   3.525   2.845   7.742 -2.0027  0.1987 -4.3097
   62MOL    C1515997   3.799   2.765   7.701 -0.5199 -0.4371  0.1308
   62MOL    C1615998   3.722   2.655   7.777  0.0784 -0.6544  0.5387
   62MOL    C1715999   3.709   2.654   0.087 -0.3827  0.2107 -0.1827
   62MOL    C1816000   3.798   2.552   0.023  0.1586 -0.4947 -0.4005
   62MOL    C1916001   3.906   2.711   7.604 -0.1557  0.6025  0.9753
   62MOL    H2016002   3.857   2.817   7.778 -2.6926 -2.0924  2.9739
   62MOL    H2116003   3.648   2.607   7.714 -0.0540  0.3206 -0.0477
   62MOL    H2216004   3.618   2.614   0.130  0.3003 -0.7727  0.3847
   62MOL    H2316005   3.745   2.744   0.135  1.3428 -1.0235  0.9374
   62MOL    H2416006   3.906   2.564   0.030  0.1372 -0.2778 -0.4481
   62MOL    H2516007   3.772   2.448   0.002 -0.1407 -0.1395 -1.8615
   62MOL    H2616008   3.865   2.659   7.518  1.7893 -1.3150  1.1810
   62MOL    H2716009   3.966   2.636   7.655  5.1245  3.0397 -1.3441
   62MOL    C2816010   4.014   2.806   7.543  0.1851  0.7415 -1.1913
   62MOL    C2916011   4.097   2.719   7.444  0.6594 -0.0982 -0.2126
   62MOL    C3016012   4.053   2.672   7.313  0.0048 -0.2876  0.1946
   62MOL    C3116013   4.158   2.780   7.322 -0.5385  0.3247 -0.0150
   62MOL    C3216014   4.100   2.878   7.651 -0.2530  0.1643  0.4787
   62MOL    H3316015   3.958   2.882   7.489 -2.5793 -0.0544  0.4769
   62MOL    H3416016   4.161   2.645   7.492 -0.8097 -1.1030  0.2592
   62MOL    H3516017   3.956   2.702   7.274  0.3436 -1.0428 -1.2866
   62MOL    H3616018   4.087   2.572   7.286  1.7265  0.2957  0.1276
   62MOL    H3716019   4.121   2.880   7.302  1.7922  1.4508  1.1554
   62MOL    H3816020   4.265   2.763   7.330 -0.7955 -0.6026  1.6352
   62MOL    H3916021   4.157   2.811   7.716 -3.0248 -3.0842 -0.3355
   62MOL    H4016022   4.043   2.922   7.733 -1.5463 -1.2846  0.3742
   62MOL    C4116023   4.174   2.993   7.585 -0.5946  0.3726  0.2681
   62MOL    C4216024   4.322   2.993   7.627 -0.5452  0.0829  0.1372
   62MOL    C4316025   4.428   2.999   7.515  0.6715  0.3045 -0.0541
   62MOL    C4416026   4.409   2.875   7.609 -0.2457  0.6360 -0.3846
   62MOL    C4516027   4.104   3.127   7.622  1.0273  0.1745  0.2457
   62MOL    H4616028   4.165   2.993   7.476  0.4911  0.6279  0.1755
   62MOL    H4716029   4.340   3.067   7.705 -2.3509  0.6217  0.0852
   62MOL    H4816030   4.393   2.981   7.414  0.2546  1.1863 -0.0635
   62MOL    H4916031   4.525   3.047   7.523  0.0227  1.9385 -1.8715
   62MOL    H5016032   4.473   2.835   7.687 -1.5179 -0.9607 -0.1366
   62MOL    H5116033   4.371   2.789   7.553 -3.3326  1.4066  0.3941
   62MOL    H5216034   4.074   3.135   7.726 -1.5605 -2.6873 -0.1986
   62MOL    H5316035   4.007   3.130   7.572  0.1812 -0.2721  1.8170
   62MOL    C5416036   4.170   3.256   7.579 -0.4673 -0.2529  0.1562
   62MOL    C5516037   4.157   3.272   7.427  0.6316 -0.7547  1.2779
   62MOL    C5616038   4.285   3.267   7.341 -0.0737 -0.5082 -0.1142
   62MOL    C5716039   4.220   3.398   7.364  0.0584 -0.1599 -1.2816
   62MOL    C5816040   4.099   3.367   7.655 -0.0799  0.1778  0.1869
   62MOL    H5916041   4.275   3.255   7.607 -0.5633 -1.1763  0.5050
   62MOL    H6016042   4.060   3.241   7.389  0.8745 -1.6263  1.3689
   62MOL    H6116043   4.375   3.263   7.402  0.1224 -0.9477 -0.4265
   62MOL    H6216044   4.294   3.223   7.242 -2.7524 -0.3990 -0.4476
   62MOL    H6316045   4.185   3.451   7.276 -1.7384  1.3829  0.3316
   62MOL    H6416046   4.271   3.469   7.429 -0.6722 -0.9881  0.2243
   62MOL    H6516047   4.116   3.464   7.608 -1.9738 -0.3324 -1.6585
   62MOL    H6616048   3.991   3.357   7.643 -0.1874  2.8574 -1.4650
   62MOL    C6716049   4.142   3.389   7.801 -0.5056 -0.2315 -0.1367
   62MOL    C6816050   4.258   3.476   7.808  0.3182 -0.4275 -0.1420
   62MOL    C6916051   4.346   3.471   0.089 -0.7272  0.6250  0.4475
   62MOL    C7016052   4.400   3.418   7.802 -0.2296  0.4015  0.0281
   62MOL    C7116053   4.020   3.446   0.051  0.7278  0.1762  0.2167
   62MOL    H7216054   4.172   3.291   7.836  0.4678 -0.0414 -0.4459
   62MOL    H7316055   4.231   3.576   7.776  0.5594  0.1326  1.3557
   62MOL    H7416056   4.396   3.560   0.129 -0.3281  1.6678 -2.2746
   62MOL    H7516057   4.341   3.389   0.161 -1.8050  1.0152  0.8264
   62MOL    H7616058   4.417   3.311   7.804 -0.3070  0.3982  2.5091
   62MOL    H7716059   4.468   3.482   7.745 -1.1205 -0.3748 -1.9642
   62MOL    H7816060   3.996   3.542   0.005 -1.9467 -1.1419 -1.2753
   62MOL    H7916061   4.065   3.477   0.145 -0.4174  0.7408  0.5910
   62MOL    C8016062   3.898   3.353   0.070 -0.0481  0.5836  0.3142
   62MOL    C8116063   3.765   3.430   0.034  0.1842  0.0344 -0.7152
   62MOL    C8216064   3.634   3.361   0.012  0.0660 -0.5459  0.0587
   62MOL    C8316065   3.699   3.428   7.733 -0.0481  0.5123  0.1097
   62MOL    C8416066   3.873   3.305   0.211  0.2972  0.4684 -0.4554
   62MOL    H8516067   3.912   3.266   0.006  2.1927  2.2241 -1.5241
   62MOL    H8616068   3.760   3.523   0.090 -0.5460  1.1661 -2.5919
   62MOL    H8716069   3.550   3.413   0.057  2.7309  1.8957  2.4555
   62MOL    H8816070   3.638   3.253   0.012 -1.4865 -0.6398 -2.2269
   62MOL    H8916071   3.733   3.361   7.654  1.3072  1.4098 -0.0799
   62MOL    H9016072   3.661   3.523   7.694 -2.0225 -0.7165 -1.0769
   62MOL    H9116073   3.854   3.396   0.267 -0.3217 -0.2148  0.4613
   62MOL    H9216074   3.786   3.240   0.221  1.9990 -1.7342  0.7184
   62MOL    C9316075   3.987   3.230   0.279 -0.4224  0.1576  0.2661
   62MOL    C9416076   3.956   3.208   0.424 -0.4336  0.1917 -0.5347
   62MOL    C9516077   4.056   3.240   0.537 -0.1598  0.1233 -0.0569
   62MOL    C9616078   3.918   3.314   0.522 -0.2718  0.7611 -0.0675
   62MOL    C9716079   4.044   3.099   0.215 -0.1103  0.4876  0.4449
   62MOL    H9816080   4.079   3.288   0.276  0.4795 -1.1592  1.5225
   62MOL    H9916081   3.928   3.104   0.441  0.8529 -0.0429  0.2482
   62MOL   H10016082   4.066   3.154   0.603  1.1581  0.1421 -0.2265
   62MOL   H10116083   4.153   3.282   0.513 -1.2926  4.5497  2.4564
   62MOL   H10216084   3.834   3.290   0.588  0.0217 -0.2430 -0.0526
   62MOL   H10316085   3.927   3.416   0.486 -2.6504  1.3288  0.8330
   62MOL   H10416086   4.071   3.127   0.113 -0.1417 -0.6450  0.1212
   62MOL   H10516087   3.957   3.033   0.210  1.2093 -1.3134  0.9281
   62MOL   C10616088   4.178   3.033   0.265 -0.5914 -0.8203  0.3175
   62MOL   C10716089   4.192   2.893   0.205  0.5423  0.6741 -0.7322
   62MOL   C10816090   4.233   2.774   0.286 -0.0333 -1.4111  0.0625
   62MOL   C10916091   4.089   2.785   0.235 -0.2939  0.4805 -0.0665
   62MOL   C11016092   4.297   3.123   0.229  0.3395 -0.1222  0.0852
   62MOL   H11116093   4.166   3.027   0.373 -0.0407 -1.9325  0.3246
   62MOL   H11216094   4.220   2.897   0.100  3.0241  1.2080 -0.0835
   62MOL   H11316095   4.306   2.703   0.246  0.1562 -0.5005 -1.2522
   62MOL   H11416096   4.248   2.786   0.393  0.8588 -1.9637  0.0016
   62MOL   H11516097   4.017   2.784   0.316  0.6616 -0.0420  0.8009
   62MOL   H11616098   4.058   2.748   0.137 -1.5294 -0.9278  0.8341
   62MOL   H11716099   4.287   3.145   0.123 -1.0227 -1.5151 -0.0845
   62MOL   H11816100   4.282   3.220   0.277 -0.3845 -0.2670  0.1505
   62MOL   C11916101   4.442   3.077   0.269 -0.0997 -0.1497  0.4135
   62MOL   C12016102   4.555   3.174   0.225 -1.0713  0.6569 -0.5952
   62MOL   C12116103   4.603   3.177   0.084 -0.7074  0.5571 -0.3798
   62MOL   C12216104   4.696   3.126   0.200 -0.0965 -0.9282  0.2502
   62MOL   C12316105   4.450   3.059   0.423  0.3706 -0.8875 -0.1347
   62MOL   H12416106   4.460   2.977   0.232  2.2751 -0.5928  2.6038
   62MOL   H12516107   4.544   3.274   0.267  2.1882 -0.3159  2.9421
   62MOL   H12616108   4.636   3.272   0.041 -1.1092  1.4108  1.1810
   62MOL   H12716109   4.567   3.091   0.028  0.3874 -0.8526  1.0241
   62MOL   H12816110   4.705   3.019   0.218  0.7914 -1.0016 -0.5565
   62MOL   H12916111   4.786   3.184   0.220 -0.3981 -0.1225 -0.6567
   62MOL   H13016112   4.466   3.160   0.462  0.0093 -0.5164 -0.9437
   62MOL   H13116113   4.353   3.031   0.463 -0.0395  2.0360  1.0035
   62MOL   C13216114   4.569   2.977   0.486 -0.1406  0.0259  0.4359
   62MOL   C13316115   4.551   2.832   0.458 -0.2505 -0.1856 -0.0321
   62MOL   C13416116   4.667   2.744   0.472  0.4252  0.2167  0.1958
   62MOL   C13516117   4.602   2.752   0.335 -0.1362  0.0102  1.3680
   62MOL   C13616118   4.583   3.011   0.642 -0.5210  1.0314 -0.1194
   62MOL   H13716119   4.659   3.008   0.433 -0.8144  0.7076 -0.3257
   62MOL   H13816120   4.459   2.798   0.505  0.4345 -1.8645  0.1564
   62MOL   H13916121   4.763   2.794   0.483  1.4477 -1.4725 -0.9308
   62MOL   H14016122   4.642   2.664   0.542  0.2052  1.2828  1.3566
   62MOL   H14116123   4.647   2.805   0.252 -1.2872  0.8201  1.2554
   62MOL   H14216124   4.543   2.664   0.309  0.4071 -0.4166  1.5713
   62MOL   H14316125   4.488   2.988   0.690  0.4128 -1.6159  0.5269
   62MOL   H14416126   4.642   2.933   0.690  0.9095  1.7529 -0.7012
   62MOL   C14516127   4.625   3.152   0.690 -0.7017 -0.6388 -0.1450
   62MOL   C14616128   4.604   3.174   0.839 -0.0637  0.9870 -0.4304
   62MOL   C14716129   4.577   3.304   0.906 -0.7896 -0.1775  0.1725
   62MOL   C14816130   4.470   3.210   0.880 -0.2512 -1.1054 -0.4310
   62MOL   C14916131   4.774   3.168   0.647  0.5297  0.4331 -0.1703
   62MOL   H15016132   4.564   3.231   0.648 -2.6454 -1.0048  1.9219
   62MOL   H15116133   4.654   3.101   0.901  0.4479  1.3161 -0.4502
   62MOL   H15216134   4.616   3.321   1.005 -1.8470 -2.0408  0.9393
   62MOL   H15316135   4.583   3.394   0.845 -2.6453  0.6961  1.2490
   62MOL   H15416136   4.403   3.263   0.813  0.4883  2.1579  1.3155
   62MOL   H15516137   4.414   3.168   0.963 -1.7819  2.3965  0.3837
   62MOL   H15616138   4.840   3.108   0.709 -0.2705 -1.0946 -0.7398
   62MOL   H15716139   4.783   3.117   0.551  0.0327  1.0183 -0.5331
   62MOL   C15816140   4.829   3.310   0.637 -0.4427 -0.2601  0.2783
   62MOL   C15916141   4.759   3.384   0.524 -0.2382  0.0909  0.0472
   62MOL   C16016142   4.626   3.459   0.545 -0.0303 -0.1441  0.1697
   62MOL   C16116143   4.756   3.533   0.505 -0.5333  0.6991 -0.6845
   62MOL   C16216144   4.981   3.322   0.608  0.2723  0.1572 -0.5077
   62MOL   H16316145   4.803   3.365   0.727  2.6680 -0.7981  1.5964
   62MOL   H16416146   4.762   3.324   0.433  0.0214 -0.1697  0.2275
   62MOL   H16516147   4.589   3.469   0.646 -2.0667 -1.5781 -0.4015
   62MOL   H16616148   4.547   3.455   0.470 -0.2658 -0.2004  0.4221
   62MOL   H16716149   4.759   3.583   0.408  1.0245 -1.2090 -1.6585
   62MOL   H16816150   4.795   3.601   0.580 -2.5238  0.5639  0.5039
   62MOL   H16916151   5.002   3.422   0.568 -2.1427 -0.0232 -2.2865
   62MOL   H17016152   5.005   3.252   0.528  1.8963 -0.4461  0.4661
   62MOL   C17116153   5.067   3.290   0.736 -0.0410 -0.3868 -0.2230
   62MOL   C17216154   5.212   3.260   0.689 -0.3015  0.0589  0.0767
   62MOL   C17316155   5.307   3.148   0.747 -0.2366  0.1968  0.4376
   62MOL   C17416156   5.235   3.129   0.609  0.3586  0.3404  0.0562
   62MOL   C17516157   5.065   3.408   0.833  0.6168  0.2208  0.3365
   62MOL   H17616158   5.029   3.200   0.784  0.8410  0.2912  1.7978
   62MOL   H17716159   5.261   3.343   0.638 -1.1231  1.2901  1.2665
   62MOL   H17816160   5.412   3.137   0.722 -0.8051 -2.9287 -0.8869
   62MOL   H17916161   5.277   3.089   0.834 -1.3592 -1.3378 -0.9504
   62MOL   H18016162   5.166   3.045   0.608  0.5456  0.1859 -1.5566
   62MOL   H18116163   5.305   3.133   0.525 -0.2240  0.9154 -0.4102
   62MOL   H18216164   4.963   3.446   0.839 -0.5396 -3.0422  2.8022
   62MOL   H18316165   5.129   3.486   0.793  1.4518 -0.7945 -0.3382
   62MOL   C18416166   5.111   3.381   0.981 -0.1385  0.4862 -0.0712
   62MOL   C18516167   5.003   3.328   1.084 -0.2558 -0.8171 -0.2088
   62MOL   C18616168   4.885   3.245   1.033  0.2392  0.1156 -0.2933
   62MOL   C18716169   4.861   3.378   1.091  0.1434  0.4005  0.1693
   62MOL   C18816170   5.186   3.508   1.033  0.0526  0.3550  0.0218
   62MOL   H18916171   5.188   3.304   0.983  0.5691  1.1865 -0.1091
   62MOL   H19016172   5.044   3.294   1.179  1.2036  1.0777 -0.1159
   62MOL   H19116173   4.856   3.161   1.096  2.2492  0.6481  1.3796
   62MOL   H19216174   4.869   3.213   0.930 -0.6895 -2.1700  0.5305
   62MOL   H19316175   4.817   3.382   1.190  2.7528  0.9017  1.3620
   62MOL   H19416176   4.839   3.456   1.019  0.9805  0.6156  0.1421
   62MOL   H19516177   5.162   3.519   1.139 -0.6799  0.7328 -0.1812
   62MOL   H19616178   5.131   3.589   0.985  1.7245  1.6109  0.1862
   62MOL   C19716179   5.340   3.515   1.011  0.0886 -0.2635 -0.1925
   62MOL   C19816180   5.402   3.405   1.096  0.1314  0.1758 -0.5324
   62MOL   C19916181   5.551   3.381   1.110  0.1857 -0.5386  0.0028
   62MOL   C20016182   5.466   3.290   1.020  0.3952 -0.5473  0.1254
   62MOL   C20116183   5.386   3.655   1.066 -0.5124  1.2999 -0.4109
   62MOL   H20216184   5.365   3.503   0.906 -3.3347  1.1378 -1.2529
   62MOL   H20316185   5.357   3.379   1.192  1.1124  0.2845 -0.0362
   62MOL   H20416186   5.624   3.445   1.061 -1.1399  0.4899 -0.6383
   62MOL   H20516187   5.570   3.342   1.210 -1.5673  0.7037  0.8336
   62MOL   H20616188   5.491   3.293   0.914 -0.5897  1.1018 -0.0788
   62MOL   H20716189   5.456   3.191   1.064 -2.1793 -0.5455 -0.3392
   62MOL   H20816190   5.361   3.669   1.171  0.5003  2.7478 -0.3511
   62MOL   H20916191   5.494   3.668   1.066 -0.0461 -2.1827 -2.3587
   62MOL   C21016192   5.331   3.782   1.000 -0.4606  0.2591  0.7571
   62MOL   C21116193   5.374   3.911   1.072  0.2961  0.9837 -0.8093
   62MOL   C21216194   5.302   4.042   1.056  0.1894 -0.2632  0.6202
   62MOL   C21316195   5.284   3.959   1.182 -0.2983  0.0892 -0.5848
   62MOL   C21416196   5.360   3.779   0.848 -0.3678  0.3642 -0.4583
   62MOL   H21516197   5.223   3.770   1.002 -0.2216 -2.7073 -0.7492
   62MOL   H21616198   5.481   3.918   1.089  0.5785 -2.7678 -0.5609
   62MOL   H21716199   5.359   4.134   1.057  2.7945 -1.8205 -0.7183
   62MOL   H21816200   5.209   4.048   0.999  1.8929  1.4429 -2.0513
   62MOL   H21916201   5.334   3.996   1.271  0.2132  0.2974 -0.9572
   62MOL   H22016202   5.195   3.900   1.199  0.8808 -1.6138 -0.2617
   62MOL   H22116203   5.468   3.794   0.840 -0.2879 -0.2647 -0.5704
   62MOL   H22216204   5.340   3.679   0.811  1.3451  0.3389 -1.4005
   62MOL   C22316205   5.298   3.880   0.750 -0.0419 -0.5797  0.8053
   62MOL   C22416206   5.152   3.826   0.704 -0.1752 -0.0277 -0.4306
   62MOL   C22516207   5.024   3.846   0.789 -0.1474 -0.4482  0.4191
   62MOL   C22616208   5.029   3.901   0.652  0.9172  0.3536  0.0211
   62MOL   C22716209   5.397   3.900   0.624  0.2228  0.3613  0.4348
   62MOL   H22816210   5.287   3.978   0.797  0.0073  0.6631 -1.6574
   62MOL   H22916211   5.165   3.732   0.650 -1.6483  0.3536 -1.5070
   62MOL   H23016212   5.041   3.912   0.874  2.0997  2.2992 -2.0531
   62MOL   H23116213   4.949   3.768   0.797  0.7531 -1.1103  3.2076
   62MOL   H23216214   4.976   3.851   0.571  1.4311 -0.0773 -0.0517
   62MOL   H23316215   5.012   4.009   0.652 -0.1886  0.2047  1.4807
   62MOL   H23416216   5.498   3.925   0.657 -0.0607  4.2873 -1.4377
   62MOL   H23516217   5.400   3.798   0.586  0.5363  1.1635 -1.7598
   62MOL   C23616218   5.353   4.011   0.525 -0.8019  0.5412  0.5274
   62MOL   C23716219   5.461   4.015   0.413 -0.3464  0.1693 -1.0803
   62MOL   C23816220   5.458   3.893   0.322 -0.3641 -1.1844 -0.3437
   62MOL   C23916221   5.424   4.026   0.268  0.3638 -0.2215  0.1815
   62MOL   C24016222   5.332   4.156   0.579  0.2882 -0.2286 -0.7179
   62MOL   H24116223   5.263   3.977   0.476  0.4987 -1.8870 -0.2550
   62MOL   H24216224   5.550   4.076   0.426 -0.6274  0.0728  1.5146
   62MOL   H24316225   5.552   3.843   0.297 -0.5159 -0.9649 -1.3735
   62MOL   H24416226   5.373   3.826   0.307  0.0521 -1.4403 -1.6282
   62MOL   H24516227   5.321   4.048   0.243  0.7488 -0.9484 -2.1974
   62MOL   H24616228   5.500   4.076   0.209 -0.0255  1.4666  1.0858
   62MOL   H24716229   5.262   4.137   0.660  0.8134  0.9418  0.0260
   62MOL   H24816230   5.429   4.192   0.616  0.0819  1.0728 -1.4127
   62MOL   C24916231   5.268   4.263   0.485  0.1622 -0.0046  0.1998
   62MOL   C25016232   5.270   4.403   0.549 -0.4086 -0.0564 -0.2055
   62MOL   C25116233   5.390   4.482   0.528  0.6078  0.2123 -0.5738
   62MOL   C25216234   5.255   4.533   0.478  0.5030  0.2903  0.7000
   62MOL   C25316235   5.117   4.232   0.453 -0.2339 -0.4450  0.3181
   62MOL   H25416236   5.313   4.270   0.386 -1.4412  0.7525 -0.4923
   62MOL   H25516237   5.239   4.403   0.653  1.7063  0.3081  0.4656
   62MOL   H25616238   5.431   4.528   0.617 -2.4072 -3.0040  2.6264
   62MOL   H25716239   5.467   4.450   0.458  1.8474  2.0259 -0.0654
   62MOL   H25816240   5.205   4.613   0.531  0.2530  0.6083 -0.0018
   62MOL   H25916241   5.235   4.538   0.371  0.5308  2.9972  0.7891
   62MOL   H26016242   5.053   4.246   0.540  0.2357  0.6438  0.4967
   62MOL   H26116243   5.099   4.131   0.416  1.5580  0.2134 -2.4665
   62MOL   H26216244   5.067   4.303   0.387 -2.2973 -3.1657 -1.1720
   63MOL     C116245   0.647   6.996   0.819  0.4249 -0.1939 -0.1960
   63MOL     C216246   0.772   6.917   0.798 -0.2294  0.1568 -1.0880
   63MOL     C316247   0.887   6.933   0.896  0.2053 -0.1023  0.3721
   63MOL     C416248   0.909   6.972   0.755 -0.4398  0.2049 -0.6651
   63MOL     C516249   0.570   7.029   0.696  0.5452  0.3094  0.1663
   63MOL     H616250   0.588   6.930   0.883  1.9708  0.0127  1.4676
   63MOL     H716251   0.751   6.813   0.774 -0.7873 -0.1703  0.7717
   63MOL     H816252   0.873   7.014   0.968  2.3906 -0.0635  0.7796
   63MOL     H916253   0.938   6.846   0.936 -1.5113 -1.8583 -1.1701
   63MOL    H1016254   0.959   6.904   0.686 -1.7397 -1.6318  0.1509
   63MOL    H1116255   0.926   7.077   0.732  0.0531  0.0503 -1.0437
   63MOL    H1216256   0.563   6.942   0.629 -1.3885  0.5039  0.0944
   63MOL    H1316257   0.627   7.107   0.646  2.4242 -0.3321  1.2485
   63MOL    H1416258   0.668   7.080   0.884  0.9833  0.6515 -1.4392
   63MOL    C1516259   0.419   7.071   0.720  0.1578 -0.9381  0.2171
   63MOL    C1616260   0.401   7.185   0.823 -0.2584  0.0033 -0.1169
   63MOL    C1716261   0.372   7.155   0.975  1.0948 -0.1407 -0.7213
   63MOL    C1816262   0.261   7.206   0.884 -0.6075 -0.3723 -0.7449
   63MOL    C1916263   0.349   7.108   0.594 -0.1299 -0.2430  0.0157
   63MOL    H2016264   0.371   6.981   0.758 -2.4650  0.6481  0.7296
   63MOL    H2116265   0.465   7.272   0.802  1.0352 -0.9834 -0.3293
   63MOL    H2216266   0.418   7.226   1.044 -0.2803 -1.0688  1.1994
   63MOL    H2316267   0.376   7.055   1.018  0.8976  0.1949  0.0886
   63MOL    H2416268   0.186   7.130   0.863  0.0076 -0.7647 -1.5586
   63MOL    H2516269   0.238   7.309   0.856  2.7023 -0.2433 -3.1928
   63MOL    H2616270   0.397   7.193   0.547 -0.8689  0.4183  0.4445
   63MOL    H2716271   0.251   7.151   0.616 -0.2138  1.4343 -3.3375
   63MOL    C2816272   0.320   7.001   0.487 -0.2656  0.4233 -0.2750
   63MOL    C2916273   0.256   6.876   0.550 -0.4556  0.1751 -0.0886
   63MOL    C3016274   0.114   6.889   0.607 -0.2723 -0.3665  0.0587
   63MOL    C3116275   0.141   6.802   0.483 -0.2129 -0.3618 -0.0629
   63MOL    C3216276   0.440   6.969   0.390 -0.9113 -0.6229  0.4290
   63MOL    H3316277   0.245   7.042   0.419  2.0273  2.2841 -1.7406
   63MOL    H3416278   0.323   6.815   0.611  1.2340  2.3696  0.2892
   63MOL    H3516279   0.055   6.977   0.584 -0.8900 -1.3449 -2.1552
   63MOL    H3616280   0.098   6.840   0.703  1.6289 -0.3273  0.4155
   63MOL    H3716281   0.108   6.848   0.390 -0.2945  0.0443  0.1660
   63MOL    H3816282   0.134   6.693   0.485  1.8658 -0.5006  1.4910
   63MOL    H3916283   0.403   6.882   0.335 -1.2845  0.3248 -0.8143
   63MOL    H4016284   0.525   6.935   0.449 -2.1579 -0.1413  2.5905
   63MOL    C4116285   0.480   7.080   0.284  0.1515 -1.2107  0.2452
   63MOL    C4216286   0.494   7.028   0.132 -0.4010 -0.2862  0.0668
   63MOL    C4316287   0.438   7.110   0.018 -0.1174  0.0276 -0.1932
   63MOL    C4416288   0.374   6.970   0.048  0.1884 -0.4259  0.0461
   63MOL    C4516289   0.618   7.147   0.323  0.6686 -0.6310  0.5616
   63MOL    H4616290   0.401   7.156   0.284  0.5457 -0.8033  0.7311
   63MOL    H4716291   0.593   6.986   0.114  0.5873  1.5673  0.9746
   63MOL    H4816292   0.373   7.196   0.030  0.3925  0.3995 -0.1252
   63MOL    H4916293   0.494   7.102   7.765 -2.0586  1.7253 -1.5622
   63MOL    H5016294   0.396   6.895   7.812 -0.0991 -1.2239  0.7582
   63MOL    H5116295   0.283   6.959   0.107  0.1941  3.0149  0.8300
   63MOL    H5216296   0.699   7.075   0.313 -0.7190 -2.0567 -0.9471
   63MOL    H5316297   0.627   7.178   0.427  2.2273  4.0911 -0.8518
   63MOL    C5416298   0.649   7.275   0.242  0.0221 -0.1971 -0.6240
   63MOL    C5516299   0.539   7.388   0.256 -0.2884  0.3048  0.3183
   63MOL    C5616300   0.567   7.536   0.292  0.3257  0.4140 -0.4739
   63MOL    C5716301   0.501   7.450   0.393 -0.2135  0.5164  0.1154
   63MOL    C5816302   0.792   7.318   0.283  0.5448  0.5481  0.3416
   63MOL    H5916303   0.649   7.258   0.134 -1.7035  0.1543 -0.7089
   63MOL    H6016304   0.461   7.367   0.183  0.2332 -2.9072  0.6064
   63MOL    H6116305   0.661   7.577   0.327  0.1890  1.2963 -1.1368
   63MOL    H6216306   0.498   7.609   0.251 -0.9296 -0.9744 -0.9218
   63MOL    H6316307   0.393   7.459   0.392 -0.4395 -1.8768 -2.6749
   63MOL    H6416308   0.564   7.420   0.477  0.9790  1.8682 -0.2898
   63MOL    H6516309   0.815   7.419   0.247  0.8161  1.1105  2.0486
   63MOL    H6616310   0.803   7.327   0.391 -0.0705  0.3024  0.4243
   63MOL    C6716311   0.917   7.237   0.232  0.0430  0.7344  0.3208
   63MOL    C6816312   0.893   7.203   0.083  0.3912 -0.1300  0.4722
   63MOL    C6916313   0.961   7.109   7.838  0.2607  0.4475 -0.0919
   63MOL    C7016314   0.817   7.077   0.049 -0.0275 -0.0496 -0.2399
   63MOL    C7116315   1.048   7.319   0.253 -0.8535 -0.3015  0.5050
   63MOL    H7216316   0.911   7.143   0.286  0.5143  1.1949  1.2022
   63MOL    H7316317   0.858   7.288   0.025  0.3087 -1.4678 -1.4697
   63MOL    H7416318   0.983   7.154   7.741 -0.7870  1.8526  0.3015
   63MOL    H7516319   1.041   7.051   0.043  0.5655  0.5922 -0.4499
   63MOL    H7616320   0.801   7.015   0.137 -1.0981 -1.2171 -1.2267
   63MOL    H7716321   0.738   7.082   7.814  0.2855 -0.0916 -0.5815
   63MOL    H7816322   1.048   7.368   0.350 -1.3457  0.6623  0.0297
   63MOL    H7916323   1.048   7.399   0.179 -1.4208 -0.8655 -0.1218
   63MOL    C8016324   1.174   7.238   0.244 -0.5665 -1.2156  0.5417
   63MOL    C8116325   1.191   7.142   0.364  0.4914 -0.0579 -0.0782
   63MOL    C8216326   1.299   7.034   0.354  0.1852  0.3415  0.5508
   63MOL    C8316327   1.159   6.997   0.371 -0.1233  0.3229  0.1097
   63MOL    C8416328   1.308   7.319   0.226 -0.4354 -0.6755  0.2786
   63MOL    H8516329   1.170   7.179   0.153  0.0289  0.5852 -0.6759
   63MOL    H8616330   1.185   7.191   0.461 -2.3517 -2.0645  0.8298
   63MOL    H8716331   1.371   7.035   0.435  1.4752  0.6753 -0.5770
   63MOL    H8816332   1.350   7.023   0.259  1.1704  1.1208  0.9775
   63MOL    H8916333   1.109   6.950   0.287  0.0284  1.0368 -0.3911
   63MOL    H9016334   1.133   6.955   0.468  0.7723  0.9770  0.6432
   63MOL    H9116335   1.330   7.378   0.315  1.4620 -2.1373  0.8307
   63MOL    H9216336   1.396   7.257   0.206  1.0864  2.1969 -2.3326
   63MOL    C9316337   1.301   7.423   0.108 -0.1881  0.3166  0.3091
   63MOL    C9416338   1.421   7.511   0.097  0.0740  0.6617  0.4354
   63MOL    C9516339   1.401   7.644   0.029  0.1232  0.1658  0.7597
   63MOL    C9616340   1.427   7.641   0.176  0.3719  0.1381 -0.1440
   63MOL    C9716341   1.269   7.360   7.805  0.3639  0.3138 -0.4138
   63MOL    H9816342   1.217   7.490   0.127 -0.5617 -0.0731  0.0418
   63MOL    H9916343   1.519   7.466   0.083  0.5861  2.1471 -0.9274
   63MOL   H10016344   1.487   7.665   7.804 -0.1289  2.6372  1.1764
   63MOL   H10116345   1.299   7.668   7.839  0.7166  1.6973 -0.1572
   63MOL   H10216346   1.522   7.664   0.223  0.4484 -2.7527  1.2279
   63MOL   H10316347   1.346   7.668   0.245 -2.4154 -2.3256 -2.3107
   63MOL   H10416348   1.221   7.433   7.741 -0.6087 -0.1779 -0.2672
   63MOL   H10516349   1.176   7.305   7.821  0.4913  0.0349 -0.6213
   63MOL   C10616350   1.373   7.273   7.739 -0.2341 -0.0056  0.4968
   63MOL   C10716351   1.311   7.139   7.694  0.6076  0.5284  0.3612
   63MOL   C10816352   1.407   7.011   7.667  0.4460  0.1360 -0.3718
   63MOL   C10916353   1.303   7.012   7.775  0.5485 -0.5465  0.0360
   63MOL   C11016354   1.437   7.362   7.629  0.2668  0.8081  0.0932
   63MOL   H11116355   1.455   7.251   7.807 -0.4265  0.3391  0.8459
   63MOL   H11216356   1.231   7.165   7.624  1.0150 -0.7138 -0.5893
   63MOL   H11316357   1.387   6.939   7.588  3.2656 -0.9444 -0.1471
   63MOL   H11416358   1.511   7.015   7.699  0.4804 -0.2670 -0.4392
   63MOL   H11516359   1.341   7.009   0.037 -0.3757 -1.6367  0.3575
   63MOL   H11616360   1.218   6.948   7.754 -0.5978  0.7250  0.7059
   63MOL   H11716361   1.353   7.391   7.566  1.2644  0.3220 -1.4819
   63MOL   H11816362   1.465   7.464   7.655  1.7442  1.1560 -2.6282
   63MOL   C11916363   1.546   7.303   7.532 -0.0645 -0.0883  0.1159
   63MOL   C12016364   1.522   7.375   7.398  0.2281  0.2015  0.2935
   63MOL   C12116365   1.404   7.330   7.312 -0.0772  0.4901  0.0508
   63MOL   C12216366   1.545   7.319   7.258  0.0561 -0.8661  0.6907
   63MOL   C12316367   1.685   7.332   7.598 -0.3399  0.3815 -0.4479
   63MOL   H12416368   1.515   7.201   7.511  1.3208 -0.6742  0.8872
   63MOL   H12516369   1.543   7.482   7.396  0.9615  0.0797  1.2946
   63MOL   H12616370   1.340   7.411   7.278  1.3401  1.7108  0.2476
   63MOL   H12716371   1.349   7.236   7.320 -0.8750  0.8760 -0.7626
   63MOL   H12816372   1.592   7.221   7.252 -0.4324 -1.1606  1.5029
   63MOL   H12916373   1.558   7.382   7.171  1.0172  2.1360  2.9481
   63MOL   H13016374   1.704   7.439   7.597 -0.9970  0.5226  0.7298
   63MOL   H13116375   1.694   7.299   7.702 -0.8940  0.9659 -0.2111
   63MOL   C13216376   1.815   7.283   7.521  0.2602 -0.0690  0.1793
   63MOL   C13316377   1.856   7.145   7.565 -0.2058 -0.4255  0.3193
   63MOL   C13416378   1.961   7.076   7.476 -0.3994 -0.2812 -0.0902
   63MOL   C13516379   1.816   7.019   7.492 -1.1071 -0.2821  1.2172
   63MOL   C13616380   1.934   7.383   7.541  0.4360  0.2735  0.1937
   63MOL   H13716381   1.792   7.283   7.415 -0.0623  0.9246  0.2495
   63MOL   H13816382   1.887   7.131   7.668  0.3229  1.8382  0.4996
   63MOL   H13916383   1.988   7.135   7.388  0.3767  0.8274  0.8645
   63MOL   H14016384   2.042   7.020   7.522 -2.5453 -0.3717  3.8163
   63MOL   H14116385   1.749   7.032   7.407 -2.1191  0.0802  2.0534
   63MOL   H14216386   1.805   6.931   7.555 -0.4808 -2.8224 -2.0875
   63MOL   H14316387   1.978   7.368   7.639 -0.2402 -2.4535  0.1070
   63MOL   H14416388   2.013   7.347   7.475 -1.1603 -0.9693 -1.0861
   63MOL   C14516389   1.924   7.530   7.497 -0.9099 -0.1791 -1.0156
   63MOL   C14616390   2.057   7.599   7.513  0.2658 -0.0219  0.3713
   63MOL   C14716391   2.078   7.745   7.545  0.0164 -0.1030  0.7646
   63MOL   C14816392   2.109   7.646   7.647 -0.1904  0.0156  0.0518
   63MOL   C14916393   1.859   7.549   7.358  0.0374 -0.6593 -0.1587
   63MOL   H15016394   1.852   7.578   7.564  1.4931  0.5070  1.1397
   63MOL   H15116395   2.134   7.544   7.459  0.5713 -0.8909  1.6724
   63MOL   H15216396   2.155   7.797   7.488 -2.0397  4.7748  2.1501
   63MOL   H15316397   1.990   7.808   7.556  1.8527  2.3398  1.8413
   63MOL   H15416398   2.042   7.632   7.732  1.5749  0.9645  1.6236
   63MOL   H15516399   2.213   7.623   7.664 -0.1695 -1.1676 -1.6216
   63MOL   H15616400   1.929   7.519   7.280 -1.6234  0.4645 -2.1264
   63MOL   H15716401   1.766   7.495   7.343  0.2368 -1.1500  0.3542
   63MOL   C15816402   1.822   7.693   7.299  0.4274 -0.4799  0.0774
   63MOL   C15916403   1.678   7.731   7.330 -0.3192 -0.0001  0.0761
   63MOL   C16016404   1.644   7.746   7.481 -0.1535 -0.3661  0.4931
   63MOL   C16116405   1.644   0.026   7.391 -0.0265 -0.2391  0.1837
   63MOL   C16216406   1.840   7.716   7.148  0.4492 -0.2429  0.4838
   63MOL   H16316407   1.873   7.769   7.357 -2.9154  3.5378 -1.9683
   63MOL   H16416408   1.603   7.678   7.273 -0.9710 -0.9401  1.7833
   63MOL   H16516409   1.726   7.748   7.553  0.1605 -0.4495  0.1433
   63MOL   H16616410   1.555   7.696   7.518  0.9529 -2.2845  0.6626
   63MOL   H16716411   1.550   0.071   7.358  1.2412  2.4923  0.1512
   63MOL   H16816412   1.723   0.096   7.416 -2.4933  2.2827  1.1933
   63MOL   H16916413   1.784   7.806   7.123 -2.5081 -1.8993  0.9711
   63MOL   H17016414   1.785   7.630   7.108 -2.1050  1.7109 -0.2923
   63MOL   C17116415   1.984   7.716   7.089 -0.0228  0.6865 -0.0873
   63MOL   C17216416   1.977   7.690   6.938  0.4982 -0.4380  0.3652
   63MOL   C17316417   2.062   7.589   6.862  0.5354 -0.7904 -0.2301
   63MOL   C17416418   1.912   7.560   6.888 -0.8923  0.1201 -0.6989
   63MOL   C17516419   2.058   0.010   7.112  0.3698  0.4394 -0.0883
   63MOL   H17616420   2.036   7.630   7.131  0.2983  0.5314 -0.7902
   63MOL   H17716421   1.960   7.788   6.894  0.6277 -0.0277  1.2106
   63MOL   H17816422   2.077   7.616   6.757 -2.7235  3.0257  0.1448
   63MOL   H17916423   2.141   7.529   6.906 -1.3275 -2.5146  0.8788
   63MOL   H18016424   1.899   7.485   6.966  1.1024 -0.8059 -1.2337
   63MOL   H18116425   1.838   7.574   6.809 -1.4493 -0.7639 -0.3363
   63MOL   H18216426   2.043   0.030   7.218 -0.7965 -1.9908  0.2400
   63MOL   H18316427   2.007   0.097   7.070 -1.9513  0.4045  2.4860
   63MOL   C18416428   2.207   0.016   7.069  0.1314 -0.1255 -0.0549
   63MOL   C18516429   2.297   7.792   7.164 -0.0837  0.1556  0.1701
   63MOL   C18616430   2.419   7.724   7.113 -0.0906 -0.1012 -0.0959
   63MOL   C18716431   2.307   7.647   7.173  0.6769  0.3760 -0.4751
   63MOL   C18816432   2.257   0.163   7.063 -0.0028  0.2881  0.3422
   63MOL   H18916433   2.211   7.806   6.972 -0.0786  0.7718 -0.5185
   63MOL   H19016434   2.300   0.009   7.257  0.4300 -0.6519  0.6543
   63MOL   H19116435   2.509   7.731   7.174  0.6566  0.5234 -1.2508
   63MOL   H19216436   2.429   7.733   7.005  0.8924  0.2977  0.0128
   63MOL   H19316437   2.330   7.612   7.273 -1.5497 -0.4904 -0.2290
   63MOL   H19416438   2.247   7.590   7.102  2.3836 -1.0803 -0.7723
   63MOL   H19516439   2.307   0.190   7.156  2.5639 -1.1235 -0.5698
   63MOL   H19616440   2.174   0.228   7.036 -2.0740 -2.1624  0.5861
   63MOL   C19716441   2.346   0.184   6.934  0.0113 -0.1594 -0.6111
   63MOL   C19816442   2.439   0.305   6.954  0.2391 -0.5635 -0.2353
   63MOL   C19916443   2.578   0.311   6.893 -0.1632 -0.2893  0.2502
   63MOL   C20016444   2.567   0.272   7.038 -0.4719 -0.2328 -0.4386
   63MOL   C20116445   2.278   0.193   6.798  0.1583 -0.1830  0.0567
   63MOL   H20216446   2.417   0.102   6.941 -1.4414 -1.2970  1.0760
   63MOL   H20316447   2.390   0.399   6.978  1.3171 -0.0303 -0.1117
   63MOL   H20416448   2.606   0.227   6.829 -1.8723  0.9906 -2.3088
   63MOL   H20516449   2.614   0.411   6.870 -0.0077 -0.0195  1.6641
   63MOL   H20616450   2.602   0.172   7.061 -1.9190 -1.1417 -2.0745
   63MOL   H20716451   2.592   0.349   7.111 -2.3633  1.8765 -1.9180
   63MOL   H20816452   2.188   0.133   6.810 -0.5155  0.9251  0.5945
   63MOL   H20916453   2.239   0.293   6.780  1.0305 -0.2170 -2.1540
   63MOL   C21016454   2.354   0.145   6.671 -0.4375 -0.4569  0.5896
   63MOL   C21116455   2.371   7.838   6.672  0.6792 -0.0979 -0.1972
   63MOL   C21216456   2.465   7.758   6.587  0.1460  0.0560 -0.1635
   63MOL   C21316457   2.483   7.764   6.738 -0.5574  0.7230 -0.0911
   63MOL   C21416458   2.291   0.205   6.545  0.2781 -0.4497  0.4717
   63MOL   H21516459   2.449   0.198   6.675  0.3579 -1.9644  2.7063
   63MOL   H21616460   2.275   7.788   6.680  1.2414 -1.3787 -1.1583
   63MOL   H21716461   2.427   7.666   6.543 -1.1486  1.1131 -1.2904
   63MOL   H21816462   2.550   7.806   6.541  0.2562 -0.0145 -0.0329
   63MOL   H21916463   2.452   7.675   6.793 -0.8535  0.0273 -1.3557
   63MOL   H22016464   2.577   7.810   6.768 -0.6077  1.1721 -0.6085
   63MOL   H22116465   2.303   0.154   6.450  0.6173  0.7954 -0.1641
   63MOL   H22216466   2.183   0.217   6.549  0.2317 -0.7710  0.1164
   63MOL   C22316467   2.347   0.355   6.517 -0.2854 -0.3437  0.7308
   63MOL   C22416468   2.246   0.428   6.436  0.6155 -0.1279 -0.2023
   63MOL   C22516469   2.120   0.468   6.505  0.0642 -0.4083 -1.1117
   63MOL   C22616470   2.219   0.573   6.445  0.6837 -0.3725 -0.1545
   63MOL   C22716471   2.481   0.350   6.432  0.1954 -0.3967 -0.4913
   63MOL   H22816472   2.368   0.414   6.606  0.0930  0.5174  0.0781
   63MOL   H22916473   2.230   0.389   6.336 -0.9730 -0.4703  0.1810
   63MOL   H23016474   2.121   0.457   6.613 -0.1900 -0.3304 -1.1009
   63MOL   H23116475   2.029   0.427   6.461  0.5853 -3.3433  0.4699
   63MOL   H23216476   2.176   0.634   6.366  0.0147  0.6745  1.0018
   63MOL   H23316477   2.287   0.630   6.507  2.9936  1.4542 -4.1489
   63MOL   H23416478   2.539   0.275   6.487  0.3034  1.5507  2.1576
   63MOL   H23516479   2.469   0.292   6.340 -1.5653 -0.0730 -0.4708
   63MOL   C23616480   2.558   0.487   6.407 -0.6445  1.1836 -0.1994
   63MOL   C23716481   2.630   0.490   6.273  0.4130 -0.4508 -0.2518
   63MOL   C23816482   2.558   0.488   6.141  0.0405  0.1706 -0.5207
   63MOL   C23916483   2.633   0.608   6.186  0.1035  0.2868 -0.1034
   63MOL   C24016484   2.655   0.534   6.526 -0.6564 -0.3381  0.0284
   63MOL   H24116485   2.478   0.560   6.400 -2.3009 -0.5386  0.1776
   63MOL   H24216486   2.725   0.437   6.283  0.1246 -0.9312 -0.0461
   63MOL   H24316487   2.602   0.438   6.055  0.6285  0.4347 -0.3720
   63MOL   H24416488   2.450   0.485   6.152  0.2838 -2.1072  1.6432
   63MOL   H24516489   2.564   0.686   6.216 -1.7388 -2.4864  3.1988
   63MOL   H24616490   2.726   0.636   6.137  0.5783 -0.6243  0.2681
   63MOL   H24716491   2.605   0.513   6.621 -0.3435  0.1085  0.2958
   63MOL   H24816492   2.740   0.466   6.530  1.3793  2.0963 -0.5055
   63MOL   C24916493   2.714   0.674   6.516 -0.1568 -0.2566  0.2674
   63MOL   C25016494   2.800   0.716   6.636  0.0057  0.3184  0.3494
   63MOL   C25116495   2.951   0.695   6.653 -0.1712 -0.6353  0.2803
   63MOL   C25216496   2.892   0.835   6.625  0.1560 -0.5008 -0.2633
   63MOL   C25316497   2.611   0.783   6.491  0.1631 -0.5617 -0.0904
   63MOL   H25416498   2.774   0.676   6.425 -2.2485 -1.1086 -1.1645
   63MOL   H25516499   2.741   0.720   6.727 -0.4502  1.7167  0.0102
   63MOL   H25616500   3.005   0.695   6.747  0.9411 -1.3649 -0.3338
   63MOL   H25716501   2.996   0.639   6.571 -0.9198  0.4174 -0.8610
   63MOL   H25816502   2.881   0.912   6.701  1.3648  2.5739 -3.1112
   63MOL   H25916503   2.916   0.873   6.526  0.4641 -0.2805 -0.1054
   63MOL   H26016504   2.566   0.789   6.591  0.8225 -1.9647  0.2976
   63MOL   H26116505   2.545   0.779   6.405 -1.4800 -1.1893  1.1633
   63MOL   H26216506   2.663   0.873   6.457  0.8805 -1.7440 -2.2107
   64MOL     C116507   1.302   3.282   5.711 -0.4054 -0.1724 -0.3303
   64MOL     C216508   1.190   3.295   5.614  1.0007 -0.0294  0.6829
   64MOL     C316509   1.192   3.404   5.508 -1.1742 -0.4207  0.0749
   64MOL     C416510   1.101   3.417   5.629  0.4348  0.3644  0.0702
   64MOL     C516511   1.407   3.173   5.687 -0.4231  0.0113  0.3307
   64MOL     H616512   1.355   3.376   5.721  1.2776 -1.2179  0.8978
   64MOL     H716513   1.134   3.205   5.589  0.6566  0.4296 -0.2106
   64MOL     H816514   1.280   3.468   5.510 -0.2133 -1.6481 -1.4671
   64MOL     H916515   1.148   3.390   5.409 -0.8770  0.2708 -0.1555
   64MOL    H1016516   0.997   3.383   5.629  0.8561 -0.9906 -1.2222
   64MOL    H1116517   1.136   3.494   5.697  2.4132 -0.8861  0.5100
   64MOL    H1216518   1.441   3.172   5.583 -1.6677 -3.8559 -0.1353
   64MOL    H1316519   1.352   3.080   5.704  0.9167 -0.7289  0.6318
   64MOL    H1416520   1.262   3.267   5.811 -2.2222 -1.7969 -1.2489
   64MOL    C1516521   1.532   3.194   5.771  0.5161  0.0348 -0.4966
   64MOL    C1616522   1.599   3.063   5.789 -0.1585  0.2386 -0.5325
   64MOL    C1716523   1.531   2.953   5.869 -0.0060  0.0950 -0.1555
   64MOL    C1816524   1.656   3.010   5.923 -0.2673 -0.2358 -0.3770
   64MOL    C1916525   1.639   3.293   5.709  0.2459 -0.0197  0.3725
   64MOL    H2016526   1.486   3.227   5.864 -1.1685  2.4958 -2.1434
   64MOL    H2116527   1.647   3.023   5.700 -0.5168  1.0587 -1.0931
   64MOL    H2216528   1.539   2.847   5.849  0.9345  0.2387 -0.5830
   64MOL    H2316529   1.431   2.990   5.891 -0.0453 -0.2600  0.2647
   64MOL    H2416530   1.651   3.080   6.007  0.3869 -1.5749  0.8043
   64MOL    H2516531   1.745   2.947   5.928  0.1277  0.4094  1.2880
   64MOL    H2616532   1.571   3.343   5.640 -1.6508 -1.3400  1.2543
   64MOL    H2716533   1.706   3.237   5.643 -0.0750  0.4875 -0.4004
   64MOL    C2816534   1.705   3.409   5.783 -1.0686  0.1325  0.4938
   64MOL    C2916535   1.782   3.502   5.685 -0.1351  0.0155 -0.1421
   64MOL    C3016536   1.905   3.451   5.622  0.4939 -0.1774  0.9952
   64MOL    C3116537   1.786   3.500   5.532  0.2794  1.0284  0.2729
   64MOL    C3216538   1.793   3.362   5.900 -0.4526  0.1872  0.1026
   64MOL    H3316539   1.633   3.478   5.827  2.4054  4.1305  0.2265
   64MOL    H3416540   1.796   3.602   5.725  1.6551 -0.3086  0.0499
   64MOL    H3516541   1.931   3.346   5.639  0.1257 -0.5183 -0.4502
   64MOL    H3616542   1.990   3.518   5.632  2.4410 -2.3251 -0.5177
   64MOL    H3716543   1.750   3.415   5.474  1.4191 -0.3058  1.4707
   64MOL    H3816544   1.793   3.596   5.481  0.0405  0.2071 -1.3516
   64MOL    H3916545   1.879   3.300   5.873 -1.2932 -1.3179  0.8416
   64MOL    H4016546   1.746   3.289   5.967  0.4067 -1.1483 -0.7253
   64MOL    C4116547   1.847   3.478   5.986 -0.0220 -0.7027  0.2623
   64MOL    C4216548   1.988   3.457   6.045 -0.1538  0.0936 -0.1401
   64MOL    C4316549   2.082   3.574   6.069  0.0007 -0.1358  0.4321
   64MOL    C4416550   2.117   3.463   5.975  0.6298  0.2425  0.2604
   64MOL    C4516551   1.752   3.512   6.105  0.1005  0.1578 -0.2742
   64MOL    H4616552   1.838   3.570   5.928 -1.8562 -0.8194  0.3142
   64MOL    H4716553   1.992   3.388   6.129 -1.8854  0.4861  0.2912
   64MOL    H4816554   2.049   3.671   6.032  1.0769  0.7781  1.8022
   64MOL    H4916555   2.116   3.580   6.172  2.2924  0.2710 -0.3202
   64MOL    H5016556   2.199   3.398   6.007  0.2795 -0.9250 -1.1719
   64MOL    H5116557   2.102   3.475   5.867 -0.2377 -2.5456  0.0213
   64MOL    H5216558   1.775   3.441   6.184 -2.2970  0.9634  1.1853
   64MOL    H5316559   1.653   3.490   6.064 -0.4764  1.7916  0.1917
   64MOL    C5416560   1.749   3.663   6.152 -0.1218 -0.3920 -0.1473
   64MOL    C5516561   1.692   3.750   6.045 -0.7003  0.1838  0.9022
   64MOL    C5616562   1.780   3.829   5.950 -0.1288  0.4332  0.3790
   64MOL    C5716563   1.703   3.907   6.059 -0.3851  0.6179  0.3920
   64MOL    C5816564   1.668   3.684   6.283  0.1488  0.4889  0.0804
   64MOL    H5916565   1.852   3.693   6.175 -0.4174 -0.2930  1.0622
   64MOL    H6016566   1.608   3.707   5.991  0.2740 -0.6344  0.0063
   64MOL    H6116567   1.887   3.821   5.968 -0.4163 -1.2985  1.5107
   64MOL    H6216568   1.750   3.824   5.846  1.3116 -1.2884  0.0183
   64MOL    H6316569   1.610   3.960   6.042 -0.0241  1.0720 -0.2138
   64MOL    H6416570   1.761   3.935   6.147  1.4805  2.1560 -1.2880
   64MOL    H6516571   1.664   3.792   6.295  3.3680  0.5326  1.1978
   64MOL    H6616572   1.567   3.648   6.263 -0.1216  0.6307  1.1536
   64MOL    C6716573   1.743   3.643   6.412 -0.0734 -0.4501  0.4491
   64MOL    C6816574   1.872   3.719   6.446  0.1735  0.8201 -0.3102
   64MOL    C6916575   1.953   3.678   6.567  0.1248  0.7922  0.0220
   64MOL    C7016576   2.006   3.676   6.422 -0.8738  0.0218 -0.4616
   64MOL    C7116577   1.641   3.635   6.523  0.2675  0.1983 -0.7924
   64MOL    H7216578   1.779   3.540   6.411  2.6887  0.4020  3.0771
   64MOL    H7316579   1.856   3.825   6.429 -1.0023  0.3472 -2.3480
   64MOL    H7416580   1.988   3.765   6.621 -0.8215 -0.0830  2.0838
   64MOL    H7516581   1.954   3.580   6.615 -1.4308  1.2066  0.9220
   64MOL    H7616582   2.021   3.579   6.374 -2.3356 -0.3137 -0.2555
   64MOL    H7716583   2.078   3.749   6.387 -1.1188  1.0071  1.0231
   64MOL    H7816584   1.588   3.729   6.540  1.4355  0.8171 -0.5581
   64MOL    H7916585   1.698   3.629   6.616  0.0234 -2.2533 -0.7825
   64MOL    C8016586   1.552   3.506   6.524 -0.3149 -0.6395 -0.0957
   64MOL    C8116587   1.429   3.532   6.604 -0.3358 -0.3338 -0.2951
   64MOL    C8216588   1.284   3.466   6.585  0.4700 -0.4005  0.5860
   64MOL    C8316589   1.314   3.605   6.539  0.4137 -0.5107 -0.1088
   64MOL    C8416590   1.634   3.398   6.603  0.2534 -0.3257  1.0811
   64MOL    H8516591   1.524   3.470   6.425 -0.8946  1.0002 -0.5422
   64MOL    H8616592   1.441   3.558   6.708 -2.1386 -2.6979  0.5501
   64MOL    H8716593   1.218   3.453   6.671 -1.7909  0.3635 -0.9907
   64MOL    H8816594   1.270   3.387   6.512 -0.8499  0.2129  0.1658
   64MOL    H8916595   1.333   3.613   6.432 -1.6361  0.4386 -0.4398
   64MOL    H9016596   1.281   3.699   6.584 -0.7052 -0.3344 -1.2536
   64MOL    H9116597   1.735   3.413   6.564 -0.2475  1.3547  0.3922
   64MOL    H9216598   1.640   3.417   6.710 -1.4079 -0.1280  1.1473
   64MOL    C9316599   1.599   3.250   6.572 -0.0591 -0.1803  0.1112
   64MOL    C9416600   1.624   3.220   6.423 -0.6640 -0.0770 -0.1533
   64MOL    C9516601   1.559   3.102   6.352  0.4323  0.3007  0.3636
   64MOL    C9616602   1.515   3.236   6.320 -0.0175 -1.0459 -1.1342
   64MOL    C9716603   1.685   3.155   6.656  0.3918 -0.1912  0.2512
   64MOL    H9816604   1.492   3.228   6.581 -0.0040 -1.0174 -1.2423
   64MOL    H9916605   1.725   3.243   6.390 -1.4518  1.5856 -1.4869
   64MOL   H10016606   1.613   3.056   6.269  1.3626  0.1396  1.0496
   64MOL   H10116607   1.486   3.038   6.401  1.1862 -0.7271  0.1524
   64MOL   H10216608   1.543   3.282   6.226  2.6522  1.2240  0.6828
   64MOL   H10316609   1.411   3.255   6.346  0.6111 -1.2743  1.6930
   64MOL   H10416610   1.787   3.180   6.626  0.5114 -2.6163 -1.5852
   64MOL   H10516611   1.664   3.052   6.626 -0.3385  0.5530 -1.9403
   64MOL   C10616612   1.667   3.158   6.812  0.0476 -0.3461  0.7904
   64MOL   C10716613   1.520   3.161   6.848  0.0672 -0.4450  0.5760
   64MOL   C10816614   1.455   3.181   6.981  0.0768 -0.2070  0.1846
   64MOL   C10916615   1.443   3.286   6.874 -0.0211  0.0742  0.2744
   64MOL   C11016616   1.740   3.047   6.888  0.3462  0.3138  0.7444
   64MOL   H11116617   1.702   3.252   6.853  0.4373  0.5755 -1.5348
   64MOL   H11216618   1.468   3.096   6.777  1.3582 -2.4002  1.3966
   64MOL   H11316619   1.360   3.130   6.994  0.5522 -1.5941 -1.5604
   64MOL   H11416620   1.518   3.211   7.065  0.5217  2.5237 -1.0657
   64MOL   H11516621   1.505   3.375   6.885  1.7301 -1.0592 -0.0916
   64MOL   H11616622   1.355   3.288   6.810  1.1827 -1.0577 -1.4792
   64MOL   H11716623   1.693   3.045   6.986 -0.5323 -2.6301  0.3266
   64MOL   H11816624   1.734   2.947   6.845  1.0139  0.4233  0.3955
   64MOL   C11916625   1.889   3.071   6.906  0.4918 -0.1516  0.1167
   64MOL   C12016626   1.936   3.212   6.967  0.1474  0.2791  0.1659
   64MOL   C12116627   1.998   3.313   6.858  0.1317 -0.0372  0.1328
   64MOL   C12216628   2.083   3.262   6.970  0.3617 -0.4271  0.4611
   64MOL   C12316629   1.946   2.950   6.981  0.2639 -0.3788 -1.0454
   64MOL   H12416630   1.932   3.073   6.806  1.2449  0.5022  0.4463
   64MOL   H12516631   1.874   3.254   7.046  0.6484  0.9277  0.2239
   64MOL   H12616632   1.961   3.415   6.868 -1.1129 -0.2954 -1.7697
   64MOL   H12716633   2.014   3.271   6.759  1.8492 -1.9320  1.1719
   64MOL   H12816634   2.165   3.197   6.940  1.2637  1.3900 -1.0946
   64MOL   H12916635   2.113   3.331   7.048 -0.1441  0.5881 -0.2268
   64MOL   H13016636   1.912   2.964   7.084  3.1351  0.5488 -0.1798
   64MOL   H13116637   1.890   2.862   6.950 -2.5321  0.6702  0.8135
   64MOL   C13216638   2.098   2.922   6.979  1.2120  0.0975 -0.5613
   64MOL   C13316639   2.133   2.890   6.834  0.5758  0.0501  0.0767
   64MOL   C13416640   2.278   2.898   6.796 -0.0696  0.0468  0.0578
   64MOL   C13516641   2.181   2.988   6.734  0.2629  0.4873 -0.5078
   64MOL   C13616642   2.133   2.804   7.068 -0.1470 -0.2438 -0.2264
   64MOL   H13716643   2.143   3.016   7.012  1.8289 -0.2960 -0.2699
   64MOL   H13816644   2.077   2.805   6.797 -2.3676  1.0953  1.9279
   64MOL   H13916645   2.352   2.943   6.861 -1.1260  1.1482  0.5195
   64MOL   H14016646   2.318   2.818   6.735  1.1690 -0.3091  1.3161
   64MOL   H14116647   2.214   3.089   6.756 -0.3606  0.6602 -0.3366
   64MOL   H14216648   2.137   2.969   6.636 -0.8925 -1.6847  0.4217
   64MOL   H14316649   2.053   2.771   7.134  0.1282 -0.8227 -0.1813
   64MOL   H14416650   2.139   2.716   7.005 -2.4015 -0.5062 -0.1153
   64MOL   C14516651   2.276   2.805   7.139 -0.0912 -0.5229  0.1038
   64MOL   C14616652   2.308   2.931   7.213  0.0197 -0.7936 -0.3440
   64MOL   C14716653   2.445   2.988   7.234 -0.8460 -0.3789 -0.5106
   64MOL   C14816654   2.351   3.059   7.143 -0.3868  0.2389  0.3742
   64MOL   C14916655   2.296   2.688   7.238 -0.3886  0.0329 -0.2373
   64MOL   H15016656   2.344   2.797   7.054  1.8953 -2.8729  1.8534
   64MOL   H15116657   2.241   2.942   7.298 -1.9107 -1.3045 -1.7616
   64MOL   H15216658   2.461   3.035   7.331 -1.7943 -0.6697 -0.2169
   64MOL   H15316659   2.532   2.934   7.196 -0.0441 -0.2278  1.0500
   64MOL   H15416660   2.374   3.049   7.037 -0.7814  0.0357  0.3054
   64MOL   H15516661   2.292   3.147   7.167 -1.5376 -0.1624 -0.8753
   64MOL   H15616662   2.371   2.704   7.316 -0.2499 -0.4534 -0.2647
   64MOL   H15716663   2.208   2.690   7.302  0.7042 -2.5993  1.4441
   64MOL   C15816664   2.304   2.551   7.167 -0.0489  0.5601 -0.2571
   64MOL   C15916665   2.303   2.430   7.258 -0.1661  0.7474 -0.0570
   64MOL   C16016666   2.176   2.368   7.304  0.1272  0.2681 -0.0005
   64MOL   C16116667   2.261   2.295   7.206  0.3495 -0.0289 -0.6112
   64MOL   C16216668   2.438   2.533   7.082  0.0461  0.0394 -0.4311
   64MOL   H16316669   2.218   2.532   7.103 -1.9673  0.5099  2.2761
   64MOL   H16416670   2.386   2.437   7.329 -1.7335 -0.0131  1.8818
   64MOL   H16516671   2.080   2.410   7.274 -1.4678 -2.9585  0.3286
   64MOL   H16616672   2.180   2.331   7.407 -1.2881 -0.7435 -0.2854
   64MOL   H16716673   2.324   2.212   7.237  1.6552  0.9837 -0.5011
   64MOL   H16816674   2.240   2.286   7.100  0.2154  1.9180 -0.7682
   64MOL   H16916675   2.481   2.433   7.093  1.3285  0.8733  2.9909
   64MOL   H17016676   2.512   2.603   7.122 -0.8089  1.7327 -1.7675
   64MOL   C17116677   2.432   2.558   6.932  0.1428 -0.5606  0.7282
   64MOL   C17216678   2.578   2.580   6.875  0.1105 -0.1811  0.2232
   64MOL   C17316679   2.618   2.676   6.769 -0.4722 -0.3475  0.1584
   64MOL   C17416680   2.661   2.697   6.913 -0.1730  0.6131  0.0912
   64MOL   C17516681   2.360   2.455   6.845  0.5318 -0.1001  0.1750
   64MOL   H17616682   2.378   2.652   6.920  0.8195 -0.4007 -1.1300
   64MOL   H17716683   2.638   2.489   6.873  0.8270  0.2423  1.8291
   64MOL   H17816684   2.693   2.633   6.704  0.1449  1.2566 -0.2291
   64MOL   H17916685   2.552   2.753   6.729  0.9489  1.0756  0.4919
   64MOL   H18016686   2.621   2.787   6.959  0.1204 -0.6063  2.8483
   64MOL   H18116687   2.769   2.682   6.922 -0.2978  0.3339  1.1753
   64MOL   H18216688   2.264   2.440   6.895  0.5817 -2.4780 -0.3691
   64MOL   H18316689   2.406   2.356   6.844 -3.0563 -1.8751  0.9465
   64MOL   C18416690   2.316   2.487   6.696 -0.0652  0.0835  0.4722
   64MOL   C18516691   2.193   2.409   6.652  0.0617 -0.8956  0.0241
   64MOL   C18616692   2.095   2.468   6.545 -0.0563 -0.4247 -0.3102
   64MOL   C18716693   2.049   2.458   6.685  0.0506  0.0051 -0.4065
   64MOL   C18816694   2.430   2.451   6.597  0.1660  0.2650  0.4821
   64MOL   H18916695   2.301   2.595   6.702 -3.2303 -0.3930  1.8039
   64MOL   H19016696   2.210   2.302   6.650 -0.8315 -1.0474  0.0098
   64MOL   H19116697   2.047   2.396   6.478 -0.9547  0.1320 -0.2732
   64MOL   H19216698   2.101   2.571   6.511 -0.6291 -0.9760 -2.1573
   64MOL   H19316699   1.978   2.380   6.710  0.4031 -0.2439 -0.1829
   64MOL   H19416700   2.040   2.542   6.755  0.5719  0.3302 -0.7302
   64MOL   H19516701   2.441   2.343   6.599  0.8812  0.3025 -0.8257
   64MOL   H19616702   2.529   2.465   6.641  0.6688 -1.5276 -0.0328
   64MOL   C19716703   2.428   2.503   6.445 -1.0770  0.2400 -0.6477
   64MOL   C19816704   2.553   2.455   6.370  0.0950  0.2926  0.3836
   64MOL   C19916705   2.558   2.433   6.219  0.4561  0.3080  0.3655
   64MOL   C20016706   2.558   2.321   6.312 -0.5695  0.2028  0.1956
   64MOL   C20116707   2.402   2.652   6.434 -0.0538  0.2121  0.0429
   64MOL   H20216708   2.344   2.449   6.401 -1.5522 -0.0116  0.5423
   64MOL   H20316709   2.650   2.495   6.399  0.0596  0.5385  0.1622
   64MOL   H20416710   2.465   2.449   6.163  0.1928 -2.0820  0.0797
   64MOL   H20516711   2.648   2.457   6.164  0.1617 -2.1600 -1.2340
   64MOL   H20616712   2.482   2.244   6.311 -0.4970  0.1403 -1.1522
   64MOL   H20716713   2.659   2.282   6.321  0.7045  3.5492  1.1587
   64MOL   H20816714   2.343   2.695   6.515 -2.3770  0.0567 -1.5425
   64MOL   H20916715   2.497   2.703   6.452 -0.2522  0.0627  1.5924
   64MOL   C21016716   2.353   2.709   6.296 -0.4496 -0.2373  0.5957
   64MOL   C21116717   2.208   2.673   6.269  0.6578  0.1366  0.6037
   64MOL   C21216718   2.155   2.665   6.120  0.0632 -1.0597  0.3120
   64MOL   C21316719   2.167   2.548   6.210  0.3511  0.2625 -0.3667
   64MOL   C21416720   2.366   2.859   6.297 -0.7343 -0.0918  0.4004
   64MOL   H21516721   2.404   2.669   6.209  0.5429  1.2235  0.5019
   64MOL   H21616722   2.140   2.721   6.339  1.1901  0.3895  0.9468
   64MOL   H21716723   2.056   2.706   6.102  0.1105 -0.0629  2.2176
   64MOL   H21816724   2.205   2.652   6.024  0.4692  3.3578 -0.1362
   64MOL   H21916725   2.069   2.505   6.230  0.8110 -0.8877 -0.5376
   64MOL   H22016726   2.237   2.475   6.171  1.2673  1.6366 -1.3656
   64MOL   H22116727   2.302   2.897   6.377 -1.5379 -1.3007  0.3427
   64MOL   H22216728   2.465   2.887   6.333 -0.7276 -0.9068  1.0346
   64MOL   C22316729   2.345   2.934   6.161  0.2610 -0.0489  0.0166
   64MOL   C22416730   2.445   2.875   6.052 -0.1889  0.0836  0.4746
   64MOL   C22516731   2.482   2.957   5.934 -0.5599 -0.8577  0.3046
   64MOL   C22616732   2.586   2.924   6.035  0.1020 -0.1194  0.3109
   64MOL   C22716733   2.343   3.092   6.182  0.4523  0.3288 -0.0723
   64MOL   H22816734   2.245   2.914   6.123  0.5546 -1.0813 -0.2408
   64MOL   H22916735   2.427   2.771   6.025  2.0234 -0.5219  1.1572
   64MOL   H23016736   2.441   3.057   5.931  2.3367  0.4051  1.6933
   64MOL   H23116737   2.481   2.899   5.841  1.7322 -0.2329 -0.1363
   64MOL   H23216738   2.667   2.856   6.012  0.7843  0.5773  0.6456
   64MOL   H23316739   2.618   3.010   6.093  0.0022 -0.5880  1.0812
   64MOL   H23416740   2.442   3.120   6.218  0.8901 -1.8087  0.4615
   64MOL   H23516741   2.335   3.148   6.089 -1.7042  1.3825  0.7137
   64MOL   C23616742   2.227   3.147   6.284  0.6276 -0.4823  0.1403
   64MOL   C23716743   2.089   3.133   6.216  0.3798 -0.3946 -0.2092
   64MOL   C23816744   1.985   3.023   6.246 -0.0897 -0.1778 -0.4711
   64MOL   C23916745   1.960   3.156   6.304  1.2067  0.5178 -0.4795
   64MOL   C24016746   2.255   3.298   6.317 -0.3691 -0.0074  0.1739
   64MOL   H24116747   2.228   3.089   6.376  3.4508 -0.9775 -0.1666
   64MOL   H24216748   2.085   3.164   6.112  1.3223  1.8172  0.3709
   64MOL   H24316749   1.924   2.988   6.163 -0.2743 -0.6430 -0.1470
   64MOL   H24416750   2.006   2.944   6.319 -0.1716  1.2807  1.1543
   64MOL   H24516751   1.963   3.172   6.412 -1.9260 -0.6977 -0.1684
   64MOL   H24616752   1.875   3.205   6.257 -1.3390 -1.1246  2.1852
   64MOL   H24716753   2.270   3.364   6.231 -3.1672  0.1934 -0.1894
   64MOL   H24816754   2.162   3.335   6.359 -0.1178  2.2985 -1.1926
   64MOL   C24916755   2.362   3.324   6.430 -0.7648  0.3217  0.4094
   64MOL   C25016756   2.322   3.433   6.528 -0.9457 -0.0124  0.9503
   64MOL   C25116757   2.252   3.397   6.650 -1.3531 -0.9620 -0.5746
   64MOL   C25216758   2.391   3.442   6.661 -0.3930  0.4304  0.1066
   64MOL   C25316759   2.499   3.359   6.373 -0.3660  0.0246 -0.6289
   64MOL   H25416760   2.381   3.233   6.487 -0.1327  1.4499  2.0543
   64MOL   H25516761   2.296   3.530   6.484  0.5405 -1.2115 -2.7818
   64MOL   H25616762   2.173   3.467   6.677 -0.7630  0.2257 -1.8399
   64MOL   H25716763   2.228   3.292   6.664  0.4682 -1.4211 -0.6927
   64MOL   H25816764   2.409   3.546   6.689  1.6406  0.3612 -0.8189
   64MOL   H25916765   2.471   3.375   6.693 -1.6660 -1.2860 -0.2528
   64MOL   H26016766   2.563   3.379   6.459  0.7983 -3.3769 -0.6625
   64MOL   H26116767   2.486   3.453   6.320  0.3984  1.9666  2.4757
   64MOL   H26216768   2.532   3.281   6.304  0.8437 -0.1348  0.1103
   65MOL     C116769   6.033   7.246   3.457  0.0732 -0.5175  0.3265
   65MOL     C216770   6.092   7.113   3.487 -0.1708  0.0733 -1.4056
   65MOL     C316771   6.221   7.101   3.567 -0.3201 -0.8302  0.0486
   65MOL     C416772   6.219   7.062   3.418  0.2488  0.1815  0.2316
   65MOL     C516773   5.948   7.302   3.571  0.7976 -0.1741 -0.4424
   65MOL     H616774   6.115   7.312   3.427 -0.0688 -0.5192 -0.0694
   65MOL     H716775   6.015   7.043   3.518  0.2001 -0.3124 -1.3609
   65MOL     H816776   6.272   7.194   3.592 -0.7240 -0.9486  1.3629
   65MOL     H916777   6.229   7.024   3.644  2.3200  0.4853  1.1890
   65MOL    H1016778   6.218   6.953   3.419  0.2107  0.1824  0.6853
   65MOL    H1116779   6.275   7.123   3.348  0.9163  2.5352  2.7091
   65MOL    H1216780   6.011   7.312   3.660  0.4686 -0.0153 -0.2287
   65MOL    H1316781   5.873   7.225   3.584  1.6271 -0.9207  0.0253
   65MOL    H1416782   5.986   7.231   3.360  1.0531 -3.1689  0.2204
   65MOL    C1516783   5.879   7.441   3.541  0.8166 -0.7134  0.4020
   65MOL    C1616784   5.794   7.437   3.410 -0.2895 -0.3971 -0.4325
   65MOL    C1716785   5.849   7.466   3.274 -0.3944 -0.4403 -0.1994
   65MOL    C1816786   5.751   7.563   3.333 -0.3772 -0.3460  0.4253
   65MOL    C1916787   5.800   7.509   3.659 -0.0719 -0.2863  0.1737
   65MOL    H2016788   5.963   7.507   3.521 -0.3832  0.3957 -1.0511
   65MOL    H2116789   5.709   7.369   3.413 -1.2144  0.7741  1.9373
   65MOL    H2216790   5.812   7.397   3.198 -3.9910 -0.1729  1.2368
   65MOL    H2316791   5.952   7.502   3.268 -1.0623  1.3442 -1.1609
   65MOL    H2416792   5.803   7.652   3.365 -0.0733 -0.0691 -0.8191
   65MOL    H2516793   5.648   7.576   3.298 -0.1398  0.1271 -0.1147
   65MOL    H2616794   5.767   7.424   3.719  1.7835 -2.4682 -1.7899
   65MOL    H2716795   5.708   7.547   3.614  0.6744  1.1145 -0.1699
   65MOL    C2816796   5.866   7.616   3.747 -0.0998  0.5921  0.0770
   65MOL    C2916797   5.800   7.627   3.886  0.5813 -0.2277  0.1084
   65MOL    C3016798   5.816   7.509   3.986 -0.0482 -0.2639  0.7041
   65MOL    C3116799   5.882   7.639   4.016 -0.8278  0.3969 -0.4460
   65MOL    C3216800   5.862   7.748   3.674  0.3760  0.0103  0.6497
   65MOL    H3316801   5.972   7.597   3.764 -0.1572  1.2546  1.2520
   65MOL    H3416802   5.705   7.681   3.888  0.7316 -0.0161  1.7849
   65MOL    H3516803   5.888   7.434   3.954  0.1353 -0.0979  0.7288
   65MOL    H3616804   5.740   7.479   4.058 -2.0673  1.0053 -0.8313
   65MOL    H3716805   5.990   7.631   4.010 -0.9067  0.5451 -2.7514
   65MOL    H3816806   5.838   7.684   4.104  0.7938 -0.6738  0.9384
   65MOL    H3916807   5.758   7.777   3.656 -0.1148 -2.4680 -0.6679
   65MOL    H4016808   5.900   7.728   3.574  2.7470  0.4667  1.4250
   65MOL    C4116809   5.943   0.022   3.743  0.1872 -0.5931 -0.0071
   65MOL    C4216810   5.899   0.158   3.692  0.3518  0.7531  0.0935
   65MOL    C4316811   5.926   0.287   3.765 -0.6722  0.3305  0.1187
   65MOL    C4416812   5.782   0.239   3.738 -0.1311 -0.5238 -0.5398
   65MOL    C4516813   6.092   0.002   3.740 -0.5227 -0.1399 -0.2612
   65MOL    H4616814   5.924   0.026   3.850  1.7259 -1.6756  0.3168
   65MOL    H4716815   5.909   0.152   3.584 -1.3506 -1.4933  0.0084
   65MOL    H4816816   5.970   0.278   3.864  0.0647 -0.8163 -0.3113
   65MOL    H4916817   5.970   0.365   3.703  0.3176 -0.6681 -0.4342
   65MOL    H5016818   5.719   0.287   3.664  0.1705 -0.1578 -0.5634
   65MOL    H5116819   5.724   0.213   3.826  2.1518 -0.0653  1.1479
   65MOL    H5216820   6.118   7.747   3.788 -0.7890 -0.4617 -0.7477
   65MOL    H5316821   6.127   0.087   3.799  1.4274  0.8193 -2.7164
   65MOL    C5416822   6.175   0.019   3.610 -0.5737  0.7034 -0.0473
   65MOL    C5516823   6.304   0.097   3.639 -0.1620 -0.3513  0.0299
   65MOL    C5616824   6.298   0.240   3.689  0.6474 -0.1414  0.1004
   65MOL    C5716825   6.370   0.214   3.558  0.1964  0.1330  0.4622
   65MOL    C5816826   6.193   7.712   3.547  0.0856  0.2851 -0.1945
   65MOL    H5916827   6.115   0.089   3.551 -0.7440 -1.8015 -2.9599
   65MOL    H6016828   6.375   0.026   3.681  0.3523 -2.0748 -3.5307
   65MOL    H6116829   6.197   0.279   3.682  0.0685 -1.7575 -0.7744
   65MOL    H6216830   6.357   0.263   3.778  0.7344  3.0097 -0.7206
   65MOL    H6316831   6.479   0.217   3.556  0.1813  0.1586 -1.7066
   65MOL    H6416832   6.317   0.250   3.470  1.7298 -1.4857 -1.1736
   65MOL    H6516833   6.258   7.662   3.620 -1.1264  0.3314  0.9348
   65MOL    H6616834   6.094   7.668   3.559  0.7868 -0.8327  1.8113
   65MOL    C6716835   6.236   7.709   3.396  0.5385 -0.2187 -0.2330
   65MOL    C6816836   6.265   7.565   3.358 -0.2654 -0.7438 -0.3264
   65MOL    C6916837   6.331   7.519   3.236 -0.6651  0.3527  0.0014
   65MOL    C7016838   6.389   7.498   3.380  0.3953 -0.1193  0.3012
   65MOL    C7116839   6.123   7.768   3.306  0.4538 -0.0853  0.1933
   65MOL    H7216840   6.328   7.766   3.384 -0.6595  1.7003 -0.4959
   65MOL    H7316841   6.185   7.505   3.401  1.2729 -2.9909 -0.5101
   65MOL    H7416842   6.290   7.437   3.178 -0.7529  0.7202 -0.4639
   65MOL    H7516843   6.381   7.598   3.180  2.0604 -3.0713 -2.6335
   65MOL    H7616844   6.470   7.559   3.420 -1.4061  1.0045  2.3578
   65MOL    H7716845   6.387   7.394   3.414 -2.0896 -0.8132 -1.8066
   65MOL    H7816846   6.074   0.012   3.356 -1.1000 -0.6125 -0.4152
   65MOL    H7916847   6.046   7.693   3.292  0.9048 -0.1678 -2.1119
   65MOL    C8016848   6.167   7.822   3.163  0.1113  0.0617 -0.0318
   65MOL    C8116849   6.232   0.120   3.175  0.0246  0.0078 -0.0273
   65MOL    C8216850   6.298   0.178   3.065 -0.3678 -0.3893  0.2129
   65MOL    C8316851   6.385   0.140   3.179 -0.1079 -0.3124  0.4531
   65MOL    C8416852   6.050   7.817   3.054 -0.4303 -0.2193 -0.5569
   65MOL    H8516853   6.245   7.750   3.136 -2.0472 -1.7705 -1.6003
   65MOL    H8616854   6.188   0.185   3.250 -0.5732 -0.5168  0.0787
   65MOL    H8716855   6.269   0.283   3.055 -1.7224 -0.7497  0.3076
   65MOL    H8816856   6.308   0.124   2.971  0.1095 -1.1658  0.7101
   65MOL    H8916857   6.443   0.049   3.165  1.2496  0.4900  0.6740
   65MOL    H9016858   6.430   0.206   3.253  0.3825  0.0134 -0.1277
   65MOL    H9116859   6.111   7.813   2.963  1.1216  1.6633  0.3643
   65MOL    H9216860   5.999   7.720   3.059 -1.3440  0.2708 -0.3693
   65MOL    C9316861   5.940   0.095   3.053 -0.3103 -0.6269  1.0860
   65MOL    C9416862   5.870   0.096   2.915 -0.1300  0.5314  0.5338
   65MOL    C9516863   5.804   0.214   2.841 -0.8078 -0.1650  0.4182
   65MOL    C9616864   5.935   0.156   2.790 -0.3011  0.3596 -0.6526
   65MOL    C9716865   5.835   0.083   3.164  0.2864 -0.1478  0.7730
   65MOL    H9816866   5.991   0.191   3.058 -0.7255 -0.3931  0.8833
   65MOL    H9916867   5.822   0.002   2.886  1.1291  0.1061 -0.2062
   65MOL   H10016868   5.705   0.180   2.813 -1.9849  1.2654  2.7331
   65MOL   H10116869   5.800   0.314   2.883 -2.9532 -0.7347  1.6331
   65MOL   H10216870   5.934   0.099   2.698 -0.1533  0.8924 -0.9875
   65MOL   H10316871   6.024   0.218   2.804  1.0251 -0.7880 -3.5486
   65MOL   H10416872   5.880   0.039   3.253  1.3593 -0.5203  0.0692
   65MOL   H10516873   5.751   0.020   3.136 -0.8722  0.8885  1.8414
   65MOL   C10616874   5.774   0.218   3.213  0.0536 -0.2885  0.0242
   65MOL   C10716875   5.669   0.177   3.319  0.1637 -0.3319 -0.4630
   65MOL   C10816876   5.539   0.252   3.310  0.4656  0.6971  0.4531
   65MOL   C10916877   5.550   0.098   3.285  0.0596 -0.1322  0.2991
   65MOL   C11016878   5.877   0.333   3.249  0.1852 -0.0316  0.3659
   65MOL   H11116879   5.725   0.257   3.123  0.2208  2.3598  1.0455
   65MOL   H11216880   5.699   0.167   3.423 -1.9917  1.8444  0.4179
   65MOL   H11316881   5.472   0.273   3.393 -1.7751  0.9430 -1.3942
   65MOL   H11416882   5.522   0.312   3.222 -3.9603  0.6337  1.1610
   65MOL   H11516883   5.529   0.071   3.182  0.7365 -1.2182  0.4407
   65MOL   H11616884   5.513   0.028   3.359 -0.5356  0.3215  0.4359
   65MOL   H11716885   5.938   0.302   3.334  2.8133  1.5327 -0.8984
   65MOL   H11816886   5.942   0.352   3.163  0.5888 -0.4357  0.5827
   65MOL   C11916887   5.813   0.465   3.290 -0.5959  0.5657 -0.3009
   65MOL   C12016888   5.922   0.573   3.337 -0.5919  0.1201  0.4686
   65MOL   C12116889   6.063   0.542   3.386  0.0771  0.3174  0.0734
   65MOL   C12216890   5.955   0.590   3.481 -0.0928 -0.4909  0.2764
   65MOL   C12316891   5.734   0.530   3.173 -0.3372  0.2377 -0.0881
   65MOL   H12416892   5.746   0.446   3.374  0.6445 -0.9597  0.3566
   65MOL   H12516893   5.898   0.671   3.296  1.5924  0.5956  0.2786
   65MOL   H12616894   6.146   0.610   3.368  0.8539 -0.1936  1.6135
   65MOL   H12716895   6.083   0.435   3.390 -0.3128  0.0554 -3.3476
   65MOL   H12816896   5.907   0.518   3.547 -1.5998  1.3049  1.2010
   65MOL   H12916897   5.945   0.691   3.520 -0.6050 -0.9674  1.3981
   65MOL   H13016898   5.811   0.560   3.102 -1.4348 -1.2251 -1.9479
   65MOL   H13116899   5.673   0.450   3.132  1.2460 -1.4234  0.7120
   65MOL   C13216900   5.635   0.645   3.207  0.3903  0.1892 -0.7547
   65MOL   C13316901   5.550   0.633   3.332  0.0329 -0.2908 -0.4191
   65MOL   C13416902   5.482   0.746   3.415  0.0734  0.0090  0.4815
   65MOL   C13516903   5.589   0.660   3.480  0.0757  0.4402  0.3508
   65MOL   C13616904   5.558   0.703   3.090  0.1017 -0.0820  0.3572
   65MOL   H13716905   5.700   0.730   3.227  2.3490 -2.0592  2.9279
   65MOL   H13816906   5.474   0.557   3.314 -0.5801  0.5195 -1.3298
   65MOL   H13916907   5.508   0.850   3.400 -0.1543 -0.2774 -2.0511
   65MOL   H14016908   5.379   0.722   3.439  0.8953 -1.5116  2.7142
   65MOL   H14116909   5.690   0.698   3.490  0.2276 -0.4409  2.2875
   65MOL   H14216910   5.558   0.589   3.556  0.0839 -1.4284 -1.3489
   65MOL   H14316911   5.491   0.623   3.061  1.1860 -0.5275 -0.9621
   65MOL   H14416912   5.487   0.779   3.123 -1.3696 -0.1048 -2.5846
   65MOL   C14516913   5.628   0.754   2.963 -0.2532 -0.5505  0.2851
   65MOL   C14616914   5.579   0.678   2.841  0.3573  0.0191  0.2233
   65MOL   C14716915   5.647   0.693   2.709 -0.0169 -0.1319  0.6715
   65MOL   C14816916   5.654   0.564   2.793  0.0306  0.6444  0.4323
   65MOL   C14916917   5.605   0.908   2.937 -0.4578  0.8235 -0.3409
   65MOL   H15016918   5.727   0.719   2.989 -0.3881  0.9550  2.9667
   65MOL   H15116919   5.471   0.667   2.840  0.1709  1.3544  2.4273
   65MOL   H15216920   5.587   0.672   2.621  0.3999  0.0864  0.3343
   65MOL   H15316921   5.743   0.743   2.703  0.1669 -0.6185 -0.5962
   65MOL   H15416922   5.752   0.535   2.830  0.4454 -1.4302 -2.1152
   65MOL   H15516923   5.612   0.482   2.736 -1.7479  1.9012 -0.1158
   65MOL   H15616924   5.653   0.935   2.843  0.9110  2.4529  0.7910
   65MOL   H15716925   5.500   0.927   2.918 -0.6156 -0.8666 -1.2573
   65MOL   C15816926   5.647   1.003   3.050  0.3185  0.0374  0.7756
   65MOL   C15916927   5.566   1.128   3.061 -0.7830 -0.3641 -0.0800
   65MOL   C16016928   5.422   1.125   3.083 -0.3055 -0.4876  0.4845
   65MOL   C16116929   5.513   1.170   3.204  0.0809 -0.8776  0.0728
   65MOL   C16216930   5.798   1.030   3.047 -0.7656 -0.1370 -0.1209
   65MOL   H16316931   5.627   0.951   3.143  0.9622 -1.6523 -0.0113
   65MOL   H16416932   5.601   1.204   2.991  0.7462 -1.4340 -0.5271
   65MOL   H16516933   5.375   1.027   3.093 -1.2075 -0.2388 -1.2238
   65MOL   H16616934   5.361   1.203   3.037 -0.1413  0.4199  1.7591
   65MOL   H16716935   5.497   1.274   3.233  0.8362 -0.7048 -0.1220
   65MOL   H16816936   5.534   1.102   3.286 -0.0424 -0.9976  0.0043
   65MOL   H16916937   5.811   1.091   2.958 -3.0044  1.5901  0.6774
   65MOL   H17016938   5.847   0.934   3.029  2.7995  1.2282  1.6527
   65MOL   C17116939   5.859   1.102   3.174 -0.5386  0.1656  0.7602
   65MOL   C17216940   5.891   1.000   3.282 -0.2096 -0.6839 -0.0700
   65MOL   C17316941   5.916   1.038   3.430  0.3944 -0.2244  0.3910
   65MOL   C17416942   5.788   0.971   3.387 -0.0123  0.0191  0.8778
   65MOL   C17516943   5.992   1.164   3.123  0.2296  0.7996 -0.4646
   65MOL   H17616944   5.789   1.179   3.205 -1.2654  0.6006 -1.8285
   65MOL   H17716945   5.947   0.914   3.246  2.0880 -0.1097  2.0069
   65MOL   H17816946   5.986   0.981   3.491  2.7653  0.9712 -1.1441
   65MOL   H17916947   5.927   1.146   3.443  0.7951  0.0839 -2.1442
   65MOL   H18016948   5.703   1.038   3.403 -0.5660 -0.2959 -0.7178
   65MOL   H18116949   5.764   0.867   3.405 -0.2263 -0.2857 -1.0805
   65MOL   H18216950   6.037   1.090   3.057 -0.8085 -0.6962  0.4515
   65MOL   H18316951   6.055   1.186   3.209 -0.8381  2.1307  0.0014
   65MOL   C18416952   5.973   1.296   3.037  0.2198 -0.3032  0.2984
   65MOL   C18516953   6.062   1.316   2.918  0.3864  0.6162  0.1707
   65MOL   C18616954   6.016   1.370   2.776  0.2291  0.4060  0.3425
   65MOL   C18716955   6.023   1.218   2.805 -0.5469 -0.1516 -0.0087
   65MOL   C18816956   5.997   1.419   3.133 -0.3214  0.2335  0.1188
   65MOL   H18916957   5.870   1.292   3.001 -0.2306 -2.2830  1.7376
   65MOL   H19016958   6.165   1.335   2.946  1.0615 -1.8276 -0.5131
   65MOL   H19116959   6.097   1.412   2.716 -0.3507 -2.6707 -2.7892
   65MOL   H19216960   5.932   1.436   2.796  1.2601  1.5041  1.1072
   65MOL   H19316961   6.108   1.169   2.757 -0.9276 -1.6620  0.8369
   65MOL   H19416962   5.935   1.156   2.818  0.1673 -1.5700 -1.7064
   65MOL   H19516963   6.103   1.407   3.156 -0.5479 -1.6800  0.2645
   65MOL   H19616964   5.947   1.399   3.227  1.4418 -0.6949  0.8814
   65MOL   C19716965   5.963   1.558   3.082 -0.1890 -0.6825 -0.7562
   65MOL   C19816966   6.019   1.670   3.170  0.9094  0.0182  0.6325
   65MOL   C19916967   6.109   1.782   3.122  0.2475  0.3597 -0.1707
   65MOL   C20016968   6.163   1.658   3.192  0.7912 -0.1073  0.2203
   65MOL   C20116969   5.809   1.562   3.071 -0.8962  0.3707  0.3584
   65MOL   H20216970   6.012   1.574   2.986 -0.2202  2.5602 -0.2962
   65MOL   H20316971   5.963   1.664   3.263  0.5646 -2.9099  0.2889
   65MOL   H20416972   6.136   1.783   3.017  0.9373 -3.8239 -0.1142
   65MOL   H20516973   6.110   1.878   3.173 -2.4315 -0.1815  0.9949
   65MOL   H20616974   6.229   1.588   3.140  0.8942 -0.2260  0.5081
   65MOL   H20716975   6.207   1.686   3.287  3.1090  1.0433 -1.1470
   65MOL   H20816976   5.782   1.475   3.011  0.4552 -0.7815  1.3952
   65MOL   H20916977   5.760   1.541   3.166  1.2342  1.4292  1.7434
   65MOL   C21016978   5.745   1.687   3.010 -0.1384  0.2268 -0.4769
   65MOL   C21116979   5.772   1.695   2.861 -0.1851 -0.4105 -0.0794
   65MOL   C21216980   5.747   1.827   2.781  0.7356  0.6823 -0.0337
   65MOL   C21316981   5.885   1.771   2.797 -0.0987 -0.0958 -0.1552
   65MOL   C21416982   5.590   1.691   3.028  1.1631 -0.0631 -0.0800
   65MOL   H21516983   5.789   1.771   3.065  0.1882 -0.3384  0.1451
   65MOL   H21616984   5.730   1.608   2.811  0.3606 -1.0465  0.5351
   65MOL   H21716985   5.698   1.809   2.686  1.6315 -0.1382 -0.3431
   65MOL   H21816986   5.717   1.920   2.829 -0.3840 -0.4913  1.5876
   65MOL   H21916987   5.946   1.711   2.729  1.1203 -0.2787  1.0716
   65MOL   H22016988   5.957   1.819   2.863  1.3179  0.2191 -1.8676
   65MOL   H22116989   5.552   1.775   2.969  0.6477 -0.2542 -0.0181
   65MOL   H22216990   5.539   1.612   2.973  0.5955  0.5934 -0.5150
   65MOL   C22316991   5.532   1.690   3.172 -0.4253  0.1075 -0.3019
   65MOL   C22416992   5.378   1.673   3.161  0.2839  0.4693  0.3462
   65MOL   C22516993   5.307   1.545   3.154 -0.3136  0.0632  0.8342
   65MOL   C22616994   5.303   1.630   3.281  0.4835 -0.0952  0.5936
   65MOL   C22716995   5.559   1.817   3.250  0.2077  0.1594 -0.1540
   65MOL   H22816996   5.563   1.601   3.226 -1.6075  0.6685  1.3489
   65MOL   H22916997   5.330   1.752   3.103 -0.2104  0.5101  0.8069
   65MOL   H23016998   5.366   1.454   3.159  0.4206  0.4949  0.0095
   65MOL   H23116999   5.218   1.537   3.093  0.4631 -0.5603 -0.2211
   65MOL   H23217000   5.214   1.689   3.297 -0.4657 -0.0822 -3.8980
   65MOL   H23317001   5.371   1.600   3.361  0.3074  0.7051  1.0494
   65MOL   H23417002   5.563   1.897   3.176 -0.1710  0.6375  0.3348
   65MOL   H23517003   5.471   1.842   3.309 -0.9702  0.0572 -1.8237
   65MOL   C23617004   5.676   1.810   3.352 -0.2867  0.1774  0.3685
   65MOL   C23717005   5.648   1.716   3.468 -0.2065 -0.1864 -0.3252
   65MOL   C23817006   5.693   1.575   3.457  0.5777  0.2594  0.3303
   65MOL   C23917007   5.760   1.660   3.553  0.0499  0.3615 -0.3784
   65MOL   C24017008   5.733   1.944   3.395  0.3126  0.4445 -0.2083
   65MOL   H24117009   5.765   1.768   3.303 -0.7305 -1.5532  1.0287
   65MOL   H24217010   5.549   1.740   3.506 -0.1746  1.8883 -1.4924
   65MOL   H24317011   5.621   1.504   3.500  1.1864 -0.5544  0.0102
   65MOL   H24417012   5.755   1.528   3.382 -0.2002 -0.0092 -0.1534
   65MOL   H24517013   5.860   1.695   3.529  0.3257  1.1854  1.8472
   65MOL   H24617014   5.738   1.639   3.657 -1.2822  0.0758 -0.7052
   65MOL   H24717015   5.827   1.928   3.448 -0.1502 -3.4011 -0.4392
   65MOL   H24817016   5.777   2.004   3.315 -0.6386  0.7309 -0.5282
   65MOL   C24917017   5.646   2.031   3.488  0.1992  0.0419  0.0247
   65MOL   C25017018   5.551   2.119   3.405  0.0624  0.3170  0.7002
   65MOL   C25117019   5.409   2.093   3.370 -0.0226 -0.3387 -0.3023
   65MOL   C25217020   5.445   2.203   3.477 -0.0314 -0.4204  0.2361
   65MOL   C25317021   5.722   2.115   3.585 -0.6804 -0.4362  0.3166
   65MOL   H25417022   5.594   1.965   3.558 -0.8230 -0.4413 -1.1705
   65MOL   H25517023   5.602   2.172   3.325  0.8964 -1.8253 -0.2199
   65MOL   H25617024   5.362   2.138   3.283 -1.6632  0.8823  1.1924
   65MOL   H25717025   5.361   2.008   3.418 -0.6640 -0.1837 -0.6726
   65MOL   H25817026   5.466   2.309   3.461 -0.1324 -0.6696 -1.7579
   65MOL   H25917027   5.414   2.181   3.579  0.7101  1.2549  0.8473
   65MOL   H26017028   5.801   2.165   3.529 -2.0764 -0.4728 -1.7324
   65MOL   H26117029   5.771   2.053   3.660 -2.2053 -0.3651  1.4057
   65MOL   H26217030   5.661   2.194   3.630 -0.0347 -0.7114  1.7048
   66MOL     C117031   2.639   1.572   0.276  0.3203  0.3559 -0.0056
   66MOL     C217032   2.781   1.578   0.245 -0.2117  0.4639 -0.1903
   66MOL     C317033   2.874   1.460   0.287  0.3473 -0.7570  0.1098
   66MOL     C417034   2.876   1.592   0.361  0.2042 -0.1428 -0.3824
   66MOL     C517035   2.574   1.714   0.268  0.1044  0.6057 -0.1236
   66MOL     H617036   2.591   1.504   0.206  3.7746 -0.5176 -1.6549
   66MOL     H717037   2.804   1.620   0.147 -2.6819  1.0185 -0.5511
   66MOL     H817038   2.834   1.376   0.344  0.3346  0.2385  1.5902
   66MOL     H917039   2.953   1.440   0.215  0.3936 -0.3154  0.0331
   66MOL    H1017040   2.969   1.648   0.354 -0.5132  1.3992  1.8622
   66MOL    H1117041   2.828   1.592   0.459 -0.4189  0.7253 -0.6835
   66MOL    H1217042   2.589   1.747   0.165 -0.3117  0.1119 -0.3413
   66MOL    H1317043   2.637   1.773   0.336  2.3714 -0.4368 -1.2654
   66MOL    H1417044   2.631   1.528   0.375  0.9629  2.0246  0.8163
   66MOL    C1517045   2.420   1.720   0.297 -0.4557  0.4197  0.0706
   66MOL    C1617046   2.396   1.673   0.438  0.4327 -0.9727  0.3389
   66MOL    C1717047   2.301   1.743   0.541 -0.5027 -0.4001 -0.9844
   66MOL    C1817048   2.447   1.767   0.556 -0.1927  0.0188 -0.5346
   66MOL    C1917049   2.345   1.856   0.272  0.3065 -0.0598 -0.0488
   66MOL    H2017050   2.368   1.655   0.228  0.6473 -1.2160  0.7301
   66MOL    H2117051   2.401   1.565   0.439 -0.9637 -1.0604 -0.4091
   66MOL    H2217052   2.257   1.672   0.610 -0.2858 -3.1945 -3.6196
   66MOL    H2317053   2.234   1.812   0.490 -1.2507 -1.5839 -1.6130
   66MOL    H2417054   2.489   1.859   0.517  1.6246 -0.1924  0.8755
   66MOL    H2517055   2.509   1.723   0.634  0.8883  0.7028 -1.0097
   66MOL    H2617056   2.377   1.924   0.352 -0.7133  0.0063  0.3095
   66MOL    H2717057   2.237   1.852   0.287  0.3512 -1.2264 -0.0321
   66MOL    C2817058   2.379   1.929   0.140  0.0529  0.2537 -0.5221
   66MOL    C2917059   2.311   2.067   0.152 -0.0924  0.6552 -0.3400
   66MOL    C3017060   2.390   2.180   0.226  0.6529 -0.0304 -0.5381
   66MOL    C3117061   2.368   2.180   0.079 -0.5044 -0.8282 -0.2971
   66MOL    C3217062   2.338   1.844   0.016  0.0861 -0.2995 -0.0507
   66MOL    H3317063   2.485   1.952   0.150  1.0110 -4.0102  0.0817
   66MOL    H3417064   2.204   2.073   0.164  0.0028  1.1367  0.2946
   66MOL    H3517065   2.488   2.160   0.268  0.6482  0.0773 -0.4785
   66MOL    H3617066   2.317   2.235   0.285  0.1402 -0.8941 -0.3569
   66MOL    H3717067   2.452   2.157   0.013 -1.3501 -0.8556 -1.3906
   66MOL    H3817068   2.314   2.267   0.043  2.2744  1.1484  0.1824
   66MOL    H3917069   2.230   1.834   0.021  0.1757 -1.7112 -0.5720
   66MOL    H4017070   2.379   1.743   0.026 -1.6040 -1.1235 -1.1954
   66MOL    C4117071   2.370   1.896   7.710 -0.2111 -1.2126  0.0163
   66MOL    C4217072   2.316   1.785   7.623  0.6205  0.1617 -0.2341
   66MOL    C4317073   2.279   1.811   7.479  0.3331 -0.3612 -0.4363
   66MOL    C4417074   2.174   1.769   7.574 -0.0964 -0.2040 -0.5456
   66MOL    C4517075   2.524   1.911   7.692 -0.0250 -0.2699  0.4474
   66MOL    H4617076   2.306   1.983   7.694  1.1920 -0.1377  0.1182
   66MOL    H4717077   2.364   1.688   7.632 -0.2718 -0.2065  0.6719
   66MOL    H4817078   2.278   1.913   7.443  1.3625 -0.5830 -1.1062
   66MOL    H4917079   2.303   1.741   7.399  0.6731 -0.3117 -0.3774
   66MOL    H5017080   2.133   1.669   7.562 -1.8555  0.7917 -3.2343
   66MOL    H5117081   2.119   1.843   7.632  1.3053  0.8944 -0.5944
   66MOL    H5217082   2.568   1.811   7.694 -1.2009 -0.8299 -0.8069
   66MOL    H5317083   2.555   1.965   7.782 -0.8638  1.8859 -0.5303
   66MOL    C5417084   2.579   1.983   7.567  0.0042 -0.2844 -0.0502
   66MOL    C5517085   2.558   2.138   7.580  0.2367 -0.4647 -0.4065
   66MOL    C5617086   2.426   2.208   7.569 -0.2869  0.7053 -0.6885
   66MOL    C5717087   2.539   2.236   7.466 -0.9635  0.6885  0.6463
   66MOL    C5817088   2.729   1.965   7.560  0.0725 -0.0920 -0.8636
   66MOL    H5917089   2.531   1.947   7.476 -1.4326 -1.6487  1.2217
   66MOL    H6017090   2.621   2.170   7.663 -0.6090  0.4741 -0.1296
   66MOL    H6117091   2.339   2.149   7.542  0.0691 -1.7997  3.2804
   66MOL    H6217092   2.398   2.293   7.630 -2.1883 -0.5431  0.2276
   66MOL    H6317093   2.591   2.331   7.474 -1.9741  1.2444  0.7682
   66MOL    H6417094   2.519   2.190   7.370  0.4465  0.2899  0.5395
   66MOL    H6517095   2.766   1.994   7.659  1.1808 -2.2933 -0.5990
   66MOL    H6617096   2.761   1.861   7.554  2.4094  0.4490  1.3580
   66MOL    C6717097   2.813   2.039   7.452  0.4348 -0.3688  0.0050
   66MOL    C6817098   2.954   2.031   7.494 -0.1733 -0.1426 -0.2679
   66MOL    C6917099   3.040   2.159   7.493 -0.2129  0.5330  0.1244
   66MOL    C7017100   3.009   2.093   7.624 -0.3725 -0.1761  0.7192
   66MOL    C7117101   2.786   1.978   7.312 -0.6320 -0.6845 -0.2206
   66MOL    H7217102   2.772   2.139   7.452 -2.7273 -1.5939 -1.7292
   66MOL    H7317103   3.003   1.937   7.467 -0.9370 -1.7447  3.5990
   66MOL    H7417104   3.139   2.157   7.448 -0.0389 -0.0630  0.5270
   66MOL    H7517105   2.982   2.248   7.467  0.3240  0.3845 -1.6407
   66MOL    H7617106   2.943   2.146   7.693 -0.0621 -0.2798  1.0933
   66MOL    H7717107   3.096   2.045   7.668 -2.2165 -1.6684  2.8605
   66MOL    H7817108   2.678   1.977   7.297 -1.0889  0.4487  2.6795
   66MOL    H7917109   2.808   1.871   7.317  0.8127 -0.3659  0.4848
   66MOL    C8017110   2.855   2.037   7.187 -0.2233  0.1487  0.1291
   66MOL    C8117111   2.773   2.155   7.140 -0.1916 -0.3683  0.3709
   66MOL    C8217112   2.846   2.250   7.047 -0.3119 -0.2712 -0.7114
   66MOL    C8317113   2.808   2.294   7.190  0.3159 -0.4035 -0.2579
   66MOL    C8417114   2.872   1.933   7.076 -0.3858  0.7069  0.1152
   66MOL    H8517115   2.947   2.082   7.224  0.3975 -0.0649 -1.1114
   66MOL    H8617116   2.667   2.134   7.127 -0.3770 -0.1261  1.4583
   66MOL    H8717117   2.791   2.291   6.963 -0.7069  1.9357  0.5693
   66MOL    H8817118   2.955   2.242   7.038 -0.3813 -1.4542 -0.5710
   66MOL    H8917119   2.884   2.317   7.264 -0.7004  1.8967  0.1040
   66MOL    H9017120   2.712   2.344   7.194 -0.6657 -2.1438 -1.0341
   66MOL    H9117121   2.787   1.865   7.073  0.4529 -0.2856 -2.3451
   66MOL    H9217122   2.873   1.990   6.982  0.4254 -0.0194 -0.3222
   66MOL    C9317123   2.997   1.834   7.066  0.0758  0.1164  0.7550
   66MOL    C9417124   3.123   1.920   7.035 -0.1099 -0.8345  0.4308
   66MOL    C9517125   3.214   1.883   6.919  0.6691  0.0231  0.1735
   66MOL    C9617126   3.130   2.008   6.911  0.0024  0.1235  0.2691
   66MOL    C9717127   3.019   1.739   7.183 -0.2691  0.6420 -0.1351
   66MOL    H9817128   2.977   1.781   6.972 -0.1110  3.0635 -0.9066
   66MOL    H9917129   3.170   1.973   7.118 -2.4174  0.5960  0.8765
   66MOL   H10017130   3.322   1.896   6.920  0.6309  0.7579 -1.6087
   66MOL   H10117131   3.173   1.803   6.858  0.7597  0.9326 -1.1030
   66MOL   H10217132   3.183   2.103   6.912  0.3094 -0.0559  0.8450
   66MOL   H10317133   3.045   2.008   6.843  1.1922 -0.6663 -1.2493
   66MOL   H10417134   2.920   1.696   7.203  0.3907 -0.4098  0.9017
   66MOL   H10517135   3.055   1.798   7.266  2.1290  0.9073 -1.3168
   66MOL   C10617136   3.120   1.630   7.150  0.1199  0.2143  0.6309
   66MOL   C10717137   3.213   1.608   7.269  0.3142 -0.0620 -0.2902
   66MOL   C10817138   3.356   1.578   7.253  0.6138  0.0392 -0.2417
   66MOL   C10917139   3.314   1.712   7.311  0.1312 -0.0272 -0.3990
   66MOL   C11017140   3.048   1.511   7.081  0.3977  0.1485 -0.1785
   66MOL   H11117141   3.186   1.668   7.072  1.0528 -1.5265  0.5497
   66MOL   H11217142   3.169   1.555   7.353  0.4314 -1.3190 -1.0146
   66MOL   H11317143   3.390   1.507   7.328 -1.7814 -0.8356  0.0699
   66MOL   H11417144   3.403   1.576   7.154 -0.6540  0.0713 -0.8562
   66MOL   H11517145   3.321   1.797   7.244  0.9678 -0.4789 -0.8905
   66MOL   H11617146   3.332   1.737   7.415 -0.7835 -1.6145  0.1750
   66MOL   H11717147   2.971   1.478   7.151  0.2092  0.5645 -0.1904
   66MOL   H11817148   3.001   1.553   6.993 -1.3953  1.0745  1.1846
   66MOL   C11917149   3.128   1.387   7.035 -0.1135 -0.6715 -0.0784
   66MOL   C12017150   3.026   1.280   6.990 -0.3473  0.0052  0.4247
   66MOL   C12117151   2.929   1.222   7.090 -0.5801 -0.1859  0.2947
   66MOL   C12217152   3.025   1.125   7.029 -0.6753 -0.5187  0.3383
   66MOL   C12317153   3.236   1.409   6.928 -0.1538 -0.3473  0.2510
   66MOL   H12417154   3.173   1.348   7.127  1.3531  2.3949  0.5569
   66MOL   H12517155   2.976   1.309   6.898  0.2058  1.1882  0.4843
   66MOL   H12617156   2.825   1.220   7.060 -0.4370 -0.1243 -0.2246
   66MOL   H12717157   2.951   1.254   7.191 -0.7240 -0.7998  0.5212
   66MOL   H12817158   3.093   1.071   7.094  1.9905  1.6592 -0.5296
   66MOL   H12917159   2.990   1.062   6.948 -0.8308 -1.2922  1.0069
   66MOL   H13017160   3.173   1.427   6.840  0.7807  0.7136 -0.2137
   66MOL   H13117161   3.290   1.504   6.929 -2.8626  1.2608  0.7764
   66MOL   C13217162   3.344   1.293   6.916 -0.6175  0.1499 -0.4470
   66MOL   C13317163   3.439   1.295   7.036 -0.1932  0.4541  0.7611
   66MOL   C13417164   3.520   1.184   7.085 -0.6741  0.6579  0.1521
   66MOL   C13517165   3.405   1.227   7.169 -0.3740 -0.4511 -0.5127
   66MOL   C13617166   3.421   1.303   6.784 -0.4129 -0.0937 -0.2846
   66MOL   H13717167   3.283   1.204   6.921 -0.7862  0.0691 -3.2650
   66MOL   H13817168   3.481   1.395   7.048  1.0602 -0.1285  1.3044
   66MOL   H13917169   3.522   1.084   7.043  1.8162  0.8277 -0.2320
   66MOL   H14017170   3.618   1.219   7.118  1.5457 -3.4858 -1.7092
   66MOL   H14117171   3.326   1.153   7.168 -0.2301 -0.6031 -0.6459
   66MOL   H14217172   3.434   1.275   7.263  1.8251  1.5132 -2.1378
   66MOL   H14317173   3.466   1.401   6.770  0.5004 -0.3086  1.0600
   66MOL   H14417174   3.507   1.237   6.797  1.0269  1.9740  0.9099
   66MOL   C14517175   3.353   1.249   6.656  0.1614  0.3814 -0.5895
   66MOL   C14617176   3.287   1.357   6.578  0.7562 -0.1674  0.3383
   66MOL   C14717177   3.194   1.318   6.468 -0.5948 -0.3906 -0.0956
   66MOL   C14817178   3.141   1.377   6.599 -0.0226  0.3037 -0.1419
   66MOL   C14917179   3.461   1.190   6.575 -0.3587 -0.2150  0.5433
   66MOL   H15017180   3.278   1.178   6.687 -1.3015  0.8149 -2.9989
   66MOL   H15117181   3.349   1.447   6.569  0.4016 -0.1578 -2.5370
   66MOL   H15217182   3.188   1.377   6.377  0.0687 -1.1465 -0.6351
   66MOL   H15317183   3.195   1.210   6.457 -2.4922 -0.4885  0.4717
   66MOL   H15417184   3.079   1.311   6.658 -1.1088  2.6516  1.4154
   66MOL   H15517185   3.111   1.482   6.600  0.0902  0.4457 -3.5040
   66MOL   H15617186   3.443   1.188   6.467  1.0979 -0.3764  0.2848
   66MOL   H15717187   3.550   1.252   6.588 -1.0563  0.8980  0.0700
   66MOL   C15817188   3.468   1.044   6.609 -0.6787 -0.9135 -0.5524
   66MOL   C15917189   3.599   0.988   6.556  1.0222  0.6909  0.5781
   66MOL   C16017190   3.730   1.036   6.616 -0.0714 -0.2453 -0.1069
   66MOL   C16117191   3.687   0.892   6.633 -0.6519 -1.1395  0.1627
   66MOL   C16217192   3.351   0.957   6.558  0.5840  0.1792  0.0532
   66MOL   H16317193   3.475   1.036   6.718 -2.4982 -0.5084 -0.3935
   66MOL   H16417194   3.609   0.983   6.447 -4.0139  0.5503  0.0222
   66MOL   H16517195   3.724   1.104   6.701  1.5671  2.4242 -2.0229
   66MOL   H16617196   3.818   1.048   6.553 -0.6536  0.0354 -0.8697
   66MOL   H16717197   3.750   0.819   6.583  1.2651  0.6947 -0.1922
   66MOL   H16817198   3.656   0.859   6.732 -0.2182 -0.3607  0.5613
   66MOL   H16917199   3.373   0.955   6.451 -0.1940  3.5758 -0.2192
   66MOL   H17017200   3.254   1.002   6.576  1.1555  1.7883 -0.8175
   66MOL   C17117201   3.343   0.814   6.624 -0.4481 -0.2519  1.1566
   66MOL   C17217202   3.285   0.828   6.760  0.2517  0.7306 -0.2040
   66MOL   C17317203   3.314   0.735   6.874 -0.0051 -0.0040  0.3435
   66MOL   C17417204   3.357   0.883   6.880  0.6304 -0.5516  0.3332
   66MOL   C17517205   3.248   0.714   6.541  0.0848 -0.3726 -0.2813
   66MOL   H17617206   3.446   0.776   6.627  0.2501  1.4790 -0.1405
   66MOL   H17717207   3.177   0.842   6.760  0.1829  0.2095 -0.2698
   66MOL   H17817208   3.222   0.693   6.913  0.0629 -1.7095 -1.2485
   66MOL   H17917209   3.397   0.665   6.879  0.2532  0.1732 -1.0438
   66MOL   H18017210   3.463   0.906   6.870  0.3284  0.3112 -1.0734
   66MOL   H18117211   3.296   0.953   6.936 -2.8484 -1.5028 -2.1016
   66MOL   H18217212   3.164   0.779   6.516  1.3770  0.3384 -2.9920
   66MOL   H18317213   3.201   0.633   6.597  0.4860 -1.0106 -0.8516
   66MOL   C18417214   3.316   0.652   6.411 -0.3935 -0.4498 -0.3544
   66MOL   C18517215   3.238   0.690   6.286 -0.0579  0.0536  0.3479
   66MOL   C18617216   3.092   0.641   6.259 -0.1087 -0.0465  0.0944
   66MOL   C18717217   3.209   0.588   6.171 -0.1938 -0.1587 -0.5429
   66MOL   C18817218   3.349   0.497   6.422 -0.5427 -0.1539 -0.0151
   66MOL   H18917219   3.406   0.712   6.399 -0.2876 -0.7104 -0.9051
   66MOL   H19017220   3.266   0.789   6.250 -1.1431  0.2289 -0.0427
   66MOL   H19117221   3.020   0.709   6.215  0.7519 -0.4060 -1.9079
   66MOL   H19217222   3.048   0.567   6.325 -3.1104  1.2834 -0.3520
   66MOL   H19317223   3.211   0.621   6.067 -0.3929 -0.5883 -0.6841
   66MOL   H19417224   3.238   0.484   6.181 -1.2043 -0.6042 -2.0382
   66MOL   H19517225   3.264   0.445   6.378 -0.7529 -1.5650  1.9683
   66MOL   H19617226   3.353   0.458   6.523 -4.0706 -0.1161  0.2035
   66MOL   C19717227   3.470   0.455   6.337  0.3686 -0.1170  0.4438
   66MOL   C19817228   3.459   0.296   6.330  0.1959 -0.3038 -0.8410
   66MOL   C19917229   3.523   0.215   6.223  0.3657 -0.0899 -0.1537
   66MOL   C20017230   3.375   0.237   6.223  0.4820 -0.0044 -0.0846
   66MOL   C20117231   3.606   0.505   6.376  0.7593  0.3610 -0.3714
   66MOL   H20217232   3.453   0.507   6.243 -0.7303 -2.2070 -0.5540
   66MOL   H20317233   3.438   0.252   6.427  0.3711 -0.3405 -0.8187
   66MOL   H20417234   3.586   0.277   6.161  0.4739 -2.0282 -2.0280
   66MOL   H20517235   3.563   0.118   6.252  1.7113 -0.0593 -1.8494
   66MOL   H20617236   3.322   0.298   6.151  1.6794 -0.3146 -1.2653
   66MOL   H20717237   3.318   0.149   6.254 -0.4762  0.2280 -1.1856
   66MOL   H20817238   3.663   0.487   6.285  0.7363  0.3585 -0.3848
   66MOL   H20917239   3.613   0.613   6.383 -0.4177  0.4212 -0.0780
   66MOL   C21017240   3.690   0.438   6.485 -0.2941 -0.2501  0.2017
   66MOL   C21117241   3.834   0.489   6.471  0.7708  0.1189 -0.0597
   66MOL   C21217242   3.964   0.424   6.478  0.4496  0.4689 -0.0913
   66MOL   C21317243   3.912   0.452   6.339 -0.0108 -0.4218 -0.1884
   66MOL   C21417244   3.632   0.473   6.619  0.0832 -0.7559  0.1336
   66MOL   H21517245   3.675   0.331   6.477 -1.0723 -0.3455  2.6131
   66MOL   H21617246   3.847   0.592   6.503 -0.5421  0.3453 -0.2404
   66MOL   H21717247   4.047   0.481   6.519  2.8021 -2.1091 -1.0695
   66MOL   H21817248   3.959   0.319   6.508  0.7060  0.5884  0.3684
   66MOL   H21917249   3.962   0.527   6.279 -0.4690  1.8705  2.2047
   66MOL   H22017250   3.898   0.363   6.278  0.1578 -1.3407  1.0891
   66MOL   H22117251   3.636   0.582   6.625 -0.2580 -0.4177 -4.0037
   66MOL   H22217252   3.524   0.458   6.622 -0.1236 -0.7299 -3.9149
   66MOL   C22317253   3.708   0.417   6.736  0.1372 -0.1247 -0.2606
   66MOL   C22417254   3.664   0.265   6.755 -0.1808 -0.3648  0.3341
   66MOL   C22517255   3.758   0.155   6.724 -0.0060 -0.5603 -0.3503
   66MOL   C22617256   3.740   0.191   6.870  0.2623 -0.2847  0.1054
   66MOL   C22717257   3.683   0.502   6.862  0.3620  0.1532  0.3866
   66MOL   H22817258   3.815   0.415   6.717 -0.2408 -0.9738 -2.5125
   66MOL   H22917259   3.559   0.244   6.737  0.1269 -1.3692 -0.3243
   66MOL   H23017260   3.851   0.182   6.676  1.6360 -0.1642  2.9393
   66MOL   H23117261   3.712   0.062   6.690 -3.1966  0.5441  0.7320
   66MOL   H23217262   3.678   0.129   6.934 -1.4666  2.1685  0.8620
   66MOL   H23317263   3.828   0.236   6.916  0.1973 -0.3950  0.3417
   66MOL   H23417264   3.627   0.592   6.837  0.1336 -0.0517  0.1379
   66MOL   H23517265   3.614   0.437   6.916 -0.5768  1.0468  0.2796
   66MOL   C23617266   3.808   0.542   6.948 -0.0270  0.7817  1.0038
   66MOL   C23717267   3.758   0.598   7.080  0.1001  0.5488 -0.0480
   66MOL   C23817268   3.698   0.509   7.189 -0.3035 -0.2676  0.6009
   66MOL   C23917269   3.836   0.565   7.202  0.6999  0.2325  0.7436
   66MOL   C24017270   3.896   0.645   6.861 -0.5975  0.1624 -0.0456
   66MOL   H24117271   3.862   0.453   6.980 -1.3839  0.3560  2.1930
   66MOL   H24217272   3.714   0.697   7.069 -2.7571 -0.7432 -0.6877
   66MOL   H24317273   3.632   0.550   7.265  1.1826  0.4944  1.4836
   66MOL   H24417274   3.677   0.409   7.149 -1.4295 -0.3945  1.5001
   66MOL   H24517275   3.927   0.507   7.186  1.4771  1.4099  0.8330
   66MOL   H24617276   3.859   0.628   7.287  1.5828 -4.2794  4.0634
   66MOL   H24717277   3.923   0.599   6.765  2.0113 -2.5994  1.8978
   66MOL   H24817278   3.837   0.734   6.841  0.3197  0.8140  0.1198
   66MOL   C24917279   4.028   0.695   6.920  0.6979  0.2687 -0.2871
   66MOL   C25017280   4.086   0.807   6.840 -0.2000  0.7026 -0.7720
   66MOL   C25117281   4.000   0.928   6.824 -0.0885 -0.1240  0.6365
   66MOL   C25217282   4.116   0.952   6.902 -0.4007  0.5529 -0.5951
   66MOL   C25317283   4.122   0.584   6.953  0.1238 -0.4301  0.0391
   66MOL   H25417284   4.004   0.744   7.014  1.0895  1.0414 -0.5789
   66MOL   H25517285   4.151   0.781   6.757  0.1302  0.7498 -0.5296
   66MOL   H25617286   4.000   0.971   6.724  0.9233 -1.3271  0.0966
   66MOL   H25717287   3.908   0.940   6.881 -0.5278 -1.0840  0.1487
   66MOL   H25817288   4.197   1.013   6.864  0.0491 -0.6534 -1.5623
   66MOL   H25917289   4.095   0.969   7.008 -0.1560 -3.6539  0.2296
   66MOL   H26017290   4.214   0.641   6.959 -0.2518  0.0590  1.2412
   66MOL   H26117291   4.125   0.508   6.874  2.0867 -0.5121  0.1711
   66MOL   H26217292   4.109   0.544   7.053  0.0586 -0.3765  0.0522
   67MOL     C117293   0.948   1.056   6.632 -0.2758  0.3612  0.3171
   67MOL     C217294   0.871   1.181   6.599  1.1829 -0.3170 -0.3153
   67MOL     C317295   0.942   1.290   6.546 -0.0276  0.2891 -0.7601
   67MOL     C417296   0.879   1.314   6.675  0.6813 -0.0517 -0.4970
   67MOL     C517297   0.988   0.979   6.507  0.3240 -0.0881 -0.4966
   67MOL     H617298   1.034   1.085   6.692 -0.4599 -0.0926  0.8046
   67MOL     H717299   0.785   1.165   6.534  1.6214 -1.6115 -0.5791
   67MOL     H817300   1.050   1.276   6.551 -0.2673 -1.0908  0.8170
   67MOL     H917301   0.899   1.350   6.466  0.4494  3.2672  1.1346
   67MOL    H1017302   0.784   1.366   6.675  0.2437 -0.8460  0.1481
   67MOL    H1117303   0.945   1.325   6.760 -0.5667  0.8929  0.3589
   67MOL    H1217304   1.035   1.047   6.436  0.4458  0.5862  0.2201
   67MOL    H1317305   0.902   0.946   6.449 -0.2514  1.5690 -0.5984
   67MOL    H1417306   0.894   1.000   6.710 -0.4091  0.7193  0.4834
   67MOL    C1517307   1.097   0.867   6.532  0.8484 -0.2333  0.0771
   67MOL    C1617308   1.213   0.907   6.611 -0.4095  0.2821 -0.8375
   67MOL    C1717309   1.301   1.021   6.583  0.3297 -0.1150  0.6776
   67MOL    C1817310   1.351   0.881   6.552 -0.2514  0.0997  0.4802
   67MOL    C1917311   1.042   0.732   6.584 -0.3795 -0.2041 -0.2822
   67MOL    H2017312   1.118   0.843   6.428  1.3049 -0.1049  0.1412
   67MOL    H2117313   1.198   0.901   6.718 -2.3879 -0.2669 -1.1336
   67MOL    H2217314   1.353   1.067   6.666  0.3351  0.4852  0.3453
   67MOL    H2317315   1.283   1.095   6.505  0.8746  0.2739  0.9204
   67MOL    H2417316   1.341   0.840   6.452 -0.5593 -0.6396  0.8075
   67MOL    H2517317   1.419   0.838   6.625  2.0278  1.7691 -0.5866
   67MOL    H2617318   0.937   0.732   6.555 -0.5177 -0.3084  0.2052
   67MOL    H2717319   1.044   0.747   6.692  2.6832  2.6205 -0.6704
   67MOL    C2817320   1.125   0.607   6.543 -0.0171 -0.5622 -0.0291
   67MOL    C2917321   1.118   0.594   6.391  0.5076 -0.2847 -0.0816
   67MOL    C3017322   1.246   0.611   6.313 -0.8725 -0.3109 -0.0288
   67MOL    C3117323   1.181   0.473   6.314 -0.1803  0.4340 -0.0784
   67MOL    C3217324   1.073   0.479   6.606 -0.2298  0.5581 -0.1572
   67MOL    H3317325   1.226   0.627   6.578 -0.6626 -0.3552  1.7821
   67MOL    H3417326   1.025   0.635   6.352  0.0133 -0.5729  0.7783
   67MOL    H3517327   1.336   0.620   6.374 -0.8199 -1.5133  0.0703
   67MOL    H3617328   1.245   0.651   6.212  1.5042 -0.9131 -0.3322
   67MOL    H3717329   1.230   0.390   6.366 -0.6416  0.7757  0.9106
   67MOL    H3817330   1.126   0.431   6.230 -0.6692  1.1060 -0.0946
   67MOL    H3917331   1.137   0.392   6.590  0.9350  1.0593  1.5776
   67MOL    H4017332   0.979   0.455   6.558 -1.1316 -3.3027  3.2511
   67MOL    C4117333   1.031   0.490   6.757 -1.0965  0.1168 -0.6101
   67MOL    C4217334   1.090   0.369   6.836 -0.1907 -0.4792  0.3405
   67MOL    C4317335   1.154   0.380   6.974 -0.1789  0.4980 -0.1704
   67MOL    C4417336   1.237   0.338   6.846 -0.1604  0.5504 -0.1656
   67MOL    C4517337   0.879   0.514   6.776  0.9384 -0.0609 -0.0541
   67MOL    H4617338   1.085   0.582   6.780 -0.3501 -0.3995 -0.2855
   67MOL    H4717339   1.023   0.283   6.830 -0.8368  0.0262  0.2975
   67MOL    H4817340   1.169   0.479   7.016 -2.0231  0.9335 -0.4812
   67MOL    H4917341   1.124   0.300   7.042 -1.1805  0.3419 -0.7807
   67MOL    H5017342   1.267   0.236   6.823 -2.4881 -0.0088 -0.8883
   67MOL    H5117343   1.309   0.411   6.810 -0.2043  1.4845  1.5724
   67MOL    H5217344   0.815   0.428   6.755  0.4040  0.4444 -0.5163
   67MOL    H5317345   0.842   0.577   6.696 -0.0522 -1.4909 -0.7622
   67MOL    C5417346   0.830   0.570   6.915  0.2444  0.6123  0.4283
   67MOL    C5517347   0.862   0.720   6.938  0.0496  0.5278 -0.0199
   67MOL    C5617348   0.991   0.767   6.988 -0.0574  0.2301  0.5068
   67MOL    C5717349   0.866   0.779   7.079  0.2665 -0.5492  0.3608
   67MOL    C5817350   0.677   0.534   6.926 -0.3224  0.2462  0.0783
   67MOL    H5917351   0.872   0.514   6.999 -0.1420 -2.3738 -1.3093
   67MOL    H6017352   0.809   0.790   6.875  1.0948  0.4115 -1.0432
   67MOL    H6117353   1.052   0.693   7.039 -1.7499 -1.1882  0.5212
   67MOL    H6217354   1.035   0.860   6.953  3.2255 -1.2417  0.5351
   67MOL    H6317355   0.831   0.881   7.096  0.0060 -0.6129  0.1987
   67MOL    H6417356   0.858   0.713   7.165 -1.9643  1.7278  1.9745
   67MOL    H6517357   0.629   0.570   6.835  0.8535  1.3033 -0.1405
   67MOL    H6617358   0.658   0.428   6.908  1.0579 -0.2277  1.3587
   67MOL    C6717359   0.591   0.588   7.051  0.1373 -0.7597 -0.0215
   67MOL    C6817360   0.443   0.568   7.012  0.1188 -0.4226 -0.1810
   67MOL    C6917361   0.327   0.629   7.085  0.5474  0.0417 -0.2387
   67MOL    C7017362   0.348   0.663   6.937 -0.2986  0.8542  0.0645
   67MOL    C7117363   0.634   0.517   7.176 -0.0725  0.0093 -0.3461
   67MOL    H7217364   0.596   0.697   7.051  0.2039 -0.7628  0.3009
   67MOL    H7317365   0.417   0.464   6.993  0.7697 -1.1500  2.7222
   67MOL    H7417366   0.234   0.576   7.105  0.7228 -0.3283 -0.4022
   67MOL    H7517367   0.340   0.714   7.151 -1.4597  0.8318 -0.8404
   67MOL    H7617368   0.400   0.752   6.904  1.2966  0.3554  1.1782
   67MOL    H7717369   0.281   0.619   6.863  0.2491  1.9727 -1.1092
   67MOL    H7817370   0.742   0.520   7.184  0.0441  0.8265 -1.8775
   67MOL    H7917371   0.614   0.414   7.148  0.0276  0.4960 -2.2935
   67MOL    C8017372   0.562   0.552   7.308 -0.4532 -0.5317  0.0674
   67MOL    C8117373   0.615   0.681   7.373  0.5567  0.2959  0.5756
   67MOL    C8217374   0.516   0.778   7.422  0.6475  0.1628 -0.5575
   67MOL    C8317375   0.598   0.820   7.313  0.1232  0.1310  0.4842
   67MOL    C8417376   0.587   0.443   7.419  0.4069  0.1658 -0.1763
   67MOL    H8517377   0.454   0.545   7.292 -0.8563 -0.7159  2.6924
   67MOL    H8617378   0.709   0.670   7.428 -0.3205 -1.4451  1.7770
   67MOL    H8717379   0.521   0.827   7.519  4.4691 -2.3931  0.6533
   67MOL    H8817380   0.414   0.745   7.404  1.1249 -2.2822  0.9439
   67MOL    H8917381   0.533   0.826   7.226 -0.8423 -2.7610  0.9448
   67MOL    H9017382   0.654   0.911   7.331 -0.9339  1.2420 -1.5924
   67MOL    H9117383   0.570   0.345   7.374 -2.6561  0.6267 -0.1358
   67MOL    H9217384   0.689   0.442   7.456 -0.0719 -1.4205  1.1650
   67MOL    C9317385   0.497   0.451   7.549 -0.8018  0.5886 -0.7269
   67MOL    C9417386   0.358   0.407   7.526  0.7526 -0.2474  0.2238
   67MOL    C9517387   0.238   0.465   7.602  0.0263 -0.6034  0.1992
   67MOL    C9617388   0.255   0.510   7.462  0.5415  0.2539 -0.6111
   67MOL    C9717389   0.556   0.362   7.657 -0.1593 -0.3176  0.3732
   67MOL    H9817390   0.495   0.556   7.578 -0.6211  1.4934 -3.8129
   67MOL    H9917391   0.340   0.309   7.481  2.3097  0.1154 -1.2509
   67MOL   H10017392   0.173   0.385   7.638 -0.1404 -0.9796 -0.9113
   67MOL   H10117393   0.260   0.536   7.681 -2.8476 -0.6414  1.0839
   67MOL   H10217394   0.177   0.461   7.404  0.7154 -1.2017  0.3379
   67MOL   H10317395   0.256   0.618   7.452  1.8537  0.1144 -2.1792
   67MOL   H10417396   0.579   0.269   7.606  0.4958 -0.5231  1.0291
   67MOL   H10517397   0.477   0.346   7.730 -1.1846  0.4380 -0.5600
   67MOL   C10617398   0.670   0.420   7.740  0.2320 -0.0524 -0.0300
   67MOL   C10717399   0.619   0.479   0.029 -0.3755  0.2033  0.9902
   67MOL   C10817400   0.690   0.593   0.100  0.1612  0.5621 -0.8254
   67MOL   C10917401   0.561   0.613   0.036 -0.2230  0.4464  0.1697
   67MOL   C11017402   0.775   0.307   7.750  0.3197 -0.1951  0.1603
   67MOL   H11117403   0.713   0.502   7.682  0.4973 -0.5179 -0.4927
   67MOL   H11217404   0.570   0.408   0.095  0.4826 -0.6884  0.6965
   67MOL   H11317405   0.697   0.601   0.209  0.4114  0.1622 -0.8108
   67MOL   H11417406   0.765   0.652   0.047  0.7613 -0.2010 -0.8388
   67MOL   H11517407   0.566   0.673   7.785  2.0023 -1.1858 -0.8600
   67MOL   H11617408   0.465   0.616   0.087  0.8659 -1.5300  2.4418
   67MOL   H11717409   0.741   0.214   7.797  0.5579  0.1929  1.1196
   67MOL   H11817410   0.784   0.278   7.645 -0.9580  1.4162 -0.4094
   67MOL   C11917411   0.921   0.341   7.802  0.1030 -0.1312  0.2320
   67MOL   C12017412   0.973   0.471   7.743 -0.7353 -0.1540 -0.4122
   67MOL   C12117413   0.984   0.488   7.590  0.0408  0.4740  0.1213
   67MOL   C12217414   1.108   0.488   7.677 -0.6030 -0.1378 -0.5717
   67MOL   C12317415   0.932   0.329   0.118 -0.2014  0.2062 -0.1855
   67MOL   H12417416   0.988   0.263   7.766  0.1797  0.8751 -1.8622
   67MOL   H12517417   0.949   0.561   7.800 -2.1103  0.0286 -1.2691
   67MOL   H12617418   0.937   0.578   7.549 -0.2963 -0.0262 -0.5943
   67MOL   H12717419   0.968   0.393   7.541  0.3226  0.0621  0.8270
   67MOL   H12817420   1.173   0.403   7.657 -2.9225 -1.7077 -1.6944
   67MOL   H12917421   1.171   0.576   7.681 -1.2966  0.3018  2.3251
   67MOL   H13017422   0.872   0.414   0.152  0.1407 -0.8067  3.1421
   67MOL   H13117423   0.880   0.245   0.163  0.2165  0.3985  0.6767
   67MOL   C13217424   1.076   0.326   0.167 -0.5682  0.0930 -0.4495
   67MOL   C13317425   1.154   0.195   0.137  0.4957  0.0225 -0.2824
   67MOL   C13417426   1.306   0.182   0.148 -0.2480 -0.2318  0.0691
   67MOL   C13517427   1.240   0.174   0.015 -0.1987 -0.0772 -0.3172
   67MOL   C13617428   1.098   0.363   0.314  0.2507  0.0924  0.3563
   67MOL   H13717429   1.128   0.406   0.113 -0.6004  0.5792  0.2279
   67MOL   H13817430   1.105   0.104   0.170  0.1932  0.1662 -0.3328
   67MOL   H13917431   1.355   0.279   0.160 -2.5037  0.8554  0.6378
   67MOL   H14017432   1.338   0.095   0.203 -4.4959 -0.0571  3.0163
   67MOL   H14117433   1.256   0.249   7.777  0.4964  1.4040  1.2392
   67MOL   H14217434   1.233   0.071   7.819 -3.8053 -0.1217  0.2941
   67MOL   H14317435   1.040   0.287   0.367 -1.4740 -0.1822 -1.8603
   67MOL   H14417436   1.203   0.347   0.340  0.1446 -2.4341 -0.6020
   67MOL   C14517437   1.052   0.503   0.358 -0.0097 -0.6687 -0.0408
   67MOL   C14617438   1.069   0.525   0.502 -0.1742  0.2434 -0.5113
   67MOL   C14717439   0.971   0.604   0.585  0.4769  0.2016 -0.8502
   67MOL   C14817440   0.991   0.450   0.613 -0.4308 -0.1863 -0.1112
   67MOL   C14917441   1.103   0.623   0.271  1.1469 -0.1778 -0.4904
   67MOL   H15017442   0.944   0.502   0.341 -0.1002  0.1013  0.4587
   67MOL   H15117443   1.170   0.548   0.536 -1.0348  0.0485  2.2816
   67MOL   H15217444   1.014   0.680   0.650 -0.9921  0.9908 -0.7934
   67MOL   H15317445   0.875   0.622   0.537 -0.9129 -0.8937  1.4482
   67MOL   H15417446   0.903   0.392   0.588  0.0970 -0.5191 -1.2525
   67MOL   H15517447   1.046   0.421   0.702  1.6457 -0.6707 -1.5023
   67MOL   H15617448   1.075   0.595   0.169 -0.7167 -0.3604  0.0516
   67MOL   H15717449   1.038   0.705   0.299  0.5273 -0.3962 -1.2560
   67MOL   C15817450   1.259   0.660   0.270 -0.4948 -0.2224 -0.4965
   67MOL   C15917451   1.284   0.807   0.230  0.6819  0.4733  0.0284
   67MOL   C16017452   1.196   0.867   0.122  0.1616 -0.2233 -0.2927
   67MOL   C16117453   1.189   0.922   0.265  0.0350 -0.2458  0.8777
   67MOL   C16217454   1.335   0.578   0.165 -0.0171  0.0003  0.5178
   67MOL   H16317455   1.300   0.645   0.370 -0.5014  0.1837 -0.4306
   67MOL   H16417456   1.385   0.847   0.240  0.4214  0.6996  1.8882
   67MOL   H16517457   1.121   0.799   0.084  1.5367 -0.7195 -2.1589
   67MOL   H16617458   1.231   0.945   0.056  0.9615  0.0154  0.3905
   67MOL   H16717459   1.235   1.017   0.292 -1.0309  0.9105 -1.2485
   67MOL   H16817460   1.097   0.901   0.320 -1.4100  1.4427 -0.8181
   67MOL   H16917461   1.290   0.581   0.066  0.4157 -1.7644  0.2590
   67MOL   H17017462   1.308   0.480   0.202 -1.8485  1.1900  2.4599
   67MOL   C17117463   1.487   0.592   0.166 -0.6038  0.2084 -0.3499
   67MOL   C17217464   1.537   0.527   0.296 -0.1149  0.6270  0.0493
   67MOL   C17317465   1.679   0.547   0.342  0.3230  0.3746 -0.4992
   67MOL   C17417466   1.562   0.611   0.413 -0.3526  0.2164 -0.1890
   67MOL   C17517467   1.550   0.510   0.051 -0.0713 -0.2604  0.1085
   67MOL   H17617468   1.524   0.694   0.156 -1.0409  0.4764  0.6678
   67MOL   H17717469   1.502   0.427   0.320  0.5203  0.7361  1.5162
   67MOL   H17817470   1.719   0.450   0.369 -2.4885 -0.2315  1.8259
   67MOL   H17917471   1.744   0.600   0.273  0.4077  2.5998  1.2160
   67MOL   H18017472   1.560   0.720   0.406 -0.8461  0.3035  1.2304
   67MOL   H18117473   1.525   0.576   0.509 -0.2688  1.9714  0.5148
   67MOL   H18217474   1.509   0.409   0.056  0.4700 -0.4769  0.2290
   67MOL   H18317475   1.654   0.484   0.073  0.1239  0.4357  0.0126
   67MOL   C18417476   1.523   0.555   7.749  0.4544  0.5216  0.5131
   67MOL   C18517477   1.584   0.456   7.649  0.2351 -0.2206  0.0984
   67MOL   C18617478   1.511   0.422   7.518 -0.1473 -0.8036 -0.2439
   67MOL   C18717479   1.543   0.316   7.622 -0.2310 -0.2637  0.0477
   67MOL   C18817480   1.568   0.699   7.708  0.3841 -0.1619 -0.7901
   67MOL   H18917481   1.415   0.553   7.733  0.7478 -1.4141 -1.4765
   67MOL   H19017482   1.689   0.470   7.626  0.4593 -1.7967  0.1320
   67MOL   H19117483   1.571   0.415   7.428 -1.2579 -0.8229 -0.9850
   67MOL   H19217484   1.409   0.457   7.507  0.1203  0.4109  0.9501
   67MOL   H19317485   1.612   0.245   7.577 -2.2968 -1.7563 -0.8886
   67MOL   H19417486   1.460   0.273   7.677  0.2565 -0.2508  0.8022
   67MOL   H19517487   1.676   0.711   7.700  0.1555  2.1444 -0.8111
   67MOL   H19617488   1.544   0.761   7.795  0.6607  1.6187 -1.9610
   67MOL   C19717489   1.495   0.754   7.583 -0.2087 -0.3121  0.0872
   67MOL   C19817490   1.588   0.808   7.482  0.4281  0.3228 -0.1718
   67MOL   C19917491   1.578   0.764   7.336 -0.0794  0.6069 -0.2974
   67MOL   C20017492   1.688   0.721   7.414  0.3703  0.0316 -0.0566
   67MOL   C20117493   1.384   0.852   7.633 -0.2450  0.3456  0.3116
   67MOL   H20217494   1.446   0.668   7.538  1.7272 -1.3575 -0.0672
   67MOL   H20317495   1.632   0.905   7.501  2.8337 -1.0403  1.4440
   67MOL   H20417496   1.499   0.691   7.322  0.0684 -0.5729  4.1675
   67MOL   H20517497   1.589   0.843   7.261 -0.3245  1.1016  0.1855
   67MOL   H20617498   1.687   0.614   7.431  1.3289  0.0073 -0.1246
   67MOL   H20717499   1.787   0.762   7.398 -0.1301  0.1201 -3.2849
   67MOL   H20817500   1.322   0.816   7.715 -1.4563  0.8135 -0.3847
   67MOL   H20917501   1.440   0.928   7.688  1.3978 -0.2886 -0.4551
   67MOL   C21017502   1.282   0.910   7.527 -0.7497 -0.3304  0.1629
   67MOL   C21117503   1.179   0.800   7.479 -0.6738 -0.6375 -0.0401
   67MOL   C21217504   1.089   0.815   7.361  0.2925  0.3444 -0.7473
   67MOL   C21317505   1.204   0.717   7.349  0.7364  0.1519  0.8153
   67MOL   C21417506   1.206   1.032   7.581 -0.4766  0.5824  0.5814
   67MOL   H21517507   1.345   0.942   7.444  1.3475 -0.2707  1.7317
   67MOL   H21617508   1.132   0.748   7.562  0.8191  2.1596  2.6549
   67MOL   H21717509   0.993   0.765   7.365 -0.0117  0.9762 -0.0659
   67MOL   H21817510   1.088   0.900   7.293 -0.3454  0.3874 -0.6856
   67MOL   H21917511   1.189   0.612   7.373  2.3148 -0.4280 -0.6813
   67MOL   H22017512   1.274   0.740   7.269  0.7691 -0.1379  0.7585
   67MOL   H22117513   1.126   1.043   7.508 -0.8044  0.1939  0.8836
   67MOL   H22217514   1.156   1.000   7.672  0.9776 -3.0322  0.2163
   67MOL   C22317515   1.274   1.160   7.616  0.5568  0.3222  0.1367
   67MOL   C22417516   1.191   1.238   7.720 -0.3837  0.1246 -0.1752
   67MOL   C22517517   1.210   1.229   0.025 -0.5257 -0.0852 -0.5799
   67MOL   C22617518   1.244   1.355   7.797 -0.7291  0.3715  0.2345
   67MOL   C22717519   1.314   1.256   7.496 -0.3283 -0.4351 -0.8357
   67MOL   H22817520   1.370   1.133   7.660  1.2172  0.3733 -1.2510
   67MOL   H22917521   1.084   1.231   7.700 -0.5376 -1.9966  1.2340
   67MOL   H23017522   1.298   1.182   0.070  0.1651 -1.6004 -3.4185
   67MOL   H23117523   1.120   1.207   0.082 -0.6745  0.8324 -0.4469
   67MOL   H23217524   1.187   1.446   7.810  0.6129  1.3396 -0.5685
   67MOL   H23317525   1.349   1.383   7.797 -0.0316 -2.0955  0.9090
   67MOL   H23417526   1.241   1.282   7.420  0.5736  0.2604 -1.4724
   67MOL   H23517527   1.324   1.354   7.545  0.8848 -0.8023 -0.3185
   67MOL   C23617528   1.457   1.232   7.431  0.4298 -0.3977  0.3333
   67MOL   C23717529   1.565   1.282   7.537 -0.1720  0.3160 -0.1110
   67MOL   C23817530   1.627   1.176   7.627 -0.4640  0.3238  0.0441
   67MOL   C23917531   1.713   1.240   7.515  0.3414  0.1808 -0.0064
   67MOL   C24017532   1.466   1.301   7.290 -0.0726  0.0862  0.0381
   67MOL   H24117533   1.461   1.124   7.412 -1.4995 -0.6563  1.2318
   67MOL   H24217534   1.544   1.375   7.589  0.7822 -0.5528  1.8808
   67MOL   H24317535   1.634   1.191   7.735 -1.0821  0.8217  0.0200
   67MOL   H24417536   1.608   1.071   7.604  0.0385  0.4769 -1.0879
   67MOL   H24517537   1.734   1.185   7.423 -0.5882 -0.4084  0.1279
   67MOL   H24617538   1.796   1.305   7.543  1.7123 -1.6357  0.3144
   67MOL   H24717539   1.395   1.383   7.280  0.2611  0.3917  0.1899
   67MOL   H24817540   1.557   1.360   7.277 -0.2476  0.1090 -1.1046
   67MOL   C24917541   1.450   1.204   7.169  0.2424 -0.0245  0.2707
   67MOL   C25017542   1.326   1.117   7.177 -0.5828 -0.1427 -0.5935
   67MOL   C25117543   1.193   1.148   7.121 -0.0848  0.1155 -0.0849
   67MOL   C25217544   1.286   1.043   7.050  0.2519  0.2845 -0.0870
   67MOL   C25317545   1.579   1.127   7.152 -0.7773  0.2673  0.1259
   67MOL   H25417546   1.449   1.261   7.076 -1.5142  0.9820  0.8924
   67MOL   H25517547   1.340   1.044   7.256  3.1535 -1.0503 -1.9595
   67MOL   H25617548   1.106   1.120   7.179 -0.7542  0.4275 -0.9318
   67MOL   H25717549   1.185   1.252   7.089  1.1460  0.8031  1.7608
   67MOL   H25817550   1.243   0.943   7.045  0.9901 -0.1444  1.6555
   67MOL   H25917551   1.337   1.074   6.959 -2.2471  0.6536 -1.3985
   67MOL   H26017552   1.613   1.064   7.234 -1.3398 -0.2931 -0.0671
   67MOL   H26117553   1.656   1.202   7.132 -1.6849  1.1338 -0.1208
   67MOL   H26217554   1.568   1.059   7.068 -1.0326  0.0361  0.3452
   68MOL     C117555   3.472   4.792   6.682 -0.1532  0.3330 -0.2932
   68MOL     C217556   3.445   4.775   6.827 -0.1967  0.0935 -0.2626
   68MOL     C317557   3.452   4.650   6.904  0.1979  1.0612 -0.2801
   68MOL     C417558   3.314   4.708   6.865  0.0060 -0.7509  0.1968
   68MOL     C517559   3.616   4.806   6.640  0.3554  0.4050  1.1821
   68MOL     H617560   3.433   4.702   6.634  1.0611 -0.5083  0.2690
   68MOL     H717561   3.454   4.859   6.896 -0.1565 -2.4398  2.9343
   68MOL     H817562   3.488   4.562   6.851  7.2504  3.0685  0.6921
   68MOL     H917563   3.478   4.654   7.009  1.4920 -3.5086 -0.3115
   68MOL    H1017564   3.262   4.756   6.948 -0.1490 -0.9082  0.1896
   68MOL    H1117565   3.256   4.664   6.785  0.6037 -2.6847  0.8005
   68MOL    H1217566   3.660   4.706   6.639 -1.7432 -0.5663  2.6466
   68MOL    H1317567   3.663   4.858   6.723  1.5629  0.6746  0.3372
   68MOL    H1417568   3.405   4.870   6.647  0.5406  1.5123  0.9507
   68MOL    C1517569   3.653   4.862   6.509  0.2558 -0.3097  0.5251
   68MOL    C1617570   3.593   5.002   6.494  0.0754 -0.2582 -0.1208
   68MOL    C1717571   3.452   5.021   6.461 -0.0103  0.3607 -0.9554
   68MOL    C1817572   3.553   5.061   6.356  0.1934 -0.9212  0.1983
   68MOL    C1917573   3.806   4.853   6.502  0.0375  0.4430 -0.5573
   68MOL    H2017574   3.609   4.798   6.433 -0.8976  1.7698 -0.5862
   68MOL    H2117575   3.608   5.066   6.581  2.2386  0.2514 -0.8463
   68MOL    H2217576   3.392   5.087   6.524 -0.1370  0.8937 -1.6311
   68MOL    H2317577   3.396   4.937   6.420  0.8639 -0.9208  0.4040
   68MOL    H2417578   3.569   4.984   6.281 -0.9532 -0.4306 -0.5531
   68MOL    H2517579   3.565   5.166   6.330  0.1095 -0.3061  2.5702
   68MOL    H2617580   3.839   4.757   6.542 -0.4719  0.5342  0.0870
   68MOL    H2717581   3.843   4.935   6.563  1.0912  1.9110 -3.0647
   68MOL    C2817582   3.870   4.865   6.361 -0.3634 -0.2333  0.1547
   68MOL    C2917583   3.840   4.741   6.280  0.0929  0.5861 -0.1376
   68MOL    C3017584   3.711   4.734   6.192 -0.1197 -0.3197 -0.0605
   68MOL    C3117585   3.853   4.737   6.133 -0.4606  0.0884 -0.2069
   68MOL    C3217586   4.022   4.869   6.366 -0.4684 -0.1586 -0.1188
   68MOL    H3317587   3.837   4.954   6.308  1.8446 -1.0183 -2.7040
   68MOL    H3417588   3.865   4.653   6.339 -2.4368  0.2674  0.5391
   68MOL    H3517589   3.659   4.822   6.153 -0.6574 -0.8169 -0.4617
   68MOL    H3617590   3.669   4.635   6.179  2.7705 -1.4840 -0.9174
   68MOL    H3717591   3.891   4.827   6.085  0.1473  0.3939  0.8327
   68MOL    H3817592   3.895   4.651   6.081 -0.8854 -0.3100  0.1063
   68MOL    H3917593   4.072   4.827   6.278  1.6663  0.5719  0.7175
   68MOL    H4017594   4.046   4.792   6.440 -3.3501 -1.8795 -0.9143
   68MOL    C4117595   4.089   5.009   6.387  0.2090  0.3917 -0.0067
   68MOL    C4217596   4.042   5.101   6.273  0.2302 -0.7408 -0.1150
   68MOL    C4317597   4.066   5.247   6.310  1.2387 -0.2532  0.3575
   68MOL    C4417598   3.926   5.188   6.293  0.7145 -0.5429  0.0549
   68MOL    C4517599   4.248   5.005   6.384 -0.9132 -0.2888  0.2564
   68MOL    H4617600   4.045   5.036   6.483  0.7035  1.6537 -0.1315
   68MOL    H4717601   4.060   5.061   6.174 -2.1598 -0.8304 -0.5354
   68MOL    H4817602   4.094   5.290   6.406  2.5925  1.5137 -0.7802
   68MOL    H4917603   4.104   5.301   6.223  1.0815 -2.5462 -1.1695
   68MOL    H5017604   3.871   5.235   6.212  1.0708  1.1994  0.7857
   68MOL    H5117605   3.873   5.177   6.388  0.8392  1.2528  0.3691
   68MOL    H5217606   4.288   5.104   6.406 -1.6824  0.1212 -0.1246
   68MOL    H5317607   4.273   4.992   6.279 -3.6016  2.0761 -0.7738
   68MOL    C5417608   4.317   4.901   6.469  0.1947  0.2776 -0.2940
   68MOL    C5517609   4.467   4.898   6.426 -0.8990  0.8287  0.6439
   68MOL    C5617610   4.525   4.806   6.318  0.0209 -0.3481 -0.5010
   68MOL    C5717611   4.547   4.771   6.459  0.2884 -0.3503 -0.4720
   68MOL    C5817612   4.290   4.932   6.619  0.4403  0.1333  0.1825
   68MOL    H5917613   4.273   4.805   6.442  1.3107 -0.0520 -0.9737
   68MOL    H6017614   4.521   4.992   6.434 -0.7943  1.0686 -2.5630
   68MOL    H6117615   4.446   4.767   6.255 -0.3834  0.8071 -0.7230
   68MOL    H6217616   4.613   4.853   6.273  1.2063 -1.6659  0.3654
   68MOL    H6317617   4.645   4.787   6.503  0.6542 -1.9112 -0.6696
   68MOL    H6417618   4.512   4.670   6.480  0.9176 -0.7073 -1.1173
   68MOL    H6517619   4.383   4.925   6.674  0.7815 -0.0000 -0.4061
   68MOL    H6617620   4.249   5.033   6.617 -2.8530 -1.1526 -1.2483
   68MOL    C6717621   4.203   4.829   6.688 -0.5729  0.2374 -0.3565
   68MOL    C6817622   4.238   4.676   6.662  0.8897  0.1446 -0.3899
   68MOL    C6917623   4.371   4.614   6.716  0.2707 -0.0841 -0.3413
   68MOL    C7017624   4.241   4.568   6.766 -0.1177  0.4113 -0.4775
   68MOL    C7117625   4.205   4.865   6.837  0.1366  0.0771  0.2080
   68MOL    H7217626   4.102   4.836   6.649 -1.1553 -2.8469  0.4427
   68MOL    H7317627   4.194   4.639   6.570  0.3277  0.5571 -0.2924
   68MOL    H7417628   4.425   4.558   6.639  0.2364  1.6059 -1.6235
   68MOL    H7517629   4.433   4.678   6.777  1.8040 -0.4966 -1.4169
   68MOL    H7617630   4.219   4.589   6.870  0.6147 -1.2209  0.0185
   68MOL    H7717631   4.217   4.462   6.753 -1.7329  0.9064 -1.8259
   68MOL    H7817632   4.295   4.837   6.891  1.1737 -0.9539 -1.9638
   68MOL    H7917633   4.138   4.792   6.881  2.2525 -1.6034  0.7257
   68MOL    C8017634   4.151   5.005   6.883  0.6849 -0.3813  0.6303
   68MOL    C8117635   4.159   5.030   7.035  0.6994 -0.1447 -0.3961
   68MOL    C8217636   4.276   4.980   7.118  0.4162 -0.6740 -0.5086
   68MOL    C8317637   4.144   4.926   7.145  0.4216  0.2677 -0.2553
   68MOL    C8417638   4.008   5.026   6.831  0.2455 -0.7535  0.8657
   68MOL    H8517639   4.209   5.078   6.828 -0.7767  0.8234  0.6574
   68MOL    H8617640   4.132   5.130   7.069  1.4625  0.5185 -1.6960
   68MOL    H8717641   4.315   5.034   7.205  0.0580  4.6776 -3.4682
   68MOL    H8817642   4.352   4.922   7.067  0.6525  0.8706 -1.9500
   68MOL    H8917643   4.113   4.827   7.113 -0.4183  0.4939 -0.1731
   68MOL    H9017644   4.100   4.968   7.236  2.2530  1.5090  0.0881
   68MOL    H9117645   4.011   4.999   6.725 -1.5696  0.8073  0.3707
   68MOL    H9217646   3.939   4.948   6.864 -0.6824 -0.9835 -1.5145
   68MOL    C9317647   3.948   5.165   6.852 -0.1680  0.0773 -0.8734
   68MOL    C9417648   4.021   5.266   6.767 -0.5021  0.1567 -0.2013
   68MOL    C9517649   4.012   5.411   6.802 -0.4654 -0.1724  0.3066
   68MOL    C9617650   4.146   5.338   6.809 -0.1021 -0.6561 -0.3723
   68MOL    C9717651   3.797   5.164   6.814 -0.1470  1.6515 -1.1674
   68MOL    H9817652   3.951   5.190   6.959 -2.1357 -1.5470 -0.4105
   68MOL    H9917653   4.032   5.229   6.665  3.5430  0.9755 -0.1352
   68MOL   H10017654   4.007   5.480   6.718  0.3649  2.8211  2.6490
   68MOL   H10117655   3.968   5.442   6.896  0.5111 -1.7864  1.3193
   68MOL   H10217656   4.220   5.354   6.731 -0.0608 -1.9760 -0.6197
   68MOL   H10317657   4.184   5.318   6.909 -2.6640 -1.2757  0.5235
   68MOL   H10417658   3.773   5.072   6.760  0.6081 -1.3464  3.3413
   68MOL   H10517659   3.777   5.251   6.751 -0.3701  3.5663  1.4796
   68MOL   C10617660   3.697   5.179   6.935 -0.1008  0.0407 -0.3755
   68MOL   C10717661   3.549   5.191   6.893 -0.6774  0.4673  0.5097
   68MOL   C10817662   3.463   5.292   6.969  0.0939 -0.1751  0.6556
   68MOL   C10917663   3.492   5.318   6.825 -0.9389  0.3046 -0.0161
   68MOL   C11017664   3.722   5.069   7.041 -0.0457 -0.0528 -0.5751
   68MOL   H11117665   3.713   5.278   6.978 -0.9839 -0.0137  0.0907
   68MOL   H11217666   3.503   5.095   6.871 -0.7736  0.5741  0.2509
   68MOL   H11317667   3.361   5.261   6.991  0.0347 -0.6428 -0.2871
   68MOL   H11417668   3.499   5.348   7.055 -1.1462 -1.5003  2.0745
   68MOL   H11517669   3.559   5.396   6.791 -0.5473  1.6074  3.4983
   68MOL   H11617670   3.424   5.288   6.746 -2.1206  1.2044  0.6412
   68MOL   H11717671   3.643   4.993   7.032  0.3099 -0.5403  0.3738
   68MOL   H11817672   3.817   5.018   7.027 -0.5805 -1.0996 -0.5162
   68MOL   C11917673   3.710   5.128   7.184  0.3565  0.4589  0.2445
   68MOL   C12017674   3.701   5.020   7.297  0.6560 -0.5255  0.1522
   68MOL   C12117675   3.781   4.894   7.297 -0.6012 -0.0063  0.0454
   68MOL   C12217676   3.630   4.892   7.282  0.0764 -0.0157 -0.5626
   68MOL   C12317677   3.823   5.223   7.221  0.7883  0.4513  0.1008
   68MOL   H12417678   3.613   5.177   7.192 -1.2886 -2.4176 -1.3339
   68MOL   H12517679   3.699   5.066   7.396  0.4809  0.4840 -0.3116
   68MOL   H12617680   3.820   4.849   7.388 -2.4014 -0.9035  0.3974
   68MOL   H12717681   3.831   4.864   7.206  0.3806  2.1393 -0.1594
   68MOL   H12817682   3.588   4.853   7.189  2.4227 -3.1961 -0.3880
   68MOL   H12917683   3.571   4.881   7.373  0.1890  1.7029 -0.2802
   68MOL   H13017684   3.913   5.163   7.236  0.9330  0.4180 -0.8999
   68MOL   H13117685   3.840   5.290   7.137  0.0067  1.4318  0.7046
   68MOL   C13217686   3.793   5.321   7.331  0.4658 -0.2694 -0.5417
   68MOL   C13317687   3.672   5.402   7.315 -0.1794 -0.0567 -0.7297
   68MOL   C13417688   3.615   5.477   7.428 -0.1837  0.5441 -0.2355
   68MOL   C13517689   3.531   5.372   7.360 -0.1114 -0.4471  0.1740
   68MOL   C13617690   3.913   5.417   7.351  0.1252  0.7628 -0.2806
   68MOL   H13717691   3.777   5.269   7.425 -2.1496  0.6205 -0.4502
   68MOL   H13817692   3.678   5.445   7.215  1.8923 -2.7093 -1.8137
   68MOL   H13917693   3.649   5.450   7.528  2.8397  0.1456 -1.3098
   68MOL   H14017694   3.603   5.584   7.412 -0.2498  0.2849 -2.0132
   68MOL   H14117695   3.519   5.268   7.391  1.2988 -1.1814 -1.6547
   68MOL   H14217696   3.455   5.411   7.293 -0.6128  1.3689  1.7661
   68MOL   H14317697   3.930   5.472   7.258  2.0664  0.5029 -0.1101
   68MOL   H14417698   3.877   5.500   7.411 -0.2667  0.9169 -0.7226
   68MOL   C14517699   4.028   5.364   7.442  0.2101 -0.4441 -0.4424
   68MOL   C14617700   4.167   5.432   7.418 -0.7500  0.1977 -0.7605
   68MOL   C14717701   4.249   5.423   7.291  0.7683 -0.3743  0.6562
   68MOL   C14817702   4.179   5.554   7.329  0.2669  0.0186  0.2870
   68MOL   C14917703   3.978   5.385   7.596 -0.3686 -0.1097  0.1566
   68MOL   H15017704   4.050   5.260   7.420 -0.2709 -1.4589  3.4813
   68MOL   H15117705   4.211   5.425   7.517 -2.4414 -0.3118 -0.0107
   68MOL   H15217706   4.358   5.425   7.295  0.8132 -0.5759 -0.3803
   68MOL   H15317707   4.214   5.383   7.197  2.6610 -1.4980  0.4160
   68MOL   H15417708   4.098   5.581   7.262  1.8666  1.7512 -0.9678
   68MOL   H15517709   4.246   5.628   7.371 -0.6612  2.1769 -1.9519
   68MOL   H15617710   4.007   5.488   7.615  0.6799  0.2525 -3.1757
   68MOL   H15717711   3.870   5.395   7.605 -0.3458  0.2424  0.0346
   68MOL   C15817712   4.040   5.294   7.703 -0.1650  0.4853  0.4144
   68MOL   C15917713   3.991   5.150   7.682  0.3305 -0.1235 -0.4486
   68MOL   C16017714   4.062   5.059   7.589 -0.6543  0.0526  0.1915
   68MOL   C16117715   4.063   5.034   7.736  0.0419  0.2755 -0.3951
   68MOL   C16217716   3.992   5.341   7.836 -0.0872 -0.1400 -0.5725
   68MOL   H16317717   4.147   5.283   7.688 -0.3610 -0.1401 -0.6273
   68MOL   H16417718   3.884   5.141   7.665  0.2577 -0.4291  0.1838
   68MOL   H16517719   4.158   5.095   7.552  0.5205 -0.2380  2.8472
   68MOL   H16617720   3.996   4.995   7.532 -1.5822  1.7066 -0.6172
   68MOL   H16717721   4.007   4.946   7.768  1.8108 -0.7095  0.0648
   68MOL   H16817722   4.150   5.059   7.797 -0.9201 -0.0367  1.1299
   68MOL   H16917723   3.890   5.306   0.008 -0.3223  0.7589  0.1555
   68MOL   H17017724   3.993   5.450   0.003 -3.2102 -0.1016  0.1650
   68MOL   C17117725   4.055   5.297   0.133  0.1456  0.5613 -0.0927
   68MOL   C17217726   4.182   5.374   0.153  0.3075 -0.3767 -0.3721
   68MOL   C17317727   4.291   5.344   0.262 -0.1200  0.2356 -0.1735
   68MOL   C17417728   4.318   5.315   0.124  0.2808 -0.0615 -0.7312
   68MOL   C17517729   3.965   5.307   0.265  0.0991  0.7957 -0.1159
   68MOL   H17617730   4.091   5.194   0.125 -1.4377  0.1228 -2.0355
   68MOL   H17717731   4.159   5.480   0.151  1.1361 -0.0814  2.6194
   68MOL   H17817732   4.344   5.428   0.306  3.2433 -0.7157 -2.2288
   68MOL   H17917733   4.284   5.262   0.333  1.4428  0.0717 -0.1958
   68MOL   H18017734   4.329   5.211   0.095 -0.1818 -0.0195 -1.0589
   68MOL   H18117735   4.382   5.384   0.071 -0.0054 -0.1760 -1.2243
   68MOL   H18217736   3.941   5.412   0.280 -0.6473  0.1092  4.2141
   68MOL   H18317737   4.020   5.273   0.353 -1.5046  1.0312  0.9988
   68MOL   C18417738   3.833   5.231   0.260 -0.8549 -0.3605  0.6348
   68MOL   C18517739   3.768   5.231   0.392 -0.4048 -0.7934 -0.5394
   68MOL   C18617740   3.626   5.247   0.406  0.1951 -0.0989  0.0008
   68MOL   C18717741   3.709   5.366   0.439 -0.3172 -0.4363 -0.4055
   68MOL   C18817742   3.851   5.088   0.208  0.4277  0.5882 -0.5954
   68MOL   H18917743   3.766   5.288   0.196 -0.3038 -0.2761  0.1329
   68MOL   H19017744   3.811   5.163   0.465 -1.5411  0.0215  0.9378
   68MOL   H19117745   3.589   5.186   0.488  0.2921  0.5538  0.5358
   68MOL   H19217746   3.574   5.254   0.311 -2.6480 -0.8936  1.4569
   68MOL   H19317747   3.731   5.409   0.536 -0.3251 -0.4901 -0.3792
   68MOL   H19417748   3.700   5.448   0.369  0.9407 -0.3976 -0.5306
   68MOL   H19517749   3.933   5.043   0.264  0.8411  0.1959 -1.5072
   68MOL   H19617750   3.884   5.098   0.104  2.8612  1.3620  0.2029
   68MOL   C19717751   3.730   4.986   0.217 -0.1121 -0.0306 -0.1716
   68MOL   C19817752   3.790   4.843   0.210 -0.3013  0.1196 -0.5383
   68MOL   C19917753   3.738   4.700   0.248 -0.1647 -0.4781 -0.0369
   68MOL   C20017754   3.832   4.774   0.341 -0.3958 -0.0108  0.0918
   68MOL   C20117755   3.644   5.017   0.094 -0.3605  0.1799  1.0428
   68MOL   H20217756   3.675   4.995   0.311 -1.9820 -3.1834 -0.9091
   68MOL   H20317757   3.853   4.842   0.121  0.8283 -0.8672  0.2571
   68MOL   H20417758   3.635   4.690   0.284  0.5082  1.1239  2.4283
   68MOL   H20517759   3.776   4.610   0.200 -2.3176 -0.6996 -1.4129
   68MOL   H20617760   3.797   4.809   0.438  0.7331 -1.6895  1.1225
   68MOL   H20717761   3.936   4.743   0.346 -0.6000 -0.8768 -1.0301
   68MOL   H20817762   3.626   5.125   0.090 -0.9180  0.1219  1.9643
   68MOL   H20917763   3.700   4.989   0.005  1.1308  0.0371  2.0041
   68MOL   C21017764   3.504   4.941   0.097 -0.6134  0.3498 -0.7583
   68MOL   C21117765   3.405   4.998   0.197 -0.2028 -0.3782 -0.5003
   68MOL   C21217766   3.288   4.914   0.241  0.1469  0.7613 -0.0828
   68MOL   C21317767   3.401   4.947   0.337 -0.1685 -0.4928  0.7905
   68MOL   C21417768   3.438   4.957   7.801  0.3503  0.3844 -0.1414
   68MOL   H21517769   3.509   4.835   0.122  1.4088  0.8866  1.3364
   68MOL   H21617770   3.396   5.106   0.192  1.4052 -0.2332 -0.5106
   68MOL   H21717771   3.195   4.967   0.260  1.1857  2.1667  1.1385
   68MOL   H21817772   3.287   4.810   0.208 -1.6546  0.9451 -0.6679
   68MOL   H21917773   3.383   5.027   0.409 -1.8699 -2.6637  2.8480
   68MOL   H22017774   3.491   4.888   0.355 -0.0328 -0.2577  0.9066
   68MOL   H22117775   3.332   4.970   7.824  0.3723 -0.7942  0.6651
   68MOL   H22217776   3.458   5.050   7.747 -1.3223 -0.3518 -2.0708
   68MOL   C22317777   3.447   4.836   7.699 -0.0834 -0.0172 -0.0637
   68MOL   C22417778   3.585   4.805   7.660  0.0076 -0.6047 -0.2624
   68MOL   C22517779   3.656   4.690   7.718  0.2300  0.2666  0.4646
   68MOL   C22617780   3.609   4.684   7.576  0.4051  0.1923 -0.4030
   68MOL   C22717781   3.365   4.864   7.568 -0.2991  0.8202 -0.8937
   68MOL   H22817782   3.406   4.747   7.748 -1.0731 -0.9149 -2.4597
   68MOL   H22917783   3.649   4.889   7.632 -0.0031 -1.2573 -2.3005
   68MOL   H23017784   3.603   4.637   7.797 -1.6616 -1.7291 -2.0148
   68MOL   H23117785   3.758   4.720   7.739 -0.9873  3.6655  1.7371
   68MOL   H23217786   3.693   4.666   7.509 -0.2603  0.5795 -1.3426
   68MOL   H23317787   3.523   4.621   7.556 -0.7583  1.5204  0.3551
   68MOL   H23417788   3.398   4.961   7.533 -0.1145  0.7359 -0.9529
   68MOL   H23517789   3.397   4.796   7.489 -3.2824 -1.1116 -0.5192
   68MOL   C23617790   3.208   4.875   7.578 -0.4662 -0.1880 -0.2500
   68MOL   C23717791   3.124   4.748   7.629 -0.1483  0.0747  1.4010
   68MOL   C23817792   3.113   4.716   7.778 -0.6315  0.0944 -0.5222
   68MOL   C23917793   2.991   4.757   7.702 -0.2459 -0.5171 -0.3872
   68MOL   C24017794   3.156   4.927   7.443  0.5460  0.8892 -0.5721
   68MOL   H24117795   3.209   4.946   7.660  1.9652 -2.4254  1.7734
   68MOL   H24217796   3.135   4.661   7.564  0.2833 -0.3826  2.0792
   68MOL   H24317797   3.119   4.612   7.808  0.6424  0.8170  1.8000
   68MOL   H24417798   3.175   4.778   0.003 -2.0374 -0.3297  1.2613
   68MOL   H24517799   2.956   4.858   7.723  0.7249  0.2735 -2.4732
   68MOL   H24617800   2.919   4.677   7.685  0.9767 -1.9149  0.7814
   68MOL   H24717801   3.224   5.000   7.399  1.6754  0.4260  0.3640
   68MOL   H24817802   3.160   4.843   7.375 -1.9070  1.5414 -1.6054
   68MOL   C24917803   3.021   4.983   7.442  0.9652  0.7592  0.4927
   68MOL   C25017804   2.980   4.998   7.297 -0.2664  0.6017 -0.4875
   68MOL   C25117805   2.939   4.864   7.236  0.1595  0.1377 -0.2540
   68MOL   C25217806   2.840   4.974   7.241  0.3148  0.2741  0.1629
   68MOL   C25317807   3.015   5.123   7.498  0.3849 -0.1431 -0.3147
   68MOL   H25417808   2.963   4.909   7.497 -0.4678  1.4013 -0.1415
   68MOL   H25517809   3.051   5.056   7.240 -0.3040  0.0376 -1.1179
   68MOL   H25617810   2.963   4.849   7.131 -0.0838  1.6341 -0.5465
   68MOL   H25717811   2.916   4.780   7.301  0.0374 -0.1204 -0.6326
   68MOL   H25817812   2.819   5.037   7.155 -0.7744 -2.5100 -1.6828
   68MOL   H25917813   2.767   4.973   7.321  0.5984 -0.2236  0.4194
   68MOL   H26017814   3.071   5.122   7.592  2.7035  0.9234 -1.6558
   68MOL   H26117815   2.912   5.154   7.517  0.5651  0.6720 -0.6456
   68MOL   H26217816   3.052   5.198   7.428  0.2105  0.6938  0.4814
   69MOL     C117817   3.604   4.566   2.463  0.3820  0.5957  0.5538
   69MOL     C217818   3.682   4.680   2.517  0.0967  0.3866  0.8996
   69MOL     C317819   3.602   4.807   2.558 -0.0504 -0.2500  0.4476
   69MOL     C417820   3.695   4.816   2.440 -0.3773 -0.2237  0.1044
   69MOL     C517821   3.683   4.468   2.376  0.0153 -0.7087  0.1991
   69MOL     H617822   3.573   4.512   2.553 -0.9526 -0.6293 -0.6006
   69MOL     H717823   3.772   4.653   2.571 -0.0882 -1.2600  0.3948
   69MOL     H817824   3.498   4.828   2.535  0.1862 -0.3493 -0.7401
   69MOL     H917825   3.631   4.855   2.652 -2.5025 -1.2493  1.7646
   69MOL    H1017826   3.771   4.890   2.464 -0.2641 -0.1956 -0.3374
   69MOL    H1117827   3.645   4.820   2.343 -0.3749 -2.7638 -0.0213
   69MOL    H1217828   3.771   4.451   2.437 -0.4229  1.0890  1.3806
   69MOL    H1317829   3.716   4.504   2.278  0.6613  0.3771  0.8088
   69MOL    H1417830   3.515   4.604   2.412 -0.5271 -0.4276  1.3451
   69MOL    C1517831   3.604   4.334   2.359  0.1216  0.0729  0.7560
   69MOL    C1617832   3.472   4.348   2.289 -1.0296 -0.9390 -0.2481
   69MOL    C1717833   3.347   4.362   2.371  0.3415  0.7573  0.3722
   69MOL    C1817834   3.366   4.245   2.279  0.1635  0.5312  0.8729
   69MOL    C1917835   3.697   4.219   2.306  0.2591 -0.3953  0.1934
   69MOL    H2017836   3.579   4.303   2.461 -1.0405 -0.1799  0.3982
   69MOL    H2117837   3.481   4.400   2.194 -1.2931 -0.9416 -0.2754
   69MOL    H2217838   3.265   4.429   2.346 -1.8371 -1.8827  0.1743
   69MOL    H2317839   3.344   4.337   2.477  0.4882  0.4936  0.3133
   69MOL    H2417840   3.400   4.149   2.318  1.0006  0.9281  1.1306
   69MOL    H2517841   3.306   4.248   2.188  2.4639 -0.1458 -0.7105
   69MOL    H2617842   3.795   4.264   2.288  0.4133 -0.1414  1.5809
   69MOL    H2717843   3.657   4.184   2.211 -2.0369 -0.7920  1.2683
   69MOL    C2817844   3.704   4.100   2.400  0.3582  0.0278  0.2505
   69MOL    C2917845   3.790   4.129   2.525 -0.1570 -0.1189  0.5911
   69MOL    C3017846   3.730   4.198   2.646 -0.6194 -0.0298  0.2205
   69MOL    C3117847   3.775   4.053   2.659  0.9454  0.1470 -0.0538
   69MOL    C3217848   3.769   3.978   2.331  0.0833  0.2445  0.5121
   69MOL    H3317849   3.603   4.077   2.434  1.4193  0.2249  3.7728
   69MOL    H3417850   3.891   4.154   2.494 -0.3225 -0.5119 -0.2745
   69MOL    H3517851   3.623   4.210   2.657 -0.9766 -2.4474 -0.3124
   69MOL    H3617852   3.790   4.263   2.709  1.7238 -0.1181 -1.7926
   69MOL    H3717853   3.699   3.976   2.649  0.6170  0.3820  0.6193
   69MOL    H3817854   3.855   4.028   2.729  1.0194  0.9056  0.1387
   69MOL    H3917855   3.820   3.912   2.401  0.3401 -1.2245 -1.0103
   69MOL    H4017856   3.852   3.999   2.264 -0.6084  0.5376 -0.2639
   69MOL    C4117857   3.669   3.882   2.255  0.1013  0.2422 -0.3082
   69MOL    C4217858   3.655   3.750   2.315  0.6342  0.0936 -0.4588
   69MOL    C4317859   3.536   3.672   2.339  0.2538 -0.1588 -0.5947
   69MOL    C4417860   3.593   3.751   2.452  0.4141 -0.6029  0.0750
   69MOL    C4517861   3.689   3.873   2.100  1.2451 -0.5012 -0.2525
   69MOL    H4617862   3.571   3.927   2.267 -0.1403 -0.5454  0.7264
   69MOL    H4717863   3.744   3.688   2.300  0.3965 -0.3506 -0.0340
   69MOL    H4817864   3.435   3.699   2.309 -0.0942 -1.5540 -0.7387
   69MOL    H4917865   3.558   3.566   2.331 -1.7140 -0.5933 -0.6366
   69MOL    H5017866   3.638   3.686   2.527 -0.5655 -1.5112 -0.1050
   69MOL    H5117867   3.537   3.838   2.485 -1.2397 -1.3653 -0.6557
   69MOL    H5217868   3.764   3.799   2.073  2.2879  1.0425 -1.6158
   69MOL    H5317869   3.742   3.966   2.080  1.0127 -0.5407 -1.0615
   69MOL    C5417870   3.556   3.856   2.021 -0.1131 -0.5405  0.6250
   69MOL    C5517871   3.466   3.982   2.029 -0.2476 -0.0909  0.0804
   69MOL    C5617872   3.399   4.061   1.915  0.2404 -0.0320 -0.1758
   69MOL    C5717873   3.521   4.116   1.984  0.3830  0.0240 -0.7656
   69MOL    C5817874   3.582   3.799   1.871  0.6763 -0.1421  0.5217
   69MOL    H5917875   3.493   3.782   2.071 -0.5973  0.1343  1.0124
   69MOL    H6017876   3.414   3.986   2.124  2.7881 -3.6507  2.0420
   69MOL    H6117877   3.418   4.019   1.817 -1.1243 -0.1860 -0.3728
   69MOL    H6217878   3.316   4.130   1.930  1.8390  1.4587  2.1865
   69MOL    H6317879   3.493   4.205   2.040  0.9939 -1.9589  2.8050
   69MOL    H6417880   3.618   4.120   1.934  1.2991 -2.7089  0.7262
   69MOL    H6517881   3.624   3.881   1.812 -0.9299 -0.2168 -0.7801
   69MOL    H6617882   3.660   3.723   1.866  1.6409  0.4720  4.5155
   69MOL    C6717883   3.458   3.737   1.799 -0.1063 -0.4814  0.6075
   69MOL    C6817884   3.495   3.724   1.649  0.2780 -0.0439  0.0044
   69MOL    C6917885   3.379   3.717   1.562 -0.7518 -0.6057  0.2691
   69MOL    C7017886   3.477   3.834   1.555  0.4688 -0.2055  0.4330
   69MOL    C7117887   3.418   3.599   1.859 -0.2544 -0.0398 -0.5116
   69MOL    H7217888   3.374   3.806   1.811 -0.7471 -1.4862  2.0357
   69MOL    H7317889   3.585   3.669   1.622  0.2703 -1.0106  1.8636
   69MOL    H7417890   3.388   3.636   1.490 -0.9827 -1.1704  0.8718
   69MOL    H7517891   3.282   3.740   1.606 -0.7173 -0.8047  0.4494
   69MOL    H7617892   3.434   3.927   1.592  0.8016  0.4689 -0.8017
   69MOL    H7717893   3.532   3.842   1.461  1.1356  0.6242  0.8808
   69MOL    H7817894   3.334   3.568   1.798 -0.5449 -1.7290  0.7062
   69MOL    H7917895   3.378   3.612   1.960 -1.7699 -1.2655 -0.9337
   69MOL    C8017896   3.523   3.485   1.860  0.6113 -0.1824 -0.3786
   69MOL    C8117897   3.460   3.358   1.819 -0.2424 -0.0833  0.0937
   69MOL    C8217898   3.542   3.267   1.724  0.2918 -0.1341 -1.3807
   69MOL    C8317899   3.420   3.335   1.675 -0.2751  0.3549  0.3315
   69MOL    C8417900   3.583   3.456   1.999  0.9213  0.5042 -0.5745
   69MOL    H8517901   3.607   3.494   1.791  0.6358 -0.9759 -0.4520
   69MOL    H8617902   3.407   3.305   1.897 -2.0157  0.8516 -0.4464
   69MOL    H8717903   3.532   3.161   1.743  0.9789 -0.0039 -0.2496
   69MOL    H8817904   3.640   3.297   1.687  0.5368 -0.9216 -1.3859
   69MOL    H8917905   3.430   3.412   1.599 -0.0474 -0.9888 -1.0162
   69MOL    H9017906   3.329   3.279   1.658  0.0911 -0.5296  1.1739
   69MOL    H9117907   3.590   3.550   2.054 -0.4044 -0.5124  1.4164
   69MOL    H9217908   3.518   3.401   2.068  1.2965 -1.0385 -1.4347
   69MOL    C9317909   3.724   3.404   2.005  0.3460  0.1352  0.1661
   69MOL    C9417910   3.840   3.497   1.956 -0.0601  0.6974 -0.0763
   69MOL    C9517911   3.978   3.431   1.919  0.1637  0.7879  0.5551
   69MOL    C9617912   3.887   3.492   1.812  0.3047  0.2052 -0.2249
   69MOL    C9717913   3.756   3.337   2.141  0.1982  0.2195  0.3220
   69MOL    H9817914   3.715   3.322   1.934 -0.6691  1.2248 -0.9831
   69MOL    H9917915   3.843   3.595   2.003  3.0608  0.6064 -0.0056
   69MOL   H10017916   4.062   3.492   1.953  0.9418  0.9502 -1.5640
   69MOL   H10117917   3.989   3.323   1.917  0.0745  0.7746  0.7948
   69MOL   H10217918   3.926   3.581   1.765 -0.0634  0.2236 -0.5010
   69MOL   H10317919   3.841   3.419   1.745 -1.7734 -0.4119  1.8052
   69MOL   H10417920   3.710   3.394   2.222  0.4521  1.3672 -0.3255
   69MOL   H10517921   3.864   3.346   2.140  0.1529  1.1355 -3.0083
   69MOL   C10617922   3.719   3.188   2.155 -0.8059 -0.1399  0.0818
   69MOL   C10717923   3.796   3.092   2.068 -0.3369  0.6216  0.0902
   69MOL   C10817924   3.757   2.943   2.044  0.7341 -0.0609 -0.2592
   69MOL   C10917925   3.735   3.050   1.941 -0.2652  0.8780  1.0176
   69MOL   C11017926   3.746   3.153   2.313 -0.3489  0.7198  1.0114
   69MOL   H11117927   3.612   3.176   2.138 -0.8140 -0.9778  0.6829
   69MOL   H11217928   3.903   3.110   2.072 -0.3315  0.6307 -0.0674
   69MOL   H11317929   3.842   2.876   2.036  0.2449 -0.7238  0.0058
   69MOL   H11417930   3.659   2.901   2.068 -0.4519  3.3950  1.3890
   69MOL   H11517931   3.635   3.090   1.926 -0.1175  0.5976 -0.8368
   69MOL   H11617932   3.804   3.046   1.857 -0.2647  2.6528  0.9148
   69MOL   H11717933   3.737   3.045   2.314  0.2400  0.6685  0.8953
   69MOL   H11817934   3.851   3.173   2.335  0.0821 -0.9817  0.5563
   69MOL   C11917935   3.653   3.209   2.422  0.2933  0.5795  0.2292
   69MOL   C12017936   3.508   3.170   2.397 -0.2346 -0.4657  0.7042
   69MOL   C12117937   3.399   3.250   2.319  0.0082  0.4928 -0.0985
   69MOL   C12217938   3.403   3.250   2.473 -0.1369  0.9646 -0.0446
   69MOL   C12317939   3.699   3.162   2.564  0.6692 -0.4691 -0.6343
   69MOL   H12417940   3.657   3.317   2.427  0.6372  0.4580  2.9730
   69MOL   H12517941   3.491   3.063   2.401 -0.7716 -0.4588 -0.9211
   69MOL   H12617942   3.321   3.196   2.266 -0.2121  1.1683 -0.4827
   69MOL   H12717943   3.443   3.329   2.258  0.9787  0.4008  0.4743
   69MOL   H12817944   3.429   3.341   2.526 -2.4354  2.4969 -1.4741
   69MOL   H12917945   3.320   3.193   2.513 -0.0784  0.5041 -0.5660
   69MOL   H13017946   3.617   3.172   2.635  0.4292 -1.1448 -0.8126
   69MOL   H13117947   3.707   3.054   2.574 -0.8050 -0.3454  2.4891
   69MOL   C13217948   3.819   3.234   2.631  0.5913  0.6200  0.3895
   69MOL   C13317949   3.861   3.137   2.743 -0.1036  0.0376 -0.1596
   69MOL   C13417950   4.002   3.143   2.805  0.1717 -0.7016 -0.6320
   69MOL   C13517951   3.953   3.030   2.722  0.1355 -0.5639  0.3056
   69MOL   C13617952   3.781   3.372   2.695 -0.4405 -0.2536  0.1976
   69MOL   H13717953   3.900   3.241   2.558  0.5398 -0.4555  0.2265
   69MOL   H13817954   3.795   3.142   2.830 -3.2774  0.0136 -2.4816
   69MOL   H13917955   4.073   3.209   2.757  0.6967  0.7948  2.1498
   69MOL   H14017956   4.025   3.116   2.907 -1.3123 -1.1305 -0.3881
   69MOL   H14117957   3.991   3.016   2.621 -0.1027 -0.9585  0.2661
   69MOL   H14217958   3.950   2.940   2.784 -0.0389  1.7951  3.8830
   69MOL   H14317959   3.712   3.404   2.616  0.7834  0.9532 -0.3959
   69MOL   H14417960   3.717   3.351   2.781  0.6085 -1.5040  0.6810
   69MOL   C14517961   3.896   3.472   2.712 -0.4166 -0.2771 -0.3616
   69MOL   C14617962   3.974   3.506   2.583 -0.1412  0.0718  0.5460
   69MOL   C14717963   4.105   3.584   2.577 -0.3127  0.1473  0.6280
   69MOL   C14817964   4.104   3.437   2.539  0.4732 -0.6108  0.4686
   69MOL   C14917965   3.835   3.605   2.755  0.2918 -1.1842  0.0286
   69MOL   H15017966   3.980   3.441   2.774  0.5517  2.5079 -0.2228
   69MOL   H15117967   3.901   3.513   2.502 -0.7849 -0.6793  1.0485
   69MOL   H15217968   4.131   3.656   2.500  0.3363 -0.8050 -0.0552
   69MOL   H15317969   4.163   3.592   2.669 -0.0452 -1.2717  0.5908
   69MOL   H15417970   4.148   3.360   2.602  3.9111  1.4555  0.7408
   69MOL   H15517971   4.108   3.419   2.432 -1.6953  0.9473  0.0927
   69MOL   H15617972   3.874   3.686   2.695  0.5987 -1.5721 -0.2937
   69MOL   H15717973   3.726   3.609   2.749  0.3104 -1.0742 -0.2281
   69MOL   C15817974   3.866   3.655   2.898 -0.8869  0.2289 -0.4767
   69MOL   C15917975   4.003   3.691   2.926 -0.5086  0.7584 -0.4903
   69MOL   C16017976   4.059   3.830   2.893  0.1597  0.1014  0.4252
   69MOL   C16117977   4.040   3.789   3.038  0.2863 -0.1636 -0.4588
   69MOL   C16217978   3.816   3.555   3.004 -0.5026 -0.2260  0.4483
   69MOL   H16317979   3.808   3.746   2.912 -0.0587  0.7339 -0.3181
   69MOL   H16417980   4.071   3.606   2.920  1.4676  2.1164  1.7644
   69MOL   H16517981   3.991   3.906   2.854  0.5363 -0.1836 -0.8045
   69MOL   H16617982   4.156   3.816   2.845  0.3831  0.0955  0.8725
   69MOL   H16717983   4.121   3.759   3.104 -2.2493  0.7649  3.2144
   69MOL   H16817984   3.958   3.827   3.098  0.7203 -2.4951  1.6786
   69MOL   H16917985   3.861   3.586   3.098 -0.5398  3.6849 -0.7278
   69MOL   H17017986   3.859   3.455   2.999 -0.2119 -0.0310 -1.3460
   69MOL   C17117987   3.661   3.543   3.034 -0.3037 -0.3780 -0.1636
   69MOL   C17217988   3.642   3.418   3.124 -0.3359  1.2446 -0.4997
   69MOL   C17317989   3.499   3.367   3.159 -0.2294  0.3049 -0.3365
   69MOL   C17417990   3.601   3.281   3.089  0.0154 -0.1614  0.5230
   69MOL   C17517991   3.619   3.673   3.114  0.0562  0.3751 -0.1310
   69MOL   H17617992   3.604   3.531   2.943  0.0538 -0.7832 -0.3371
   69MOL   H17717993   3.716   3.416   3.204 -0.5102  1.0250 -0.3418
   69MOL   H17817994   3.483   3.337   3.263 -0.7653 -1.4598 -0.9138
   69MOL   H17917995   3.408   3.378   3.100  0.7106  0.8721 -1.7012
   69MOL   H18017996   3.571   3.265   2.986  1.0280 -1.9102  0.4944
   69MOL   H18117997   3.659   3.201   3.133 -0.3167 -2.2184 -2.6529
   69MOL   H18217998   3.673   3.765   3.091 -2.0776  1.8582  0.6770
   69MOL   H18317999   3.650   3.640   3.213 -0.7455 -0.2462 -0.0919
   69MOL   C18418000   3.476   3.715   3.115 -0.3248 -0.2128 -0.3737
   69MOL   C18518001   3.435   3.765   2.976 -0.0253 -0.3755 -0.1055
   69MOL   C18618002   3.291   3.748   2.935 -0.0880  0.1751 -0.4712
   69MOL   C18718003   3.405   3.667   2.866 -0.1532 -0.1765 -0.8029
   69MOL   C18818004   3.451   3.821   3.224  0.2438 -0.6583 -0.1872
   69MOL   H18918005   3.411   3.631   3.140  0.7137 -1.0098 -0.2981
   69MOL   H19018006   3.494   3.849   2.938  0.0376 -0.1438  0.5058
   69MOL   H19118007   3.245   3.834   2.886  1.2631  0.3493 -1.4554
   69MOL   H19218008   3.225   3.696   3.003  0.9396 -0.5318 -0.0071
   69MOL   H19318009   3.427   3.694   2.763  0.5421 -0.4982 -0.7372
   69MOL   H19418010   3.399   3.560   2.885 -0.0603  0.0944  0.7574
   69MOL   H19518011   3.364   3.882   3.198 -0.3009 -1.6713 -0.7786
   69MOL   H19618012   3.522   3.903   3.223 -0.2788 -0.1213  2.5216
   69MOL   C19718013   3.409   3.780   3.367 -0.3416  0.1258  0.7724
   69MOL   C19818014   3.296   3.685   3.373 -0.5864  0.7617 -0.3133
   69MOL   C19918015   3.260   3.614   3.499 -0.6336  0.7367 -0.1793
   69MOL   C20018016   3.316   3.535   3.388 -0.0318 -0.2321  0.1938
   69MOL   C20118017   3.374   3.904   3.457  0.3591  0.6215  0.4032
   69MOL   H20218018   3.491   3.731   3.419  0.4102  0.6573  0.0959
   69MOL   H20318019   3.226   3.729   3.302 -0.6543 -0.2854 -0.8930
   69MOL   H20418020   3.326   3.619   3.585  0.2753  0.1573 -0.8284
   69MOL   H20518021   3.156   3.602   3.527 -1.7400 -2.5043 -4.9174
   69MOL   H20618022   3.419   3.505   3.371 -0.2419 -0.0532 -1.4720
   69MOL   H20718023   3.240   3.465   3.353  1.6953 -1.8443 -0.4306
   69MOL   H20818024   3.328   3.986   3.402  0.9809  3.0756  3.4203
   69MOL   H20918025   3.295   3.877   3.528 -0.5316 -0.3992 -0.9464
   69MOL   C21018026   3.499   3.954   3.541  0.7444  0.2402  0.2216
   69MOL   C21118027   3.482   4.099   3.574 -0.5312  0.3982  0.2819
   69MOL   C21218028   3.596   4.179   3.632  0.3523  0.2248  0.6118
   69MOL   C21318029   3.543   4.209   3.492 -0.2867  0.5706 -0.7377
   69MOL   C21418030   3.519   3.874   3.674 -0.2245  0.1987  0.1812
   69MOL   H21518031   3.585   3.949   3.474  1.8344 -1.2468  1.6967
   69MOL   H21618032   3.385   4.124   3.617 -0.0614 -0.2931  1.7698
   69MOL   H21718033   3.574   4.243   3.717 -0.1959  1.3567 -0.3683
   69MOL   H21818034   3.694   4.131   3.640 -0.1204 -0.5820  1.6375
   69MOL   H21918035   3.506   4.311   3.482  0.0713  0.8732  0.8522
   69MOL   H22018036   3.592   4.164   3.405  0.6149  0.6597 -0.2828
   69MOL   H22118037   3.527   3.932   3.766 -0.8069 -1.6730  1.4220
   69MOL   H22218038   3.432   3.813   3.696  0.0038 -0.1797  0.0438
   69MOL   C22318039   3.644   3.777   3.676  0.7245 -0.1023  0.3234
   69MOL   C22418040   3.643   3.702   3.809 -0.1671 -0.4710  0.1518
   69MOL   C22518041   3.538   3.602   3.832  0.4522 -0.6626 -0.2167
   69MOL   C22618042   3.679   3.557   3.824  0.0986 -0.3673 -0.2625
   69MOL   C22718043   3.775   3.844   3.653  0.3199  0.8313  0.2234
   69MOL   H22818044   3.624   3.701   3.600 -1.2582 -1.4227  2.0847
   69MOL   H22918045   3.664   3.766   3.895 -0.3029  1.9718 -1.5773
   69MOL   H23018046   3.469   3.580   3.751  0.9332 -1.3387 -0.4460
   69MOL   H23118047   3.488   3.593   3.929  0.3148 -0.5514 -0.2765
   69MOL   H23218048   3.727   3.523   3.915 -0.8085  0.7449  0.6416
   69MOL   H23318049   3.711   3.509   3.731 -1.0618 -1.0571 -0.3062
   69MOL   H23418050   3.776   3.897   3.558  0.2430  1.0002  0.3164
   69MOL   H23518051   3.786   3.917   3.734 -1.5552  1.8298 -0.3997
   69MOL   C23618052   3.900   3.755   3.663  0.0489 -0.4430 -0.2127
   69MOL   C23718053   4.028   3.840   3.663  1.0051 -0.4287  0.0971
   69MOL   C23818054   4.073   3.914   3.789 -0.5422  0.2795  0.0331
   69MOL   C23918055   4.158   3.802   3.739  0.3425  0.6653  0.6989
   69MOL   C24018056   3.908   3.645   3.556  0.2198  0.4218  0.5210
   69MOL   H24118057   3.907   3.701   3.758  0.7592  2.3370  1.4131
   69MOL   H24218058   4.054   3.882   3.566  0.1257 -0.7498 -0.2781
   69MOL   H24318059   4.117   4.014   3.782 -1.6791  0.8832  1.2062
   69MOL   H24418060   3.998   3.896   3.866 -0.7962  1.6145  0.1273
   69MOL   H24518061   4.152   3.702   3.782 -1.1117  0.5833  0.3242
   69MOL   H24618062   4.257   3.838   3.712 -1.0962  3.7896 -0.7079
   69MOL   H24718063   3.811   3.596   3.546  1.2712 -1.2596 -2.1866
   69MOL   H24818064   3.903   3.699   3.461 -2.4255  0.9750  0.9248
   69MOL   C24918065   4.018   3.541   3.560  0.0400 -0.4841 -0.8635
   69MOL   C25018066   4.012   3.471   3.421 -0.7348 -0.1375 -0.4325
   69MOL   C25118067   4.081   3.527   3.298 -0.2384 -0.1006  0.1248
   69MOL   C25218068   4.135   3.403   3.367 -0.8134 -0.4549 -0.3365
   69MOL   C25318069   4.016   3.445   3.677 -0.3901 -0.4140  0.6753
   69MOL   H25418070   4.115   3.591   3.560 -1.1870  2.0062  1.1554
   69MOL   H25518071   3.920   3.414   3.407  0.1719 -1.4112 -1.2659
   69MOL   H25618072   4.048   3.499   3.198 -2.3634 -0.5834  0.9332
   69MOL   H25718073   4.144   3.616   3.292 -0.8447  0.1701 -2.7913
   69MOL   H25818074   4.125   3.311   3.312  0.3349 -2.0533  2.0268
   69MOL   H25918075   4.238   3.425   3.395 -1.3659  2.1423 -0.2239
   69MOL   H26018076   4.035   3.487   3.776 -0.8321  0.3278  0.4486
   69MOL   H26118077   4.094   3.369   3.668 -1.4426 -1.4041 -0.1867
   69MOL   H26218078   3.922   3.392   3.684 -0.9228  0.7995  3.5917
   70MOL     C118079   2.292   3.751   5.663  0.0232  0.2352 -0.0626
   70MOL     C218080   2.303   3.602   5.633 -0.1317  0.7306  0.5517
   70MOL     C318081   2.412   3.556   5.536  0.2895  0.4276 -0.4013
   70MOL     C418082   2.264   3.553   5.498 -0.2101  0.3050  0.5609
   70MOL     C518083   2.183   3.770   5.763 -0.4831 -0.0748 -0.0925
   70MOL     H618084   2.391   3.765   5.707 -1.1147 -0.9624  3.0009
   70MOL     H718085   2.293   3.535   5.718 -1.0318 -0.7708 -0.7122
   70MOL     H818086   2.472   3.624   5.477  1.4565  0.1306  0.3980
   70MOL     H918087   2.448   3.454   5.547 -3.3842 -0.7663  1.4131
   70MOL    H1018088   2.223   3.452   5.486 -1.7113  0.9262  0.3687
   70MOL    H1118089   2.214   3.632   5.443 -0.6933 -0.8159 -0.6581
   70MOL    H1218090   2.212   3.720   5.855  1.2479 -1.1871 -1.2117
   70MOL    H1318091   2.095   3.717   5.725 -1.6291  2.0707 -0.5225
   70MOL    H1418092   2.283   3.810   5.572 -1.3039 -3.7210 -2.6232
   70MOL    C1518093   2.136   3.913   5.795 -0.7444 -0.7508 -1.0455
   70MOL    C1618094   2.229   3.989   5.892 -1.0519  0.0865 -0.1315
   70MOL    C1718095   2.230   3.975   6.042 -0.6191 -0.2535  0.3947
   70MOL    C1818096   2.197   4.110   5.976 -0.7340  0.6692 -0.2753
   70MOL    C1918097   2.120   4.008   5.680  0.3357  0.7404 -0.4615
   70MOL    H2018098   2.039   3.902   5.843  0.0053 -0.0279  0.6721
   70MOL    H2118099   2.323   4.002   5.839 -1.2811 -0.7279 -0.7438
   70MOL    H2218100   2.308   3.995   6.115 -1.4921  0.0282  1.2538
   70MOL    H2318101   2.153   3.911   6.083 -0.8985 -1.1211 -1.4376
   70MOL    H2418102   2.095   4.138   6.002 -0.3605  0.4144  1.4796
   70MOL    H2518103   2.273   4.188   5.976  0.2234 -0.2515  0.4446
   70MOL    H2618104   2.219   4.016   5.634  0.1446  1.3872 -0.7716
   70MOL    H2718105   2.092   4.108   5.714  0.0366  0.1330  1.1341
   70MOL    C2818106   2.029   3.961   5.566  0.4919 -0.1176 -0.6998
   70MOL    C2918107   2.058   4.036   5.434 -0.2843  0.3125 -0.6199
   70MOL    C3018108   2.161   3.968   5.333  0.5085  0.3220 -0.5124
   70MOL    C3118109   2.011   3.985   5.304 -0.4322  0.6454  1.2302
   70MOL    C3218110   1.876   3.948   5.599 -0.0972 -0.5112  0.0940
   70MOL    H3318111   2.060   3.860   5.537  0.9142 -0.2065  0.0562
   70MOL    H3418112   2.055   4.145   5.438  1.5251  0.4296 -1.7721
   70MOL    H3518113   2.207   3.876   5.367 -1.3339 -0.0803  0.9611
   70MOL    H3618114   2.230   4.034   5.282  0.0969  0.9221 -0.3061
   70MOL    H3718115   1.949   3.895   5.303  0.5410 -0.0181 -0.9541
   70MOL    H3818116   1.993   4.056   5.224 -0.5820 -0.3644  0.3522
   70MOL    H3918117   1.860   3.942   5.706 -1.6595  1.1468 -0.0196
   70MOL    H4018118   1.847   3.845   5.576 -0.7257 -0.5390  0.9926
   70MOL    C4118119   1.782   4.060   5.538 -0.2758  0.4256  0.0894
   70MOL    C4218120   1.813   4.190   5.603  0.8900  0.6637  0.4098
   70MOL    C4318121   1.800   4.188   5.756 -0.2960  0.5277  0.1750
   70MOL    C4418122   1.708   4.275   5.676 -0.5969  0.1487 -0.2178
   70MOL    C4518123   1.634   4.019   5.549 -0.0297  0.1958 -0.1778
   70MOL    H4618124   1.811   4.082   5.435  0.1326  0.6904  0.2590
   70MOL    H4718125   1.908   4.237   5.580  2.5106 -2.3287  0.7019
   70MOL    H4818126   1.749   4.107   5.806 -2.6587  0.9872 -1.4131
   70MOL    H4918127   1.869   4.248   5.815 -1.2040  0.5368  1.2392
   70MOL    H5018128   1.725   4.383   5.683  0.6623 -0.0153 -0.6286
   70MOL    H5118129   1.602   4.254   5.691 -0.8939  2.5581  1.4097
   70MOL    H5218130   1.563   4.100   5.530 -1.0285 -0.1357  1.9852
   70MOL    H5318131   1.604   3.983   5.647 -1.4068  1.2618 -0.1800
   70MOL    C5418132   1.594   3.907   5.448  0.0101  0.3936 -0.1677
   70MOL    C5518133   1.463   3.850   5.484 -0.3891  0.2889 -0.5721
   70MOL    C5618134   1.448   3.738   5.580  0.3954 -0.3157 -1.0474
   70MOL    C5718135   1.407   3.711   5.437 -0.2579 -0.6504  0.0061
   70MOL    C5818136   1.584   3.967   5.305  0.5945  0.8590  0.5108
   70MOL    H5918137   1.663   3.822   5.452  1.4182  1.5944  2.2609
   70MOL    H6018138   1.381   3.921   5.484 -0.8428 -0.2263  1.6090
   70MOL    H6118139   1.537   3.688   5.620 -0.3266 -1.2400 -0.5515
   70MOL    H6218140   1.363   3.738   5.648  2.3158  1.1253  1.4350
   70MOL    H6318141   1.299   3.711   5.424 -0.4282  4.0418  0.8162
   70MOL    H6418142   1.473   3.637   5.390  1.0722 -0.1396  1.0238
   70MOL    H6518143   1.498   4.035   5.312 -0.9364 -1.1255  1.7403
   70MOL    H6618144   1.672   4.028   5.286  1.0253  0.2409  0.5289
   70MOL    C6718145   1.562   3.874   5.179  0.2710  0.5752 -1.0040
   70MOL    C6818146   1.540   3.956   5.055  0.1505  0.7586 -0.1046
   70MOL    C6918147   1.447   3.904   4.942  0.6441 -0.1477 -0.4095
   70MOL    C7018148   1.413   4.016   5.038  0.5162  0.2779 -0.0552
   70MOL    C7118149   1.691   3.789   5.148 -0.2367  0.5700  0.1903
   70MOL    H7218150   1.482   3.806   5.206  1.6551 -1.4291 -1.8103
   70MOL    H7318151   1.633   4.006   5.027  0.8989  0.1073  1.1524
   70MOL    H7418152   1.467   3.933   4.839  1.5512  0.1477 -0.1547
   70MOL    H7518153   1.397   3.807   4.940  0.3201  0.0283 -2.6541
   70MOL    H7618154   1.344   4.001   5.121  0.1312  1.2761 -0.1858
   70MOL    H7718155   1.401   4.109   4.983  1.0958 -0.1557 -0.9251
   70MOL    H7818156   1.720   3.752   5.247 -1.4267  1.8010  1.0151
   70MOL    H7918157   1.773   3.855   5.120  0.8632  0.2141  2.4694
   70MOL    C8018158   1.672   3.667   5.051  0.6626 -0.6115 -0.0387
   70MOL    C8118159   1.596   3.551   5.116 -0.6918  0.9665 -0.3353
   70MOL    C8218160   1.509   3.448   5.047  0.3274 -0.3549 -0.0173
   70MOL    C8318161   1.447   3.549   5.140  0.2463  0.1047 -0.6097
   70MOL    C8418162   1.791   3.621   4.969 -0.1612  0.3329 -1.0986
   70MOL    H8518163   1.602   3.712   4.980 -0.0486  2.2934  2.3704
   70MOL    H8618164   1.656   3.509   5.197 -3.3438  0.6187  1.5127
   70MOL    H8718165   1.517   3.342   5.070 -2.3990 -0.4772  0.5045
   70MOL    H8818166   1.503   3.461   4.939  2.0091 -1.2171 -0.2463
   70MOL    H8918167   1.387   3.620   5.084 -1.0816  0.2383  0.9816
   70MOL    H9018168   1.410   3.506   5.232 -2.2184  1.0221 -1.1525
   70MOL    H9118169   1.856   3.587   5.049 -0.0060 -0.3494 -1.5088
   70MOL    H9218170   1.752   3.536   4.912 -0.5308  1.0714 -1.9659
   70MOL    C9318171   1.855   3.731   4.881  0.1938 -0.3546  0.0790
   70MOL    C9418172   2.005   3.721   4.885 -0.2226 -0.0858 -0.6165
   70MOL    C9518173   2.102   3.841   4.880  0.3033 -0.7850 -0.0379
   70MOL    C9618174   2.078   3.758   5.013  0.0005  0.1542  0.3461
   70MOL    C9718175   1.796   3.734   4.739  0.5938  0.2637 -0.1549
   70MOL    H9818176   1.840   3.824   4.937  0.2907  0.2502 -0.8964
   70MOL    H9918177   2.035   3.628   4.837 -0.8535 -1.2274  1.1931
   70MOL   H10018178   2.194   3.837   4.822 -0.2813  2.6069 -1.3173
   70MOL   H10118179   2.056   3.940   4.874 -0.3417 -1.1211 -0.7619
   70MOL   H10218180   2.154   3.686   5.042 -2.4889 -1.8804  2.0252
   70MOL   H10318181   2.025   3.801   5.098 -0.0949  2.3760 -0.8074
   70MOL   H10418182   1.687   3.735   4.735  0.5748 -0.1055  0.2539
   70MOL   H10518183   1.818   3.643   4.684 -0.6525  0.2212 -0.5926
   70MOL   C10618184   1.828   3.861   4.646  0.1667 -0.3364 -0.3572
   70MOL   C10718185   1.757   3.841   4.508  0.7403 -0.2700 -0.3341
   70MOL   C10818186   1.806   3.921   4.390 -0.5129  0.4158 -0.4914
   70MOL   C10918187   1.831   3.773   4.399 -0.2522 -0.2935 -0.3077
   70MOL   C11018188   1.784   3.992   4.723 -0.5633  0.0268  0.1827
   70MOL   H11118189   1.936   3.860   4.628  0.1865 -0.1997 -0.2439
   70MOL   H11218190   1.651   3.820   4.516  1.0519 -2.0112 -0.5877
   70MOL   H11318191   1.729   3.960   4.323  0.8196  1.2498 -1.5555
   70MOL   H11418192   1.888   3.989   4.412 -0.6016  0.2269  0.4576
   70MOL   H11518193   1.934   3.752   4.427 -0.2228  0.4830  0.1932
   70MOL   H11618194   1.770   3.702   4.343 -0.3084  0.6910 -1.5186
   70MOL   H11718195   1.681   3.986   4.758 -0.2010 -1.4689  1.0274
   70MOL   H11818196   1.831   4.002   4.820 -1.4605  0.9583  0.5271
   70MOL   C11918197   1.808   4.131   4.655  0.0513  0.5409 -0.6722
   70MOL   C12018198   1.728   4.230   4.733  0.3293  0.3990 -0.1791
   70MOL   C12118199   1.583   4.238   4.725  0.3280  0.2115 -0.5477
   70MOL   C12218200   1.675   4.348   4.675 -0.8661  0.5507  0.7385
   70MOL   C12318201   1.963   4.154   4.663 -0.1263 -0.0181  0.0737
   70MOL   H12418202   1.771   4.137   4.552  0.0861  2.2314 -0.6044
   70MOL   H12518203   1.776   4.235   4.831  1.0577 -2.0124 -0.3789
   70MOL   H12618204   1.524   4.264   4.812 -0.8891 -1.3838 -0.8810
   70MOL   H12718205   1.542   4.154   4.669 -0.9535 -0.7458  1.7630
   70MOL   H12818206   1.667   4.362   4.568 -1.6096  3.6142  1.1415
   70MOL   H12918207   1.704   4.439   4.728  0.3840  0.5725  0.0282
   70MOL   H13018208   1.992   4.174   4.766 -0.1316  1.3500 -0.1695
   70MOL   H13118209   2.016   4.066   4.627 -0.6364 -1.5407  2.8981
   70MOL   C13218210   2.009   4.275   4.576 -0.1392  0.4360  0.1376
   70MOL   C13318211   2.002   4.251   4.421  0.6297 -0.4245 -0.1672
   70MOL   C13418212   1.995   4.365   4.323 -0.3629 -0.4304 -0.2874
   70MOL   C13518213   1.871   4.281   4.348  0.2729  0.3632  0.1141
   70MOL   C13618214   2.136   4.349   4.622 -0.8346  0.1012 -0.0804
   70MOL   H13718215   1.932   4.350   4.595 -1.6920 -0.8433 -0.9787
   70MOL   H13818216   2.052   4.161   4.383  1.2706 -1.0614  2.0840
   70MOL   H13918217   1.997   4.462   4.373  2.1652 -1.3520  1.5153
   70MOL   H14018218   2.059   4.353   4.236 -1.1094  0.4369 -0.9546
   70MOL   H14118219   1.789   4.322   4.406 -2.0404 -0.5695 -2.3589
   70MOL   H14218220   1.843   4.191   4.293  1.6073  1.1584 -1.9125
   70MOL   H14318221   2.160   4.431   4.555 -0.1302  1.0217  1.2785
   70MOL   H14418222   2.121   4.398   4.719  0.6798 -2.3458  1.4513
   70MOL   C14518223   2.263   4.267   4.662 -0.0950 -0.3075  0.0817
   70MOL   C14618224   2.334   4.211   4.536 -0.5160  0.2879  0.1648
   70MOL   C14718225   2.435   4.105   4.542 -0.0188  0.2053 -0.2751
   70MOL   C14818226   2.313   4.066   4.484  0.1971 -0.1817  0.3053
   70MOL   C14918227   2.361   4.353   4.747 -0.1614  0.1948 -0.0520
   70MOL   H15018228   2.247   4.179   4.724  0.7699 -1.3831 -1.2194
   70MOL   H15118229   2.330   4.280   4.452 -0.4358 -0.5577 -0.5312
   70MOL   H15218230   2.521   4.122   4.477  0.7413  0.5426  0.8072
   70MOL   H15318231   2.448   4.063   4.641  0.4574 -0.8026 -0.7534
   70MOL   H15418232   2.252   4.002   4.547  0.6762  0.1165  1.0778
   70MOL   H15518233   2.281   4.061   4.380  2.1840  0.6896 -0.3682
   70MOL   H15618234   2.461   4.318   4.720 -0.0550  0.1585  0.3970
   70MOL   H15718235   2.355   4.458   4.717  2.1094 -0.4827 -3.2579
   70MOL   C15818236   2.359   4.339   4.897 -0.1612 -0.5634  0.3700
   70MOL   C15918237   2.226   4.384   4.957  0.3520 -0.3431  0.2296
   70MOL   C16018238   2.106   4.290   4.968 -0.1525  0.1362 -0.6154
   70MOL   C16118239   2.180   4.332   5.089  0.0840 -0.5111  0.0090
   70MOL   C16218240   2.474   4.418   4.971 -0.1757 -0.0451  0.1618
   70MOL   H16318241   2.374   4.233   4.920  1.0874 -0.2290  1.1864
   70MOL   H16418242   2.192   4.481   4.920 -2.4846 -2.0050 -1.7188
   70MOL   H16518243   2.123   4.185   4.945  1.5647  0.3545 -0.4517
   70MOL   H16618244   2.005   4.330   4.962 -0.0113  0.5115 -0.5233
   70MOL   H16718245   2.130   4.410   5.147  2.7748  0.4789  1.0757
   70MOL   H16818246   2.258   4.272   5.134  2.0383  1.6059 -0.4374
   70MOL   H16918247   2.461   4.404   5.078  0.8784 -0.5903  0.2277
   70MOL   H17018248   2.466   4.525   4.952  0.5353  0.0356  0.3192
   70MOL   C17118249   2.611   4.375   4.937 -0.3553 -0.4526  0.4315
   70MOL   C17218250   2.698   4.484   5.000 -0.9064 -0.1663  0.0578
   70MOL   C17318251   2.839   4.523   4.952 -0.6429  0.1084 -0.1801
   70MOL   C17418252   2.728   4.618   4.943  0.2535 -0.8030  0.6388
   70MOL   C17518253   2.643   4.234   4.984 -0.0369 -0.1382 -0.0256
   70MOL   H17618254   2.625   4.388   4.829 -0.5374 -0.7048  0.3783
   70MOL   H17718255   2.673   4.493   5.106  0.6033  4.0101  0.1507
   70MOL   H17818256   2.917   4.552   5.023 -0.0809  0.4510 -0.9208
   70MOL   H17918257   2.861   4.451   4.874  0.6598  0.0917  0.1848
   70MOL   H18018258   2.698   4.643   4.842  1.3952 -1.2809  0.1716
   70MOL   H18118259   2.745   4.706   5.005 -0.2037 -2.8017  3.7249
   70MOL   H18218260   2.557   4.171   4.961 -1.2014  1.4940 -0.2387
   70MOL   H18318261   2.652   4.235   5.092  1.8495 -1.1376 -0.1581
   70MOL   C18418262   2.760   4.162   4.916  0.0920  0.6841  0.0318
   70MOL   C18518263   2.748   4.151   4.773 -0.0698  0.1649 -0.7149
   70MOL   C18618264   2.847   4.061   4.702 -0.2778  0.1953 -0.0462
   70MOL   C18718265   2.852   4.208   4.679 -0.9452  0.4035 -0.0086
   70MOL   C18818266   2.786   4.022   4.991 -0.0986 -1.0517 -0.2791
   70MOL   H18918267   2.850   4.222   4.930  0.4377  0.0619  0.5495
   70MOL   H19018268   2.647   4.148   4.732  0.1441 -0.0946 -1.2218
   70MOL   H19118269   2.820   4.010   4.610  2.2224  0.0742 -0.7535
   70MOL   H19218270   2.926   4.007   4.754  0.2768  0.0494 -1.0258
   70MOL   H19318271   2.810   4.238   4.583  0.1189  1.8845 -0.0282
   70MOL   H19418272   2.894   4.285   4.744 -1.4225 -0.2920  1.1505
   70MOL   H19518273   2.870   3.964   4.954  1.0635  0.5023 -0.1390
   70MOL   H19618274   2.696   3.960   4.991 -2.7276  2.5719 -0.1219
   70MOL   C19718275   2.827   4.039   5.138  0.7834  0.2186  0.3556
   70MOL   C19818276   2.971   4.089   5.154  0.0221 -0.6428 -0.1744
   70MOL   C19918277   3.020   4.146   5.285  0.1501  0.1815 -0.0629
   70MOL   C20018278   2.999   4.243   5.167 -0.3007  0.1061 -0.5176
   70MOL   C20118279   2.830   3.905   5.214 -0.1728  0.3371  0.0526
   70MOL   H20218280   2.759   4.104   5.193  1.2091  0.2462  0.8515
   70MOL   H20318281   3.040   4.020   5.106  1.1465  0.2318  0.1705
   70MOL   H20418282   2.956   4.170   5.369  0.0001  0.9508 -0.3903
   70MOL   H20518283   3.125   4.140   5.313  0.1197  0.7951  0.1969
   70MOL   H20618284   2.907   4.298   5.182 -0.2457 -0.3057  1.4705
   70MOL   H20718285   3.064   4.280   5.088  0.4213 -0.3292 -0.1336
   70MOL   H20818286   2.880   3.834   5.148 -1.4899  0.0908 -0.6845
   70MOL   H20918287   2.906   3.903   5.292  1.8354  0.9833 -1.8399
   70MOL   C21018288   2.686   3.859   5.261 -0.1550 -0.4323 -0.1269
   70MOL   C21118289   2.665   3.715   5.205  0.7918  0.1607  0.0890
   70MOL   C21218290   2.533   3.640   5.191  0.6050 -0.0481 -0.4874
   70MOL   C21318291   2.589   3.709   5.070  0.3214  0.2402 -0.6538
   70MOL   C21418292   2.665   3.856   5.416 -0.5386 -0.6449 -0.6812
   70MOL   H21518293   2.611   3.928   5.221  1.0160  0.7637 -0.2915
   70MOL   H21618294   2.753   3.652   5.197 -0.0660 -1.0168 -0.3170
   70MOL   H21718295   2.545   3.532   5.197  1.1273  0.0166 -0.2881
   70MOL   H21818296   2.445   3.679   5.242  0.6338  0.9377 -1.1863
   70MOL   H21918297   2.645   3.648   4.999 -0.2951  0.1012 -1.0249
   70MOL   H22018298   2.522   3.787   5.034 -0.4278 -0.7041 -1.3391
   70MOL   H22118299   2.558   3.844   5.435 -0.6838  1.3427 -0.1626
   70MOL   H22218300   2.735   3.785   5.459 -1.0475  1.2632  3.5720
   70MOL   C22318301   2.701   3.986   5.493  0.2049  0.3061  0.0087
   70MOL   C22418302   2.742   3.945   5.641 -0.3139  0.2087  0.0803
   70MOL   C22518303   2.890   3.901   5.662  0.4355 -0.3708  0.1915
   70MOL   C22618304   2.845   4.032   5.719 -0.4451  1.3328  0.0232
   70MOL   C22718305   2.582   4.088   5.483  0.1043 -0.1426  0.1470
   70MOL   H22818306   2.784   4.037   5.445  0.4028 -0.3526 -0.3429
   70MOL   H22918307   2.652   3.912   5.693 -0.2094 -2.1044 -1.1585
   70MOL   H23018308   2.968   3.916   5.588 -0.9384 -1.2187 -1.4584
   70MOL   H23118309   2.903   3.815   5.728 -0.8153  1.1450  2.4921
   70MOL   H23218310   2.824   4.045   5.825 -1.1761  0.9694 -0.0689
   70MOL   H23318311   2.874   4.127   5.674 -3.5257  3.1265  1.6343
   70MOL   H23418312   2.540   4.105   5.384 -1.9640 -1.3440  0.7695
   70MOL   H23518313   2.503   4.041   5.543 -2.1025 -0.0677 -2.6269
   70MOL   C23618314   2.614   4.228   5.538 -0.1150  0.4439 -0.2219
   70MOL   C23718315   2.487   4.292   5.602  0.2566  0.1896  0.5200
   70MOL   C23818316   2.437   4.236   5.737 -0.4340  0.5405 -0.1826
   70MOL   C23918317   2.505   4.366   5.726 -0.1580  1.5384 -0.4463
   70MOL   C24018318   2.681   4.321   5.422 -0.4837  0.1104 -0.3426
   70MOL   H24118319   2.671   4.210   5.629  1.4283  0.9304 -1.0745
   70MOL   H24218320   2.405   4.319   5.536 -1.5726 -0.2211  2.5778
   70MOL   H24318321   2.330   4.233   5.756 -0.2990 -0.8796  0.3962
   70MOL   H24418322   2.499   4.164   5.790 -1.1548  1.3300  1.7450
   70MOL   H24518323   2.609   4.385   5.751  0.7475 -0.7350 -2.4017
   70MOL   H24618324   2.443   4.453   5.748  0.4503  1.6534  0.8890
   70MOL   H24718325   2.764   4.283   5.363  2.5314  2.4502  2.2049
   70MOL   H24818326   2.596   4.356   5.363 -1.4464 -2.7370 -0.7239
   70MOL   C24918327   2.745   4.452   5.479  0.3269  0.9499  0.0817
   70MOL   C25018328   2.772   4.560   5.378 -0.1585  0.0567  0.2223
   70MOL   C25118329   2.674   4.676   5.339 -0.0218  0.2109  0.0514
   70MOL   C25218330   2.796   4.703   5.424 -1.0170 -0.4605 -0.0175
   70MOL   C25318331   2.875   4.427   5.558  0.3646 -0.0320  0.6894
   70MOL   H25418332   2.670   4.498   5.543  1.3846  1.2355  1.1312
   70MOL   H25518333   2.840   4.524   5.302 -0.6710 -0.7742  0.1519
   70MOL   H25618334   2.678   4.709   5.236  2.8498  1.9476  0.6353
   70MOL   H25718335   2.576   4.673   5.385  0.6481 -1.5517  1.4395
   70MOL   H25818336   2.886   4.755   5.394 -1.7064  0.3994 -0.6012
   70MOL   H25918337   2.783   4.714   5.532  0.1246  0.4554  0.0298
   70MOL   H26018338   2.863   4.350   5.634 -1.4220  1.5702  2.0915
   70MOL   H26118339   2.916   4.519   5.599 -0.0012  0.9011 -1.0109
   70MOL   H26218340   2.951   4.405   5.484  0.2468  0.6340  0.3701
   71MOL     C118341   1.595   5.757   0.254 -0.5389  0.1582  0.3143
   71MOL     C218342   1.746   5.745   0.228 -0.0690 -0.7935 -0.1495
   71MOL     C318343   1.811   5.622   0.171 -0.0339  0.0749  0.2221
   71MOL     C418344   1.828   5.653   0.316 -0.3036  0.3960 -0.4278
   71MOL     C518345   1.508   5.772   0.139  0.4841 -0.3971  0.5179
   71MOL     H618346   1.554   5.676   0.314 -3.4930  0.1875 -1.5573
   71MOL     H718347   1.796   5.842   0.220  0.6805 -0.7820  3.7629
   71MOL     H818348   1.739   5.545   0.143 -0.1980  0.1721  0.3753
   71MOL     H918349   1.899   5.628   0.108 -0.0059  1.3101  0.3634
   71MOL    H1018350   1.929   5.683   0.343 -0.1441 -0.9407  0.5214
   71MOL    H1118351   1.771   5.607   0.396  2.2206  1.9546  2.3876
   71MOL    H1218352   1.404   5.794   0.159  0.1646 -1.9482  0.6314
   71MOL    H1318353   1.512   5.669   0.102 -1.3694  0.4732 -2.2452
   71MOL    H1418354   1.579   5.850   0.308 -1.6796  1.7222 -2.5841
   71MOL    C1518355   1.559   5.871   0.034  0.4362 -0.2947  1.0633
   71MOL    C1618356   1.450   5.892   7.758 -0.5354  0.3528  0.5546
   71MOL    C1718357   1.448   5.793   7.647  0.0697  0.0751 -0.6136
   71MOL    C1818358   1.482   5.938   7.621 -0.1765  0.3103  0.6471
   71MOL    C1918359   1.586   6.011   0.099  0.0975 -1.0161  0.3657
   71MOL    H2018360   1.651   5.843   7.823  1.3646  0.5898  2.2281
   71MOL    H2118361   1.362   5.933   7.807 -0.6874  0.9775 -0.2298
   71MOL    H2218362   1.355   5.759   7.601  0.6702 -2.2623 -0.1256
   71MOL    H2318363   1.529   5.726   7.620 -1.0162 -1.7244  0.5070
   71MOL    H2418364   1.584   5.967   7.595 -0.2795 -0.7865 -1.1150
   71MOL    H2518365   1.412   5.997   7.562  0.3391  2.3943  2.0701
   71MOL    H2618366   1.628   6.012   0.200  1.0429 -2.1811  0.0017
   71MOL    H2718367   1.493   6.060   0.127  0.6027 -1.8845  3.8195
   71MOL    C2818368   1.689   6.094   0.018 -0.0137 -0.3351  1.0103
   71MOL    C2918369   1.832   6.057   0.046 -0.2676  0.1635  0.2123
   71MOL    C3018370   1.913   5.943   7.817  0.0910  0.2672  0.2213
   71MOL    C3118371   1.938   6.096   7.786 -0.5078  0.4529  0.8375
   71MOL    C3218372   1.678   6.253   0.035 -0.2776  0.3115 -0.2780
   71MOL    H3318373   1.678   6.076   7.750  1.0578  2.2452  0.4066
   71MOL    H3418374   1.858   6.076   0.150 -0.4291  0.5724  0.1768
   71MOL    H3518375   1.858   5.874   7.754 -1.4293  0.3027  1.4834
   71MOL    H3618376   1.978   5.901   0.054  0.4708  0.9802  0.2937
   71MOL    H3718377   1.904   6.113   7.684 -1.2584 -2.0561  0.6181
   71MOL    H3818378   2.034   6.135   7.816  0.3749 -1.8840  1.1909
   71MOL    H3918379   1.768   6.305   0.001 -0.2184 -0.7756 -1.8358
   71MOL    H4018380   1.662   6.272   0.141 -2.0959  1.6475 -0.7617
   71MOL    C4118381   1.573   6.318   7.783  0.1841  0.3637  0.0708
   71MOL    C4218382   1.431   6.275   7.808 -0.8100  0.1051  0.7710
   71MOL    C4318383   1.329   6.385   7.831 -0.1695  0.9919  0.6706
   71MOL    C4418384   1.366   6.289   0.103 -0.0245  0.0140  0.0967
   71MOL    C4518385   1.625   6.314   7.631  0.4087 -0.0085 -0.1727
   71MOL    H4618386   1.576   6.421   7.819  1.4707  0.5676 -0.5753
   71MOL    H4718387   1.399   6.182   7.763 -2.5636  2.7138 -3.6206
   71MOL    H4818388   1.363   6.488   0.004  2.9815  0.0049  0.6216
   71MOL    H4918389   1.241   6.362   7.771 -0.2897  0.4565  1.0459
   71MOL    H5018390   1.300   6.213   0.145 -2.3415  2.5348  1.1412
   71MOL    H5118391   1.432   6.322   0.183  0.6603 -0.1394 -0.4048
   71MOL    H5218392   1.588   6.217   7.596  1.0669 -0.5345  0.5739
   71MOL    H5318393   1.732   6.295   7.635 -0.1454 -3.5824 -0.1976
   71MOL    C5418394   1.582   6.429   7.541  0.0828 -0.0381  0.0706
   71MOL    C5518395   1.651   6.559   7.572 -0.4401  0.7816  0.2942
   71MOL    C5618396   1.590   6.650   7.678  0.3447  0.1645 -0.1230
   71MOL    C5718397   1.590   6.691   7.529  0.3979 -0.0498 -0.6618
   71MOL    C5818398   1.591   6.393   7.393  0.3753  0.6399 -0.5756
   71MOL    H5918399   1.477   6.446   7.562  0.2665 -1.5683  2.3488
   71MOL    H6018400   1.760   6.556   7.573 -0.4221  1.5374  0.6536
   71MOL    H6118401   1.496   6.637   7.731  0.4218  0.4480  0.0828
   71MOL    H6218402   1.667   6.686   7.745  0.6119 -1.5682  0.5075
   71MOL    H6318403   1.669   6.761   7.503 -0.4948  0.8725 -0.8932
   71MOL    H6418404   1.494   6.686   7.478  1.1105 -0.8140 -1.9583
   71MOL    H6518405   1.619   6.485   7.342  1.4909  1.5984  1.7042
   71MOL    H6618406   1.678   6.327   7.388 -0.4224 -0.5989  1.2325
   71MOL    C6718407   1.474   6.332   7.311 -0.2065 -0.7296 -0.1408
   71MOL    C6818408   1.362   6.443   7.294  0.0872  0.2669  0.0857
   71MOL    C6918409   1.218   6.400   7.288 -0.4450 -0.3311 -0.0428
   71MOL    C7018410   1.266   6.480   7.407 -0.2325  0.4198  0.4165
   71MOL    C7118411   1.522   6.296   7.168 -0.3196  0.1144 -0.0665
   71MOL    H7218412   1.432   6.244   7.360  0.3783 -1.0621 -0.2316
   71MOL    H7318413   1.393   6.531   7.238  0.6540 -0.8496 -1.4067
   71MOL    H7418414   1.155   6.450   7.216 -0.3520  0.6814  0.5682
   71MOL    H7518415   1.197   6.293   7.296 -1.0300 -0.2071  0.1227
   71MOL    H7618416   1.266   6.427   7.502 -0.3836 -0.7143 -0.2196
   71MOL    H7718417   1.225   6.581   7.407 -0.0705  0.4926 -1.1417
   71MOL    H7818418   1.583   6.374   7.124  1.7409 -0.6636  1.3327
   71MOL    H7918419   1.434   6.298   7.103 -1.0179 -1.8410  0.7973
   71MOL    C8018420   1.582   6.153   7.138 -0.2153  0.9484  0.8943
   71MOL    C8118421   1.503   6.042   7.209 -0.5809 -0.3896  0.0657
   71MOL    C8218422   1.471   5.920   7.135 -0.0633 -0.3984 -0.4665
   71MOL    C8318423   1.355   6.006   7.184  0.2142  0.0159 -0.1336
   71MOL    C8418424   1.731   6.142   7.173 -0.6626  0.3623  0.0806
   71MOL    H8518425   1.583   6.134   7.030  0.2257 -0.3342  1.1109
   71MOL    H8618426   1.509   6.043   7.318 -0.5038 -0.0564  0.0606
   71MOL    H8718427   1.487   5.824   7.183 -0.8250  0.0472  0.7161
   71MOL    H8818428   1.457   5.926   7.027  0.1696 -2.0037 -0.5971
   71MOL    H8918429   1.305   6.067   7.109 -1.2603  0.6312  1.3219
   71MOL    H9018430   1.291   5.974   7.266  1.9051  0.6709  1.4691
   71MOL    H9118431   1.781   6.239   7.174 -0.8839  0.4699  1.9066
   71MOL    H9218432   1.733   6.128   7.281  0.2958  2.1611  0.3035
   71MOL    C9318433   1.811   6.030   7.089 -0.2130  0.1183  0.1056
   71MOL    C9418434   1.808   6.054   6.941 -0.6055 -0.1683  0.4170
   71MOL    C9518435   1.853   5.945   6.846  0.0990 -0.5310 -0.4302
   71MOL    C9618436   1.704   5.977   6.860  0.0621 -0.1266  0.1897
   71MOL    C9718437   1.958   6.017   7.138 -0.1949 -0.1223  0.1917
   71MOL    H9818438   1.762   5.933   7.104  1.4132 -1.0497 -1.8434
   71MOL    H9918439   1.806   6.158   6.911  0.7566 -0.4675 -0.7477
   71MOL   H10018440   1.899   5.971   6.751  0.4829  0.6778  0.0752
   71MOL   H10118441   1.876   5.845   6.883 -2.1364 -1.1619 -0.6925
   71MOL   H10218442   1.653   6.026   6.777  0.0494  0.0068  0.2760
   71MOL   H10318443   1.649   5.897   6.910  2.2700 -1.4576  0.5565
   71MOL   H10418444   2.015   6.105   7.109  2.1478 -2.6272 -3.2625
   71MOL   H10518445   2.007   5.947   7.070  1.3308  0.2879  0.8579
   71MOL   C10618446   1.970   5.981   7.291  0.3987  0.2741  0.1946
   71MOL   C10718447   1.907   5.848   7.314 -0.2575  0.1991  0.2903
   71MOL   C10818448   1.899   5.789   7.447 -0.1266  0.0831 -0.9756
   71MOL   C10918449   1.768   5.815   7.369 -0.4784 -0.1949  0.0115
   71MOL   C11018450   2.120   5.969   7.334 -0.3944  0.1604 -0.1266
   71MOL   H11118451   1.914   6.054   7.350 -1.2879 -0.1814 -0.8204
   71MOL   H11218452   1.935   5.778   7.235 -2.3425  2.3801 -2.4737
   71MOL   H11318453   1.923   5.685   7.467 -0.2181  0.4189  0.9666
   71MOL   H11418454   1.942   5.852   7.525  1.5925 -0.0532 -1.7785
   71MOL   H11518455   1.697   5.882   7.417  0.0549  0.4055 -0.0249
   71MOL   H11618456   1.721   5.733   7.316  1.6301  0.4813 -3.0534
   71MOL   H11718457   2.131   5.923   7.432  2.2333  1.8472  0.4013
   71MOL   H11818458   2.177   5.899   7.272 -0.4589 -1.9716  2.1570
   71MOL   C11918459   2.195   6.103   7.349  0.1106 -0.9799 -0.4419
   71MOL   C12018460   2.124   6.205   7.437  0.5148 -0.6666 -0.1692
   71MOL   C12118461   2.024   6.308   7.384  0.1073 -0.8672 -0.5797
   71MOL   C12218462   2.155   6.354   7.442  0.0766  0.3898  0.0271
   71MOL   C12318463   2.330   6.071   7.415  0.6304 -0.3010 -0.4351
   71MOL   H12418464   2.208   6.150   7.252  0.5605  0.9131  0.5169
   71MOL   H12518465   2.113   6.176   7.541 -0.1159 -0.0418 -0.0528
   71MOL   H12618466   1.933   6.327   7.440 -0.2231 -1.0862 -1.0295
   71MOL   H12718467   2.020   6.305   7.275 -1.7431 -2.9921 -0.4885
   71MOL   H12818468   2.228   6.387   7.368  1.2904 -1.1234  0.5223
   71MOL   H12918469   2.169   6.401   7.539  0.2679  0.1979  0.0951
   71MOL   H13018470   2.325   6.069   7.524  0.3019 -0.2227 -0.4471
   71MOL   H13118471   2.352   5.966   7.396 -1.1739 -0.9524  0.9541
   71MOL   C13218472   2.447   6.164   7.371 -0.2716  0.3083  0.3028
   71MOL   C13318473   2.472   6.156   7.222 -0.6670 -0.2001  0.4632
   71MOL   C13418474   2.571   6.260   7.169  0.4264 -0.0784  0.0159
   71MOL   C13518475   2.427   6.259   7.120 -0.2096  0.5626 -0.3066
   71MOL   C13618476   2.575   6.118   7.451  0.7131  0.3354  0.2811
   71MOL   H13718477   2.418   6.266   7.396  1.3645  0.6079  1.0777
   71MOL   H13818478   2.466   6.055   7.182  0.2955  0.4279 -1.3435
   71MOL   H13918479   2.581   6.342   7.240 -3.6698  0.6851 -0.1577
   71MOL   H14018480   2.648   6.231   7.098 -0.4208  1.7605 -1.7153
   71MOL   H14118481   2.360   6.338   7.153  0.5177  0.9495  0.2522
   71MOL   H14218482   2.409   6.220   7.020 -0.2554  1.1677 -0.5324
   71MOL   H14318483   2.551   6.038   7.521  1.6250 -0.1487  0.0432
   71MOL   H14418484   2.637   6.065   7.379  1.6583 -0.3443  1.5803
   71MOL   C14518485   2.656   6.208   7.542  0.0509 -0.3263 -0.5574
   71MOL   C14618486   2.580   6.279   7.650  0.0590  0.2976  0.0528
   71MOL   C14718487   2.608   6.423   7.690 -1.0555 -1.1524  0.6354
   71MOL   C14818488   2.476   6.382   7.635 -0.0120 -0.3500 -0.0956
   71MOL   C14918489   2.775   6.133   7.615  0.3653 -0.2812 -0.1072
   71MOL   H15018490   2.708   6.286   7.485  0.9380  1.2600  2.3120
   71MOL   H15118491   2.557   6.205   7.726  1.3613  1.1517  1.3086
   71MOL   H15218492   2.605   6.456   7.793 -0.8481 -0.6236  0.4752
   71MOL   H15318493   2.691   6.465   7.633 -0.8190 -1.8891  0.4350
   71MOL   H15418494   2.456   6.407   7.531  2.3098 -0.4472 -0.6073
   71MOL   H15518495   2.391   6.368   7.702 -0.7548  2.5018 -0.3682
   71MOL   H15618496   2.731   6.082   7.700 -0.4733  1.1032  0.2999
   71MOL   H15718497   2.817   6.053   7.553 -0.0744 -0.9639  0.4754
   71MOL   C15818498   2.886   6.228   7.663  0.0761 -0.1106  0.0366
   71MOL   C15918499   3.022   6.169   7.631  0.6172  0.0952 -0.8387
   71MOL   C16018500   3.061   6.160   7.482 -0.0218  0.4024  0.0245
   71MOL   C16118501   3.122   6.266   7.556 -0.2889  0.1219  0.0223
   71MOL   C16218502   2.877   6.237   7.821  0.3632  0.0548 -0.0178
   71MOL   H16318503   2.882   6.328   7.620 -2.4328  1.0543  2.8326
   71MOL   H16418504   3.074   6.109   7.706 -1.0676 -0.9572 -0.4719
   71MOL   H16518505   2.990   6.192   7.406  2.0729  1.3712 -1.5723
   71MOL   H16618506   3.118   6.068   7.473  0.3268  0.8025 -1.9609
   71MOL   H16718507   3.228   6.257   7.577 -0.3341 -1.3179 -0.3111
   71MOL   H16818508   3.101   6.371   7.534  1.9632  0.6726  0.3552
   71MOL   H16918509   2.870   6.132   0.010 -0.2623  0.3843  1.1115
   71MOL   H17018510   2.781   6.277   0.014  0.1628 -1.1774  0.9602
   71MOL   C17118511   2.990   6.308   0.061 -0.0813 -0.5416  0.1614
   71MOL   C17218512   2.961   6.459   0.047 -0.4629  0.5057  0.4256
   71MOL   C17318513   3.066   6.566   0.048  0.7590 -0.0562  0.6595
   71MOL   C17418514   2.985   6.547   7.764 -0.6801 -0.6196  0.7242
   71MOL   C17518515   2.979   6.279   0.218 -0.3658 -0.3452 -0.0835
   71MOL   H17618516   3.093   6.282   0.035  0.6613 -0.7128  3.0867
   71MOL   H17718517   2.868   6.490   0.093  1.2473  2.2929  2.7879
   71MOL   H17818518   3.039   6.660   0.096 -0.0639  1.4837 -2.6414
   71MOL   H17918519   3.172   6.544   0.036  0.9911 -0.4611  3.3151
   71MOL   H18018520   3.039   6.505   7.679  2.0631 -0.2642  2.2085
   71MOL   H18118521   2.920   6.631   7.744  2.2534  1.8419  1.1578
   71MOL   H18218522   2.955   6.173   0.231  1.5453 -0.7543  0.3856
   71MOL   H18318523   2.883   6.314   0.256 -0.4750 -3.6232  2.9333
   71MOL   C18418524   3.094   6.320   0.308  0.5497 -0.0808 -0.2136
   71MOL   C18518525   3.217   6.237   0.272 -0.2349  0.1201  0.1587
   71MOL   C18618526   3.351   6.269   0.332  0.0741 -0.3160  0.0422
   71MOL   C18718527   3.332   6.274   0.182 -0.4862 -0.0881 -0.4590
   71MOL   C18818528   3.052   6.321   0.458 -0.2800 -0.1952 -0.4996
   71MOL   H18918529   3.118   6.420   0.271 -1.4996  1.1010  1.5313
   71MOL   H19018530   3.192   6.132   0.283 -1.4498  0.5357  1.5635
   71MOL   H19118531   3.426   6.196   0.364 -0.3654 -0.8780 -0.2111
   71MOL   H19218532   3.351   6.362   0.388 -0.6383 -0.3860  0.1629
   71MOL   H19318533   3.371   6.198   0.114  1.9330 -0.7591  1.5831
   71MOL   H19418534   3.335   6.373   0.136 -0.3087 -0.6615 -1.7281
   71MOL   H19518535   3.136   6.300   0.525 -1.6000 -0.7031  1.0201
   71MOL   H19618536   2.982   6.239   0.471  1.7580 -1.7874  0.7626
   71MOL   C19718537   2.979   6.445   0.498 -0.1069 -1.4976  0.0186
   71MOL   C19818538   3.068   6.565   0.539 -0.6151 -0.4585 -0.0439
   71MOL   C19918539   3.027   6.716   0.538 -0.0697  0.0863 -1.0082
   71MOL   C20018540   3.116   6.666   0.432  0.4940 -0.2339  0.0252
   71MOL   C20118541   2.883   6.425   0.620  0.7192  0.1103 -0.0438
   71MOL   H20218542   2.931   6.468   0.403  0.5626 -0.5613 -0.1131
   71MOL   H20318543   3.147   6.530   0.605 -1.0166 -0.6141  0.3506
   71MOL   H20418544   2.926   6.750   0.514 -0.1121  1.5263  1.1077
   71MOL   H20518545   3.068   6.783   0.613  0.3557 -0.3713 -0.8235
   71MOL   H20618546   3.072   6.657   0.333 -0.3673 -2.3078  0.5870
   71MOL   H20718547   3.215   6.711   0.446 -1.1620  2.8814  2.3506
   71MOL   H20818548   2.925   6.366   0.701  1.0096 -1.2161 -1.1548
   71MOL   H20918549   2.854   6.519   0.668  1.2241 -0.7268  1.9349
   71MOL   C21018550   2.753   6.352   0.594 -0.2158  0.8498  0.7095
   71MOL   C21118551   2.683   6.325   0.722  0.6544 -0.4684  0.6937
   71MOL   C21218552   2.599   6.192   0.748  0.1033  0.0603  0.2683
   71MOL   C21318553   2.721   6.226   0.833 -0.1577 -0.0442 -0.0141
   71MOL   C21418554   2.664   6.421   0.484  0.1173 -0.5691 -0.4684
   71MOL   H21518555   2.781   6.253   0.558  2.5036  1.5363  0.8237
   71MOL   H21618556   2.642   6.414   0.770  3.7505  0.7597  1.1436
   71MOL   H21718557   2.618   6.117   0.671  1.6426  2.0205 -1.3227
   71MOL   H21818558   2.500   6.210   0.790 -1.0391 -0.8107 -1.9777
   71MOL   H21918559   2.709   6.276   0.929  1.8407  0.1315  0.1686
   71MOL   H22018560   2.808   6.161   0.825 -2.2719 -3.0454  0.3489
   71MOL   H22118561   2.621   6.511   0.528 -0.1228 -0.7589 -0.3163
   71MOL   H22218562   2.718   6.474   0.406  1.4338 -1.5168 -0.2239
   71MOL   C22318563   2.546   6.348   0.426  0.2255 -0.1754  0.1882
   71MOL   C22418564   2.569   6.306   0.286 -0.5854  0.1759 -0.9123
   71MOL   C22518565   2.609   6.165   0.257  0.1242  0.0467  0.0437
   71MOL   C22618566   2.463   6.196   0.238 -0.5925 -0.3249 -0.2105
   71MOL   C22718567   2.414   6.434   0.436 -0.4410 -0.1100  0.1407
   71MOL   H22818568   2.526   6.263   0.491 -0.8432  1.2699  1.8100
   71MOL   H22918569   2.589   6.398   0.231  1.1205  0.5293  0.2653
   71MOL   H23018570   2.631   6.094   0.336  0.5953  0.0018 -0.1249
   71MOL   H23118571   2.664   6.140   0.167 -0.3956 -1.4825  0.1327
   71MOL   H23218572   2.419   6.207   0.139 -1.7383  1.3390  0.4574
   71MOL   H23318573   2.392   6.166   0.315 -0.9660 -1.6056 -1.0310
   71MOL   H23418574   2.446   6.528   0.390  2.6563 -1.0160  0.3624
   71MOL   H23518575   2.335   6.402   0.368 -0.9060 -0.6043  0.9166
   71MOL   C23618576   2.338   6.446   0.572 -0.2338  0.2566 -0.1545
   71MOL   C23718577   2.185   6.429   0.558 -0.5976 -0.4347 -0.0407
   71MOL   C23818578   2.114   6.296   0.553  0.5665 -0.4080 -0.1356
   71MOL   C23918579   2.103   6.380   0.677  0.2300 -0.4314 -0.6441
   71MOL   C24018580   2.387   6.568   0.670 -0.4431  0.8072  0.4229
   71MOL   H24118581   2.362   6.353   0.623 -0.2085  0.3544  0.0089
   71MOL   H24218582   2.145   6.514   0.504 -1.9530 -1.9276 -1.4584
   71MOL   H24318583   2.029   6.298   0.485  0.3396 -4.4779 -0.0897
   71MOL   H24418584   2.168   6.202   0.544  0.3056 -0.6432  0.6861
   71MOL   H24518585   2.157   6.361   0.769  0.9031 -2.6907 -1.4656
   71MOL   H24618586   2.009   6.431   0.695  0.4996 -0.1324 -0.0784
   71MOL   H24718587   2.321   6.558   0.755  0.1561  0.6093  0.8689
   71MOL   H24818588   2.481   6.546   0.721 -0.1451  1.0844  0.0062
   71MOL   C24918589   2.396   6.713   0.616  0.1065 -0.0145  0.0534
   71MOL   C25018590   2.448   6.810   0.722 -0.1013 -0.3229  0.0831
   71MOL   C25118591   2.591   6.827   0.769  0.7814  0.3666 -0.2323
   71MOL   C25218592   2.526   6.935   0.693  0.0981 -0.7135 -0.4191
   71MOL   C25318593   2.266   6.759   0.556 -0.4215  0.1991 -0.3453
   71MOL   H25418594   2.471   6.727   0.538 -0.4823 -0.2426 -0.5606
   71MOL   H25518595   2.381   6.820   0.808  0.8488  0.1467  0.7823
   71MOL   H25618596   2.602   6.835   0.877  1.0268 -0.3766 -0.2005
   71MOL   H25718597   2.664   6.767   0.716  0.1539  0.4394 -1.1794
   71MOL   H25818598   2.508   7.018   0.761  0.0717 -0.9715 -0.1096
   71MOL   H25918599   2.563   6.951   0.592  1.5643  1.3973  0.4225
   71MOL   H26018600   2.183   6.753   0.627 -0.0930  2.7221  0.2754
   71MOL   H26118601   2.243   6.695   0.470 -1.9110  1.8082 -1.1790
   71MOL   H26218602   2.265   6.861   0.518  2.0673  0.6079  0.6204
   72MOL     C118603   4.741   5.990   1.789 -0.5145  0.3991  0.3251
   72MOL     C218604   4.626   5.963   1.879  0.2357  0.2290 -0.2438
   72MOL     C318605   4.580   6.062   1.990  0.1941 -0.7858  0.7060
   72MOL     C418606   4.654   5.947   2.023 -0.4187  0.2393  1.0090
   72MOL     C518607   4.798   5.876   1.703 -0.2237  0.2606 -0.2469
   72MOL     H618608   4.713   6.066   1.716  0.3319  1.7002  1.3416
   72MOL     H718609   4.552   5.893   1.842 -0.1888  0.0640  0.8975
   72MOL     H818610   4.638   6.153   2.006 -0.0123 -0.4948 -0.1324
   72MOL     H918611   4.483   6.044   2.035 -0.8184 -0.0452 -1.0975
   72MOL    H1018612   4.593   5.887   2.091 -2.8626  1.6073  0.0874
   72MOL    H1118613   4.751   5.974   2.063  0.8207  0.2990 -1.9650
   72MOL    H1218614   4.713   5.822   1.660 -1.3263  2.0647 -0.4152
   72MOL    H1318615   4.840   5.803   1.771  0.4585  2.0578  1.2964
   72MOL    H1418616   4.815   6.051   1.842  1.6428 -2.3259  0.5622
   72MOL    C1518617   4.901   5.914   1.592 -0.4678  0.5737 -0.0762
   72MOL    C1618618   5.042   5.909   1.652 -0.2144  0.0738  0.2672
   72MOL    C1718619   5.115   6.026   1.710  0.8165 -0.2951  0.1062
   72MOL    C1818620   5.167   5.963   1.577  0.1205 -0.0342 -0.5811
   72MOL    C1918621   4.893   5.822   1.465  0.1038  0.3673  0.3904
   72MOL    H2018622   4.888   6.013   1.548 -0.1332 -0.7416 -3.3016
   72MOL    H2118623   5.066   5.817   1.704  0.6417  0.1129 -0.0459
   72MOL    H2218624   5.175   6.012   1.801 -1.1083 -0.6936  1.3458
   72MOL    H2318625   5.066   6.123   1.710 -1.2888 -1.3396 -0.1141
   72MOL    H2418626   5.157   6.037   1.498  0.5945  1.0087  0.3329
   72MOL    H2518627   5.261   5.909   1.578  1.6554  2.5866  0.1989
   72MOL    H2618628   4.859   5.722   1.489 -0.8837  0.8899  1.2514
   72MOL    H2718629   4.989   5.830   1.414 -0.4845  0.5238 -0.7143
   72MOL    C2818630   4.785   5.870   1.367  0.4716  0.6563 -0.2761
   72MOL    C2918631   4.635   5.836   1.403  0.1844 -0.3868 -0.5782
   72MOL    C3018632   4.550   5.946   1.469  0.6756  0.0196 -0.4262
   72MOL    C3118633   4.513   5.896   1.333  0.7441 -0.5868  0.3199
   72MOL    C3218634   4.817   5.814   1.224  0.0176  0.4646  0.2884
   72MOL    H3318635   4.791   5.978   1.355 -0.5440  0.7577  0.0936
   72MOL    H3418636   4.619   5.746   1.462 -0.1557 -0.5072 -0.8509
   72MOL    H3518637   4.603   6.041   1.478  1.6084 -0.5241 -0.0929
   72MOL    H3618638   4.485   5.915   1.551  2.0782 -0.4697  0.5193
   72MOL    H3718639   4.533   5.968   1.253  1.5671 -1.8499 -0.6272
   72MOL    H3818640   4.424   5.835   1.324 -1.4199  2.5323 -0.1855
   72MOL    H3918641   4.765   5.719   1.221  0.4795  0.2182  0.0788
   72MOL    H4018642   4.925   5.802   1.214 -0.1147  1.0101 -2.0594
   72MOL    C4118643   4.786   5.913   1.103  0.6557 -0.0804  0.0883
   72MOL    C4218644   4.803   5.833   0.969  0.2123 -0.2966  0.3662
   72MOL    C4318645   4.703   5.860   0.856 -0.8300 -0.1368 -0.6184
   72MOL    C4418646   4.704   5.733   0.943  0.3533  0.0187  0.1428
   72MOL    C4518647   4.891   6.027   1.103 -0.3026 -0.3258  0.1329
   72MOL    H4618648   4.691   5.966   1.105  1.0859  0.6802  0.2654
   72MOL    H4718649   4.905   5.807   0.942 -0.7535 -1.6060 -2.2285
   72MOL    H4818650   4.627   5.934   0.878  0.9360  1.1844  1.1612
   72MOL    H4918651   4.726   5.851   0.750  1.6433  2.0965 -0.3182
   72MOL    H5018652   4.727   5.636   0.899 -2.1826 -0.5920  0.0720
   72MOL    H5118653   4.643   5.717   1.031 -0.8887  0.7548 -0.5736
   72MOL    H5218654   4.991   5.993   1.077 -1.1798 -1.5930 -1.6699
   72MOL    H5318655   4.911   6.059   1.205  1.9771 -1.4941  0.0677
   72MOL    C5418656   4.849   6.153   1.023 -0.4781 -0.5131 -0.8774
   72MOL    C5518657   4.726   6.220   1.089 -0.9680 -1.0778  0.0030
   72MOL    C5618658   4.585   6.203   1.052 -0.4214 -0.2792  0.2274
   72MOL    C5718659   4.659   6.331   1.008 -0.7086  0.5431 -0.1402
   72MOL    C5818660   4.969   6.248   0.990  0.3634 -0.3355 -0.4716
   72MOL    H5918661   4.813   6.118   0.926  1.7325  1.5773 -2.5307
   72MOL    H6018662   4.733   6.222   1.198 -0.1940 -2.4460 -0.0103
   72MOL    H6118663   4.559   6.143   0.965  1.8182  0.0172 -0.6837
   72MOL    H6218664   4.517   6.203   1.137 -0.1810  0.9501  0.4320
   72MOL    H6318665   4.663   6.420   1.071 -2.2732  1.0943 -0.7956
   72MOL    H6418666   4.667   6.336   0.900 -0.5639 -3.2867 -0.3826
   72MOL    H6518667   4.956   6.352   1.020 -0.0473 -0.6545  0.5044
   72MOL    H6618668   5.043   6.213   1.062  1.2819 -1.2263 -1.8263
   72MOL    C6718669   5.039   6.249   0.852  0.2066 -0.2441  0.8677
   72MOL    C6818670   5.074   6.104   0.810 -0.1580 -0.0375 -0.3245
   72MOL    C6918671   5.192   6.060   0.722  0.0798  0.6025  0.3921
   72MOL    C7018672   5.190   6.036   0.874  0.5236 -0.3755 -0.3038
   72MOL    C7118673   4.953   6.322   0.751  0.0497  0.3021  0.3420
   72MOL    H7218674   5.134   6.302   0.866  0.3553  0.3509 -2.0410
   72MOL    H7318675   4.982   6.046   0.805 -1.2311  1.7141 -1.5481
   72MOL    H7418676   5.171   5.973   0.660  0.3497  0.8287 -0.0099
   72MOL    H7518677   5.263   6.134   0.686  1.0756  0.3509  1.8153
   72MOL    H7618678   5.259   6.087   0.942  0.7344 -0.2604 -0.6043
   72MOL    H7718679   5.183   5.932   0.905  1.1265  0.0159  1.1808
   72MOL    H7818680   4.913   6.415   0.792 -0.3932  0.2643 -0.0033
   72MOL    H7918681   4.860   6.267   0.735 -0.8758  2.1440 -0.8586
   72MOL    C8018682   5.028   6.363   0.625  0.7275  0.3137  0.4405
   72MOL    C8118683   4.970   6.496   0.573 -0.3281  1.4619 -0.2432
   72MOL    C8218684   5.040   6.597   0.480  0.3108  0.2754 -0.3323
   72MOL    C8318685   5.016   6.631   0.625  0.3880 -0.6704 -0.5131
   72MOL    C8418686   4.998   6.258   0.515  0.5369  0.0691 -0.2261
   72MOL    H8518687   5.136   6.361   0.638  0.6586  1.1708  1.1976
   72MOL    H8618688   4.865   6.489   0.543 -0.8833 -2.5305  2.1974
   72MOL    H8718689   4.975   6.636   0.403  0.6237 -0.3586 -0.9276
   72MOL    H8818690   5.134   6.550   0.449  1.1349 -0.3212  2.9170
   72MOL    H8918691   5.100   6.635   0.694 -0.6441  2.2549  0.6405
   72MOL    H9018692   4.938   6.702   0.651  1.1383  0.0540 -0.2018
   72MOL    H9118693   5.011   6.156   0.550  2.2378 -0.0364 -1.1209
   72MOL    H9218694   4.892   6.274   0.501  0.7371  0.7652 -0.9670
   72MOL    C9318695   5.079   6.270   0.385 -0.0326  0.2337  0.5792
   72MOL    C9418696   5.237   6.245   0.411  0.0868 -0.5348  0.4721
   72MOL    C9518697   5.334   6.287   0.299 -0.6566  0.3210  0.2628
   72MOL    C9618698   5.345   6.353   0.437  0.2208 -0.1131 -0.7448
   72MOL    C9718699   5.034   6.167   0.274 -0.2175 -0.2129 -0.0307
   72MOL    H9818700   5.068   6.368   0.338 -1.3179  1.7903  3.9302
   72MOL    H9918701   5.258   6.147   0.454 -0.2349 -0.4835  0.7444
   72MOL   H10018702   5.402   6.208   0.268 -0.4700  0.3953  0.4820
   72MOL   H10118703   5.281   6.333   0.216  1.8901 -1.9358 -2.7400
   72MOL   H10218704   5.434   6.324   0.492  0.0144 -1.4334 -1.0785
   72MOL   H10318705   5.314   6.455   0.457 -0.8425  0.0120 -2.8475
   72MOL   H10418706   5.037   6.063   0.306 -0.1965 -0.5166 -1.0239
   72MOL   H10518707   5.108   6.164   0.194  1.6181  0.1370  1.6118
   72MOL   C10618708   4.890   6.191   0.213  0.0130 -0.4941  0.3377
   72MOL   C10718709   4.900   6.316   0.124 -0.0309 -0.0788 -0.3034
   72MOL   C10818710   4.762   6.380   0.095  0.6006 -0.3586  0.1355
   72MOL   C10918711   4.873   6.456   0.163  0.7172  0.0422 -0.0414
   72MOL   C11018712   4.834   6.069   0.133  0.3791 -0.1517 -0.2819
   72MOL   H11118713   4.816   6.210   0.290  0.1040  1.7378 -0.0980
   72MOL   H11218714   4.975   6.306   0.046  1.9077 -1.5833  1.6684
   72MOL   H11318715   4.738   6.402   7.831 -0.4392 -0.8038  0.2743
   72MOL   H11418716   4.677   6.357   0.159 -1.5919  0.5409 -2.3859
   72MOL   H11518717   4.860   6.490   0.265 -2.3318  0.0460 -0.4072
   72MOL   H11618718   4.933   6.528   0.108 -0.4124 -0.1855 -1.6111
   72MOL   H11718719   4.744   6.097   0.078 -1.9795  0.7779  3.8203
   72MOL   H11818720   4.912   6.038   0.063  1.3066  0.1134  0.6355
   72MOL   C11918721   4.806   5.940   0.216 -0.1317 -0.1429  0.1329
   72MOL   C12018722   4.710   5.975   0.331  0.2390  0.4360 -0.3481
   72MOL   C12118723   4.760   5.996   0.474  0.0634  0.1125  0.2399
   72MOL   C12218724   4.676   5.871   0.436  0.0538  0.3012 -0.4270
   72MOL   C12318725   4.756   5.828   0.119 -0.2666  0.3222  0.2725
   72MOL   H12418726   4.903   5.905   0.251 -1.2653 -1.3355  2.1615
   72MOL   H12518727   4.624   6.038   0.308 -1.6526 -1.7891  0.3964
   72MOL   H12618728   4.721   6.068   0.546  0.1618  1.1034 -0.6845
   72MOL   H12718729   4.866   5.972   0.483  0.4922  1.7053 -0.4157
   72MOL   H12818730   4.732   5.779   0.419  1.9444  1.4137 -0.4357
   72MOL   H12918731   4.572   5.848   0.455  0.6331 -1.4970  0.6912
   72MOL   H13018732   4.653   5.807   0.149 -0.7355  2.2966  0.0883
   72MOL   H13118733   4.732   5.867   0.020 -0.0375 -1.4414 -0.5016
   72MOL   C13218734   4.841   5.702   0.101  0.6219 -0.6367 -0.0799
   72MOL   C13318735   4.937   5.710   7.820  0.4676 -0.1680  0.1906
   72MOL   C13418736   5.070   5.630   7.825 -0.0198  1.1808 -0.4637
   72MOL   C13518737   5.075   5.779   7.828 -0.4744  0.6233  0.0402
   72MOL   C13618738   4.737   5.584   0.091  0.2021  0.4167  0.1155
   72MOL   H13718739   4.894   5.690   0.196 -1.3500  0.3801  1.1884
   72MOL   H13818740   4.886   5.716   7.724 -0.5092  1.1408  0.7800
   72MOL   H13918741   5.083   5.572   0.077 -0.1383  1.3569 -0.3348
   72MOL   H14018742   5.098   5.573   7.737 -0.4366  2.1419 -1.2260
   72MOL   H14118743   5.128   5.815   0.077  3.0403 -0.4382 -1.5525
   72MOL   H14218744   5.111   5.816   7.732  1.1127 -2.1675 -0.4850
   72MOL   H14318745   4.648   5.601   0.152  0.3072  3.4340 -0.5175
   72MOL   H14418746   4.705   5.593   7.826  1.2629 -3.6907 -0.6428
   72MOL   C14518747   4.797   5.442   0.110 -0.6866  0.4543 -0.0737
   72MOL   C14618748   4.820   5.417   0.255 -0.5413 -0.2566 -0.3635
   72MOL   C14718749   4.931   5.326   0.302 -0.5212 -0.5557 -0.3451
   72MOL   C14818750   4.940   5.474   0.337 -0.1410 -0.1470 -0.2192
   72MOL   C14918751   4.707   5.329   0.050 -0.4897  0.2240 -0.1482
   72MOL   H15018752   4.895   5.439   0.063 -1.1079  0.1447 -0.9577
   72MOL   H15118753   4.725   5.402   0.305 -0.7021  2.0224  0.0617
   72MOL   H15218754   4.918   5.263   0.389 -4.6404  0.4474 -0.1248
   72MOL   H15318755   5.000   5.286   0.227  3.8757  1.7593  2.2819
   72MOL   H15418756   5.022   5.526   0.289 -0.2103  0.9752  0.8571
   72MOL   H15518757   4.923   5.502   0.441 -0.2338  2.5796 -0.9397
   72MOL   H15618758   4.747   5.232   0.079  0.7724  0.7891  0.0508
   72MOL   H15718759   4.608   5.336   0.094 -1.2024  1.3111 -1.9069
   72MOL   C15818760   4.699   5.330   7.729 -0.2503  0.2718 -0.3887
   72MOL   C15918761   4.588   5.242   7.676 -0.8917 -0.5968  0.0126
   72MOL   C16018762   4.452   5.307   7.646  0.1402  0.6784 -0.4243
   72MOL   C16118763   4.542   5.247   7.531  0.2243 -0.0286  0.7265
   72MOL   C16218764   4.833   5.290   7.667 -0.1799  0.5706  0.6685
   72MOL   H16318765   4.682   5.434   7.703 -0.0041  0.7837  1.4535
   72MOL   H16418766   4.593   5.148   7.730 -0.4608 -0.6474 -0.1152
   72MOL   H16518767   4.454   5.414   7.667 -0.4807  0.6785 -0.3619
   72MOL   H16618768   4.364   5.252   7.679  1.6415 -0.0989  2.4747
   72MOL   H16718769   4.514   5.149   7.492 -0.1820 -0.4585  2.0419
   72MOL   H16818770   4.582   5.325   7.468  2.7308 -0.9441  1.1114
   72MOL   H16918771   4.900   5.372   7.694  1.5157 -0.6144  0.1177
   72MOL   H17018772   4.822   5.299   7.559  0.3414  0.3992  0.5979
   72MOL   C17118773   4.896   5.148   7.700  0.1263 -0.1037  0.2052
   72MOL   C17218774   4.930   5.083   7.566 -0.4251  0.2738 -0.4938
   72MOL   C17318775   4.929   4.935   7.540 -0.8075  0.7256 -0.8568
   72MOL   C17418776   4.838   5.026   7.470 -0.1136 -1.0227 -0.0833
   72MOL   C17518777   5.012   5.153   7.802  0.5521 -0.0380  0.2939
   72MOL   H17618778   4.814   5.091   7.745 -1.5437  3.4195  1.8570
   72MOL   H17718779   5.015   5.139   7.528  1.9555 -1.6365  1.8071
   72MOL   H17818780   5.021   4.895   7.499 -0.0886  1.6334 -0.1586
   72MOL   H17918781   4.886   4.876   7.621  0.0169 -1.3511 -1.9151
   72MOL   H18018782   4.740   5.003   7.512 -0.0078 -3.7272 -1.2326
   72MOL   H18118783   4.850   5.048   7.364 -0.2561 -1.5265 -0.2038
   72MOL   H18218784   4.961   5.208   0.042 -0.7175 -2.0062  0.8831
   72MOL   H18318785   5.079   5.221   7.749  0.5950  0.5232  1.0525
   72MOL   C18418786   5.079   5.026   0.015  0.4561  0.0717 -0.1203
   72MOL   C18518787   4.992   4.957   0.115  0.1111  0.2073  0.1854
   72MOL   C18618788   5.025   4.818   0.151  0.6998  0.0614 -0.4230
   72MOL   C18718789   4.888   4.854   0.086 -0.0242 -0.6118 -0.7958
   72MOL   C18818790   5.211   5.063   0.086 -0.0788 -0.1807 -1.0284
   72MOL   H18918791   5.096   4.955   7.774 -0.2562  0.3461 -0.5172
   72MOL   H19018792   4.979   5.025   0.199 -0.2765 -0.6005  0.7874
   72MOL   H19118793   5.021   4.784   0.255  0.9256  1.0025 -0.1023
   72MOL   H19218794   5.102   4.762   0.098  1.1128  1.1410 -0.9772
   72MOL   H19318795   4.807   4.842   0.157 -0.2161 -0.0333 -0.9145
   72MOL   H19418796   4.871   4.823   7.822  0.2979  1.1958 -1.4106
   72MOL   H19518797   5.232   5.006   0.176  2.1102  2.2776  0.0961
   72MOL   H19618798   5.201   5.170   0.107 -0.4240 -0.4392  0.1555
   72MOL   C19718799   5.340   5.057   7.838 -0.6955  0.5956 -0.2785
   72MOL   C19818800   5.327   5.142   7.715  0.2232  0.3260 -0.1567
   72MOL   C19918801   5.457   5.206   7.654  0.1271 -0.3109 -0.6240
   72MOL   C20018802   5.343   5.288   7.721 -0.0495  0.4430 -0.8075
   72MOL   C20118803   5.373   4.906   7.800  0.6273  0.3306  0.2547
   72MOL   H20218804   5.421   5.103   0.056 -0.0689  0.3874 -0.9966
   72MOL   H20318805   5.257   5.100   7.643 -0.3195  1.8091 -0.5210
   72MOL   H20418806   5.549   5.205   7.712 -0.8569 -1.9336  0.9517
   72MOL   H20518807   5.482   5.218   7.549  1.3033  0.0619 -0.3056
   72MOL   H20618808   5.339   5.321   7.824  0.0381 -0.2655 -0.5782
   72MOL   H20718809   5.277   5.349   7.660 -0.5111  1.3367  0.5651
   72MOL   H20818810   5.286   4.842   7.786 -0.2529  1.6979 -0.5365
   72MOL   H20918811   5.410   4.908   7.697  4.4605 -1.2606  1.4864
   72MOL   C21018812   5.465   4.823   0.053  0.8340  0.0198 -0.7108
   72MOL   C21118813   5.468   4.675   0.019 -0.4234  0.1405 -0.0435
   72MOL   C21218814   5.459   4.574   0.129 -0.0485 -0.3656 -0.0089
   72MOL   C21318815   5.346   4.590   0.035 -0.0922  0.4686  0.3045
   72MOL   C21418816   5.604   4.886   0.075 -0.9418 -0.6419  0.8376
   72MOL   H21518817   5.411   4.835   0.147 -0.0882 -0.7830 -1.1284
   72MOL   H21618818   5.527   4.649   7.771 -0.6340  1.2572 -0.5387
   72MOL   H21718819   5.531   4.494   0.115  0.8731  0.5317 -0.4432
   72MOL   H21818820   5.463   4.613   0.230 -0.4638  0.0041 -0.1289
   72MOL   H21918821   5.332   4.506   7.806 -0.2173  0.5936  0.1777
   72MOL   H22018822   5.253   4.627   0.076 -0.0943  1.3737 -0.4923
   72MOL   H22118823   5.664   4.852   7.830  0.2382  0.2394  1.2948
   72MOL   H22218824   5.596   4.994   0.060 -1.4520 -0.6482  1.0715
   72MOL   C22318825   5.675   4.873   0.213  0.4550 -0.3901 -1.2117
   72MOL   C22418826   5.579   4.917   0.320  0.2569  0.3588 -0.5048
   72MOL   C22518827   5.521   4.833   0.428  0.5381 -0.1428  0.0468
   72MOL   C22618828   5.634   4.926   0.464 -0.8278  1.0314 -0.1220
   72MOL   C22718829   5.801   4.963   0.220 -0.1842  0.4341  0.2657
   72MOL   H22818830   5.707   4.772   0.238  0.8525  0.0256 -0.0435
   72MOL   H22918831   5.526   5.009   0.297  1.1221  1.0196  0.1071
   72MOL   H23018832   5.543   4.727   0.423  0.7869 -0.0209 -1.8507
   72MOL   H23118833   5.416   4.861   0.431  0.4652 -0.1423 -1.9027
   72MOL   H23218834   5.621   5.023   0.512 -0.5504  1.1419 -0.2713
   72MOL   H23318835   5.722   4.866   0.486 -0.2686  1.9724  0.2501
   72MOL   H23418836   5.758   5.063   0.208 -1.5099 -0.0033  1.1570
   72MOL   H23518837   5.841   4.963   0.321  2.6295 -0.3552 -0.8067
   72MOL   C23618838   5.910   4.941   0.115  0.0811  0.8699  0.0828
   72MOL   C23718839   5.954   4.793   0.136  0.1997 -0.2956 -0.1831
   72MOL   C23818840   5.901   4.663   0.058  0.3965  0.5111 -0.3525
   72MOL   C23918841   6.033   4.720   0.028  0.1003  0.2307 -0.3707
   72MOL   C24018842   6.034   5.030   0.133 -0.4776  0.0967  0.1592
   72MOL   H24118843   5.869   4.955   0.015  0.6358  0.9843 -0.1316
   72MOL   H24218844   5.965   4.763   0.240  1.2743  1.1285  0.1330
   72MOL   H24318845   5.911   4.572   0.117 -1.4726  0.6536  0.2164
   72MOL   H24418846   5.828   4.665   7.816  1.8427 -3.4776 -1.8903
   72MOL   H24518847   6.054   4.787   7.784 -0.6017 -0.7942 -1.3948
   72MOL   H24618848   6.122   4.676   0.073  0.7613 -0.0993 -1.9418
   72MOL   H24718849   6.075   5.013   0.233 -0.5456  0.7076  0.2948
   72MOL   H24818850   6.112   4.999   0.064 -0.6700 -0.1054  0.0315
   72MOL   C24918851   6.017   5.184   0.113 -0.3603  0.3405  0.5697
   72MOL   C25018852   5.984   5.223   7.808 -0.0150 -0.5061 -0.4062
   72MOL   C25118853   5.842   5.241   7.748 -0.5116  0.8151  0.5648
   72MOL   C25218854   5.921   5.360   7.797 -0.5609 -0.0172  0.0164
   72MOL   C25318855   6.131   5.263   0.178  0.4685 -0.0024 -0.1971
   72MOL   H25418856   5.934   5.221   0.174  0.7626  1.9305  1.1726
   72MOL   H25518857   6.064   5.204   7.737 -0.0618 -4.2749  0.4079
   72MOL   H25618858   5.831   5.223   7.641 -1.4111 -0.8758  0.9294
   72MOL   H25718859   5.759   5.198   7.804  0.7641 -4.1214 -1.0363
   72MOL   H25818860   5.971   5.435   7.736 -2.5105  1.4117  0.1465
   72MOL   H25918861   5.875   5.412   0.041  0.6316  0.3157  0.4915
   72MOL   H26018862   6.212   5.259   0.105  1.7226 -0.4870  1.1905
   72MOL   H26118863   6.156   5.211   0.271 -3.5087 -0.2726  0.8517
   72MOL   H26218864   6.118   5.368   0.202 -0.3621 -0.4961  1.6318
   73MOL     C118865   7.230   2.216   2.261 -0.1487 -0.1875 -0.0891
   73MOL     C218866   7.221   2.160   2.122  0.7905  0.5325  0.0264
   73MOL     C318867   7.110   2.195   2.034 -0.7144  0.4974  0.2897
   73MOL     C418868   7.118   2.052   2.090 -0.8753 -1.2649 -0.4187
   73MOL     C518869   7.313   2.136   2.356 -0.4406 -0.0121 -0.1937
   73MOL     H618870   7.262   2.320   2.263  0.3205 -0.3571  2.1593
   73MOL     H718871   7.315   2.159   2.067 -0.2828  1.7645 -1.8871
   73MOL     H818872   7.038   2.264   2.079 -0.8164  0.7970 -0.3202
   73MOL     H918873   7.112   2.195   1.925  2.0783 -1.0945  0.2959
   73MOL    H1018874   7.160   1.980   2.021  2.0538  1.1159 -1.2284
   73MOL    H1118875   7.034   2.028   2.155 -0.0342 -3.1400  0.0030
   73MOL    H1218876   7.412   2.134   2.310 -0.6942  1.3502 -0.8135
   73MOL    H1318877   7.283   2.031   2.356 -0.0036 -0.1383 -0.9188
   73MOL    H1418878   7.125   2.225   2.289 -0.5822  0.2588 -1.8162
   73MOL    C1518879   7.324   2.196   2.502 -0.5357  0.4042 -0.9552
   73MOL    C1618880   7.363   2.081   2.587 -0.0315 -0.2907  0.0275
   73MOL    C1718881   7.250   1.979   2.604 -0.5340  0.0585  0.3407
   73MOL    C1818882   7.316   2.043   2.725 -0.8473  0.0159 -0.1771
   73MOL    C1918883   7.420   2.315   2.516  1.0326 -0.2916  0.4633
   73MOL    H2018884   7.229   2.233   2.542  0.5445  1.1489  0.9730
   73MOL    H2118885   7.460   2.036   2.567  1.4219  2.6546  0.2395
   73MOL    H2218886   7.271   1.873   2.597 -1.2644 -0.0927  0.4226
   73MOL    H2318887   7.145   2.006   2.591 -0.9023 -0.9001  1.3264
   73MOL    H2418888   7.250   2.104   2.786  0.0276 -0.5864  1.3921
   73MOL    H2518889   7.388   1.985   2.782  1.1877  0.9958 -1.7005
   73MOL    H2618890   7.410   2.397   2.444 -0.9062 -2.0332 -1.3171
   73MOL    H2718891   7.516   2.268   2.495  1.0972 -0.5131  1.2669
   73MOL    C2818892   7.410   2.392   2.647  0.0475  0.2969 -0.5219
   73MOL    C2918893   7.289   2.486   2.655 -0.0390  0.5458  0.7950
   73MOL    C3018894   7.164   2.453   2.725 -0.1699  0.6436 -0.2134
   73MOL    C3118895   7.255   2.553   2.784 -0.8413 -0.1198 -0.5738
   73MOL    C3218896   7.543   2.472   2.673 -0.5275  0.0700 -0.5164
   73MOL    H3318897   7.394   2.326   2.732  0.5639 -1.0357 -1.4370
   73MOL    H3418898   7.273   2.538   2.561 -1.4234  1.6087  1.5910
   73MOL    H3518899   7.161   2.350   2.760 -0.0659 -0.1625 -2.5172
   73MOL    H3618900   7.069   2.483   2.682 -1.1345 -0.7153  0.8954
   73MOL    H3718901   7.295   2.512   2.877 -1.1569  0.0589 -0.3581
   73MOL    H3818902   7.240   2.660   2.777  0.0703  0.1066  0.6287
   73MOL    H3918903   7.521   2.552   2.743  0.7283  0.0954 -0.1420
   73MOL    H4018904   7.564   2.508   2.572  2.4998  0.6970  0.3166
   73MOL    C4118905   7.670   2.394   2.721 -0.1694  1.1225  0.7241
   73MOL    C4218906   7.654   2.341   2.861  0.1055 -0.8645 -0.0694
   73MOL    C4318907   7.745   2.226   2.903 -0.5819 -0.5825 -0.0838
   73MOL    C4418908   7.592   2.205   2.894 -0.2461 -0.1701 -0.7644
   73MOL    C4518909   7.790   2.491   2.700  0.6472 -0.6219 -0.3224
   73MOL    H4618910   7.686   2.310   2.653  0.6354  1.6865  0.1944
   73MOL    H4718911   7.647   2.411   2.944 -1.5184  0.9418 -1.6780
   73MOL    H4818912   7.806   2.181   2.826  0.2916  0.3897  0.0345
   73MOL    H4918913   7.795   2.243   2.998  0.2557  1.8148 -0.9254
   73MOL    H5018914   7.540   2.196   2.989 -0.2191 -0.9990 -0.8270
   73MOL    H5118915   7.560   2.140   2.813  0.8140 -0.1119 -1.2428
   73MOL    H5218916   0.034   2.450   2.757  0.3739  1.0683  1.3588
   73MOL    H5318917   7.757   2.583   2.748  1.2687 -1.3628  1.5804
   73MOL    C5418918   7.838   2.516   2.555  0.3966  0.4074 -0.6138
   73MOL    C5518919   7.828   2.392   2.461 -0.1753 -0.2910  0.0255
   73MOL    C5618920   0.044   2.392   2.320  0.1974  0.0044 -0.0612
   73MOL    C5718921   7.734   2.389   2.341  0.0084  0.0308 -0.0767
   73MOL    C5818922   7.786   2.644   2.486 -0.4835 -0.3336 -0.4266
   73MOL    H5918923   0.106   2.533   2.564  1.1491 -3.5833 -1.3743
   73MOL    H6018924   0.007   2.296   2.509  0.2408 -0.4673 -0.4833
   73MOL    H6118925   0.078   2.484   2.273 -0.1488  0.6362  0.9070
   73MOL    H6218926   0.102   2.304   2.295  1.4670  0.9215 -0.3437
   73MOL    H6318927   7.687   2.296   2.308 -0.0036 -0.5356  1.4959
   73MOL    H6418928   7.674   2.476   2.315  2.3172  2.1600  1.5237
   73MOL    H6518929   7.833   2.642   2.388  0.6355  2.5325 -0.0029
   73MOL    H6618930   7.677   2.639   2.474 -0.5168  1.9691 -1.3599
   73MOL    C6718931   7.828   2.778   2.539  0.4635  0.0396 -0.1602
   73MOL    C6818932   0.134   2.807   2.509  0.4653 -0.5076 -0.4740
   73MOL    C6918933   0.203   2.899   2.604  0.2159 -0.9177 -0.2664
   73MOL    C7018934   0.245   2.755   2.604  0.3008  0.0523 -0.2048
   73MOL    C7118935   7.738   2.887   2.475 -0.2419 -0.3464  0.0068
   73MOL    H7218936   7.821   2.779   2.648  0.4330 -0.9378 -0.1450
   73MOL    H7318937   0.158   2.823   2.404 -0.7527  2.2213 -0.3644
   73MOL    H7418938   0.260   2.974   2.550 -1.0005 -0.5421 -1.0501
   73MOL    H7518939   0.136   2.938   2.681 -0.2655  0.6867 -1.4720
   73MOL    H7618940   0.202   2.690   2.681  1.8858  1.3119  1.7869
   73MOL    H7718941   0.337   2.726   2.553 -0.8105 -2.3073 -0.9312
   73MOL    H7818942   7.729   2.865   2.369  0.8032 -1.3775  0.1267
   73MOL    H7918943   7.797   2.979   2.473 -0.0541 -0.4874 -1.7805
   73MOL    C8018944   7.599   2.899   2.543  0.9634 -0.3352 -0.4220
   73MOL    C8118945   7.489   2.891   2.440 -0.1881  0.4331  0.2057
   73MOL    C8218946   7.340   2.869   2.463 -0.0926  0.9722  0.4146
   73MOL    C8318947   7.428   2.751   2.422 -0.1459 -0.1966 -0.3342
   73MOL    C8418948   7.591   3.034   2.621 -0.4077  0.8270  0.5526
   73MOL    H8518949   7.588   2.821   2.619  0.3742  0.0674 -0.0830
   73MOL    H8618950   7.513   2.931   2.341 -2.7271 -2.0553 -1.5023
   73MOL    H8718951   7.265   2.905   2.394  0.8257 -0.4077 -1.3471
   73MOL    H8818952   7.302   2.865   2.565 -0.1187  1.2383  0.4148
   73MOL    H8918953   7.453   2.677   2.497 -0.6880 -0.5234 -0.4713
   73MOL    H9018954   7.412   2.715   2.321 -0.6044 -1.2310  0.1049
   73MOL    H9118955   7.614   3.116   2.552  0.3732  1.3866  1.4571
   73MOL    H9218956   7.490   3.056   2.653 -0.2388  1.5311  0.6178
   73MOL    C9318957   7.669   3.045   2.759  0.2226 -0.1426  0.2029
   73MOL    C9418958   7.747   3.182   2.767  1.0837  0.4596  0.4790
   73MOL    C9518959   0.040   3.188   2.827  0.4954  0.2238 -0.0247
   73MOL    C9618960   0.024   3.238   2.681 -0.2110  0.4176 -0.4231
   73MOL    C9718961   7.586   3.013   2.885 -0.9211 -0.2666 -0.2036
   73MOL    H9818962   7.746   2.969   2.750 -0.2850 -0.6565  0.1969
   73MOL    H9918963   7.674   3.260   2.788  0.6268  0.3593 -0.7026
   73MOL   H10018964   0.066   3.272   2.891 -1.4610  0.5238  0.4247
   73MOL   H10118965   0.093   3.094   2.837 -1.1758 -0.7456 -0.0382
   73MOL   H10218966   0.026   3.346   2.670  2.1671  0.2625 -1.8709
   73MOL   H10318967   0.071   3.172   2.608  1.2369  1.0604 -0.0912
   73MOL   H10418968   7.520   2.931   2.858  0.7206 -1.3880 -0.9064
   73MOL   H10518969   7.533   3.107   2.902 -1.7021 -1.1976  2.7974
   73MOL   C10618970   7.677   2.966   3.010 -0.6873  0.2716 -0.3533
   73MOL   C10718971   7.589   2.982   3.133 -0.3939 -0.0384  0.1365
   73MOL   C10818972   7.647   3.028   3.265 -0.5572  0.4322  0.1241
   73MOL   C10918973   7.568   3.127   3.183  0.3032 -0.4628  0.2083
   73MOL   C11018974   7.731   2.824   3.004  0.4734  0.0982 -0.1981
   73MOL   H11118975   7.760   3.035   3.025  0.0389 -0.9206  1.3110
   73MOL   H11218976   7.511   2.909   3.151 -1.0750 -0.2249 -3.1711
   73MOL   H11318977   7.603   2.991   3.357 -0.0747 -0.0143  0.1739
   73MOL   H11418978   7.755   3.035   3.266 -0.4422 -0.4838 -1.9313
   73MOL   H11518979   7.626   3.202   3.129 -0.7167 -1.1857 -1.9784
   73MOL   H11618980   7.478   3.162   3.233 -0.5132  0.8721 -2.0806
   73MOL   H11718981   7.641   2.769   3.033  0.0442  1.5627  1.3193
   73MOL   H11818982   7.768   2.804   2.904 -0.3459  3.0366 -1.1227
   73MOL   C11918983   0.009   2.780   3.097  0.2755 -1.6058 -0.5805
   73MOL   C12018984   0.008   2.628   3.114 -0.1131 -0.5321  0.2501
   73MOL   C12118985   7.736   2.559   3.196  0.7492  0.7862  0.0197
   73MOL   C12218986   0.046   2.552   3.240  0.3279  1.0380 -0.2745
   73MOL   C12318987   0.149   2.816   3.035  1.2257 -0.6535 -0.7970
   73MOL   H12418988   0.008   2.816   3.200  0.4264  0.0572 -1.1527
   73MOL   H12518989   0.018   2.579   3.017 -1.7978  0.6255 -0.5310
   73MOL   H12618990   7.700   2.465   3.157 -1.8386  2.2162 -1.1502
   73MOL   H12718991   7.666   2.627   3.244  0.8743 -0.2668  1.7538
   73MOL   H12818992   0.061   2.605   3.334 -0.7416 -2.4288  1.9874
   73MOL   H12918993   0.108   2.464   3.222 -0.8122  0.1366  0.1109
   73MOL   H13018994   0.156   2.761   2.941  1.6704 -0.2727 -0.9913
   73MOL   H13118995   0.152   2.922   3.007  0.0228 -0.6118 -0.7880
   73MOL   C13218996   0.269   2.776   3.128  0.5511 -0.0237 -0.2941
   73MOL   C13318997   0.302   2.882   3.236 -0.6136 -0.7356  0.2812
   73MOL   C13418998   0.375   2.843   3.364  0.2538 -0.0960  0.3919
   73MOL   C13518999   0.232   2.894   3.370  0.6582  0.2262  0.3822
   73MOL   C13619000   0.393   2.755   3.033 -0.5927 -0.8127  0.5039
   73MOL   H13719001   0.247   2.690   3.191  0.6406  0.7425  0.7978
   73MOL   H13819002   0.311   2.982   3.195  0.1299 -0.2903  1.5078
   73MOL   H13919003   0.389   2.737   3.388  2.9209  0.0112 -0.4852
   73MOL   H14019004   0.448   2.908   3.410  0.7307  0.1880 -0.7534
   73MOL   H14119005   0.151   2.823   3.384  1.0584 -0.4691 -0.7911
   73MOL   H14219006   0.214   2.998   3.398 -0.8555  0.1720 -0.3291
   73MOL   H14319007   0.395   2.808   2.938  1.3624 -0.7633  0.5512
   73MOL   H14419008   0.473   2.815   3.078  0.5257 -1.6423 -0.3696
   73MOL   C14519009   0.444   2.607   3.015 -0.4047 -0.6820  0.2075
   73MOL   C14619010   0.504   2.556   3.149  0.8721 -0.1074 -0.0214
   73MOL   C14719011   0.650   2.511   3.135 -0.6230  0.2655  0.1527
   73MOL   C14819012   0.613   2.635   3.212  0.4632  0.4839  0.8057
   73MOL   C14919013   0.331   2.508   2.967 -0.7270 -0.4336  0.5040
   73MOL   H15019014   0.524   2.603   2.941  0.0289  2.4343  0.4503
   73MOL   H15119015   0.442   2.496   3.215 -0.2920  2.6986  1.5201
   73MOL   H15219016   0.670   2.413   3.178  1.2775  0.7258  0.3624
   73MOL   H15319017   0.710   2.548   3.053 -0.0519  0.8055  0.8037
   73MOL   H15419018   0.640   2.733   3.175 -0.1767  0.0830 -0.7362
   73MOL   H15519019   0.641   2.616   3.316 -0.8565 -0.3613  1.0217
   73MOL   H15619020   0.247   2.506   3.035 -0.5998  1.7480  0.7727
   73MOL   H15719021   0.291   2.543   2.872  2.8384  1.2120 -0.4947
   73MOL   C15819022   0.366   2.361   2.928  0.3862 -0.1874 -0.2149
   73MOL   C15919023   0.370   2.265   3.049  0.0035  0.1398 -0.2553
   73MOL   C16019024   0.256   2.213   3.127  0.1810  0.4630  0.6819
   73MOL   C16119025   0.337   2.125   3.036  0.8901 -0.0657  0.1591
   73MOL   C16219026   0.492   2.339   2.852 -0.4902 -0.6256  0.1900
   73MOL   H16319027   0.279   2.332   2.869 -1.1331  0.2689  1.7399
   73MOL   H16419028   0.461   2.269   3.108 -1.2368  0.0259  1.7068
   73MOL   H16519029   0.162   2.259   3.095 -0.3999 -0.5520  0.9150
   73MOL   H16619030   0.267   2.206   3.235  2.3383  2.1640  0.5906
   73MOL   H16719031   0.392   2.040   3.077 -1.5267 -1.2851  1.0394
   73MOL   H16819032   0.299   2.091   2.940 -1.1332 -0.2836  0.9921
   73MOL   H16919033   0.487   2.232   2.833 -0.1688 -0.6525  0.2497
   73MOL   H17019034   0.586   2.351   2.905 -1.2904  0.5089  1.3763
   73MOL   C17119035   0.494   2.405   2.710 -0.1626 -0.4775  0.4976
   73MOL   C17219036   0.637   2.381   2.649 -1.2576 -0.3655  0.6187
   73MOL   C17319037   0.698   2.460   2.540  0.1189 -0.0489  0.0131
   73MOL   C17419038   0.750   2.472   2.686 -0.5850  0.0178  0.6725
   73MOL   C17519039   0.397   2.352   2.614 -0.1994 -0.1494  0.8726
   73MOL   H17619040   0.494   2.514   2.710 -0.1656 -0.4242 -2.6913
   73MOL   H17719041   0.655   2.274   2.649 -0.5041 -0.2458  1.9284
   73MOL   H17819042   0.757   2.415   2.461  0.5576  2.5088 -1.1487
   73MOL   H17919043   0.651   2.550   2.501  1.3632  0.8375  0.5160
   73MOL   H18019044   0.715   2.557   2.743  1.3142  0.9131  0.5049
   73MOL   H18119045   0.840   2.423   2.722  0.6062  2.3011  0.8552
   73MOL   H18219046   0.406   2.405   2.519  2.0367  0.9430  1.6513
   73MOL   H18319047   0.299   2.387   2.645 -1.3216 -1.0951 -1.5363
   73MOL   C18419048   0.389   2.206   2.563 -0.6712  0.0079  0.0455
   73MOL   C18519049   0.383   2.193   2.414  0.4257 -0.0995 -0.1487
   73MOL   C18619050   0.459   2.089   2.331  0.3814  0.1753 -0.0610
   73MOL   C18719051   0.491   2.238   2.321 -0.3053  0.0155  0.1598
   73MOL   C18819052   0.278   2.123   2.623  0.3647  0.1172 -0.7381
   73MOL   H18919053   0.481   2.151   2.583 -0.5071 -0.8837 -2.9166
   73MOL   H19019054   0.285   2.228   2.384  0.0776  0.5888  1.7203
   73MOL   H19119055   0.400   2.040   2.255 -0.1621 -0.9079  1.0360
   73MOL   H19219056   0.537   2.030   2.379  0.3740 -0.6101 -1.0217
   73MOL   H19319057   0.457   2.294   2.234  0.9518  3.1968  1.6535
   73MOL   H19419058   0.588   2.269   2.359 -0.2745  0.1363 -0.0188
   73MOL   H19519059   0.181   2.171   2.608 -0.1473 -0.5036  0.5503
   73MOL   H19619060   0.292   2.128   2.731  0.9351 -0.4862 -0.7855
   73MOL   C19719061   0.260   1.981   2.565 -0.2068  0.5680 -0.8037
   73MOL   C19819062   0.127   1.918   2.603  0.4702 -0.6121 -0.0108
   73MOL   C19919063   0.070   1.796   2.532 -0.5526 -0.1630  0.6831
   73MOL   C20019064   0.006   1.936   2.515  0.1191 -0.1382  0.0338
   73MOL   C20119065   0.369   1.901   2.632 -0.0676 -0.7471 -0.4046
   73MOL   H20219066   0.272   1.977   2.456  0.8375  2.7270 -0.8096
   73MOL   H20319067   0.115   1.904   2.710  1.4595 -2.7119 -0.1424
   73MOL   H20419068   0.109   1.762   2.436  2.1626  0.5032  1.5013
   73MOL   H20519069   7.830   1.736   2.576  1.5539 -1.8092  2.3568
   73MOL   H20619070   0.024   1.991   2.423  2.1752 -0.3790  0.2780
   73MOL   H20719071   7.756   1.952   2.576  1.3744  0.6546  1.6902
   73MOL   H20819072   0.461   1.958   2.634 -1.9894  2.5540 -1.6477
   73MOL   H20919073   0.350   1.897   2.739 -2.5310  2.1653 -0.6663
   73MOL   C21019074   0.386   1.752   2.584 -0.1087  1.3235 -0.1918
   73MOL   C21119075   0.446   1.742   2.441  0.2304  0.0558  0.1384
   73MOL   C21219076   0.468   1.612   2.381 -0.2515 -0.8575 -0.4118
   73MOL   C21319077   0.374   1.705   2.313  0.0677 -0.4970 -0.0137
   73MOL   C21419078   0.468   1.664   2.685 -0.9742  0.2653  0.3431
   73MOL   H21519079   0.296   1.692   2.569  0.4432 -0.2730  2.5110
   73MOL   H21619080   0.524   1.816   2.426 -2.1609  2.6598  0.1915
   73MOL   H21719081   0.563   1.594   2.331  1.1743  0.7903  1.6280
   73MOL   H21819082   0.415   1.522   2.411 -1.2945 -0.3101 -0.6053
   73MOL   H21919083   0.408   1.758   2.225 -1.3722  0.0093 -0.2851
   73MOL   H22019084   0.266   1.693   2.322 -0.1643  1.6116  0.2597
   73MOL   H22119085   0.484   1.570   2.632 -1.4576  2.0416 -3.0870
   73MOL   H22219086   0.566   1.712   2.691 -1.2185  1.0369 -1.4100
   73MOL   C22319087   0.407   1.639   2.821  0.4411 -0.1534  0.4542
   73MOL   C22419088   0.510   1.590   2.920 -0.3007  0.7432  0.2677
   73MOL   C22519089   0.622   1.677   2.971 -0.7365  0.5177 -0.0799
   73MOL   C22619090   0.503   1.636   3.064  0.7155  0.3134 -0.1101
   73MOL   C22719091   0.287   1.550   2.799  0.1937  0.2510  0.2159
   73MOL   H22819092   0.380   1.738   2.857  2.0312  0.7136 -0.6728
   73MOL   H22919093   0.545   1.489   2.898  0.3850  0.9828  0.2549
   73MOL   H23019094   0.627   1.783   2.946 -1.7729  0.3974 -0.8071
   73MOL   H23119095   0.720   1.632   2.984 -0.3438  0.7838 -2.0274
   73MOL   H23219096   0.523   1.556   3.135 -0.7572  1.0124  1.1143
   73MOL   H23319097   0.434   1.717   3.089 -2.0132 -2.5240  1.8771
   73MOL   H23419098   0.220   1.581   2.719 -0.3716  2.1225  1.3605
   73MOL   H23519099   0.321   1.456   2.757 -1.4908 -0.5747  0.6526
   73MOL   C23619100   0.200   1.526   2.922 -0.5199 -0.5476  0.2834
   73MOL   C23719101   0.145   1.388   2.921 -0.2772 -0.5858 -0.2987
   73MOL   C23819102   0.242   1.271   2.939 -0.3784  0.4180 -0.4979
   73MOL   C23919103   0.154   1.308   3.049  0.1289 -0.0307 -0.3002
   73MOL   C24019104   0.093   1.638   2.921  0.1938 -0.0010 -0.1443
   73MOL   H24119105   0.280   1.527   2.997  0.9725 -1.9989 -1.2304
   73MOL   H24219106   0.080   1.363   2.837 -0.3301 -0.4740 -0.2908
   73MOL   H24319107   0.230   1.170   2.902  1.0163  0.6390 -1.5870
   73MOL   H24419108   0.345   1.306   2.941  0.5557 -2.3236  0.7049
   73MOL   H24519109   0.188   1.353   3.142  0.4116 -0.5685 -0.1460
   73MOL   H24619110   0.056   1.267   3.073 -0.8771  2.0522 -0.6678
   73MOL   H24719111   0.137   1.734   2.893 -2.4543  1.6511  1.0753
   73MOL   H24819112   0.033   1.622   2.831  2.1096 -0.3709 -1.3833
   73MOL   C24919113   0.014   1.643   3.053  0.0167  0.0341  0.4457
   73MOL   C25019114   7.748   1.755   3.041 -0.6042  0.2724 -0.3582
   73MOL   C25119115   7.769   1.891   3.005 -0.0875 -0.4806  0.4744
   73MOL   C25219116   7.679   1.802   2.920 -0.7397 -0.2358 -0.1115
   73MOL   C25319117   0.102   1.675   3.173  1.0517  0.4359  0.5050
   73MOL   H25419118   7.798   1.550   3.066 -0.7376  0.7090  2.1593
   73MOL   H25519119   7.679   1.746   3.125 -0.9704  1.1539 -0.5658
   73MOL   H25619120   7.719   1.970   3.061 -1.5668 -1.5821  0.7152
   73MOL   H25719121   0.028   1.909   2.960 -0.2299  0.7198  0.6085
   73MOL   H25819122   7.573   1.828   2.916 -1.4439 -2.9395 -0.1807
   73MOL   H25919123   7.730   1.772   2.828 -3.9649  0.5998 -2.2572
   73MOL   H26019124   0.172   1.756   3.154  1.5541 -0.2688 -0.6820
   73MOL   H26119125   0.165   1.589   3.193 -0.4802 -0.6992  0.5269
   73MOL   H26219126   0.042   1.711   3.257  0.6975  2.8354 -0.7393
   74MOL     C119127   6.693   7.368   5.035 -0.1703  0.0383 -0.3396
   74MOL     C219128   6.604   7.439   5.134  0.5981 -0.0459  0.5403
   74MOL     C319129   6.468   7.375   5.178 -0.0780  0.9201 -0.0090
   74MOL     C419130   6.468   7.505   5.095  0.3644 -0.1444 -0.5319
   74MOL     C519131   6.770   7.248   5.094  0.2604 -0.5608 -0.0609
   74MOL     H619132   6.632   7.334   4.951  0.2304 -1.0617 -0.1865
   74MOL     H719133   6.658   7.488   5.215 -0.0971  1.1442  0.2812
   74MOL     H819134   6.448   7.281   5.125 -0.7259  2.6903 -3.0591
   74MOL     H919135   6.441   7.377   5.283  3.1976 -0.5339  0.9258
   74MOL    H1019136   6.419   7.594   5.136 -1.7788 -0.8951 -1.3868
   74MOL    H1119137   6.450   7.495   4.988  1.8388 -1.4480 -0.6656
   74MOL    H1219138   6.762   7.170   5.019 -0.3058  0.6227 -1.2655
   74MOL    H1319139   6.715   7.220   5.184 -2.2652  3.7481 -0.0661
   74MOL    H1419140   6.761   7.442   4.992 -0.4340  0.8210  0.5699
   74MOL    C1519141   6.912   7.258   5.146 -0.7420 -0.0657  0.4782
   74MOL    C1619142   7.006   7.275   5.031 -0.3308  0.3346 -0.5009
   74MOL    C1719143   7.006   7.173   4.914 -0.5216 -0.3856  0.0134
   74MOL    C1819144   7.124   7.181   5.007 -0.3582  0.4756  0.3703
   74MOL    C1919145   6.936   7.355   5.265  0.4559  0.5289 -0.1206
   74MOL    H2019146   6.929   7.155   5.179  0.7300 -0.1747 -0.5415
   74MOL    H2119147   7.013   7.380   5.003  0.4528  0.8068  1.3556
   74MOL    H2219148   7.009   7.227   4.819 -0.2682 -0.4561 -0.0197
   74MOL    H2319149   6.956   7.077   4.919  0.0285 -0.7136 -0.5930
   74MOL    H2419150   7.132   7.094   5.072  2.2115  0.9871  0.7930
   74MOL    H2519151   7.216   7.232   4.978  0.8991 -1.3098  1.1296
   74MOL    H2619152   6.859   7.333   5.340  1.3169  0.3956  0.7259
   74MOL    H2719153   6.916   7.455   5.225 -0.6218  0.5173  0.3740
   74MOL    C2819154   7.072   7.355   5.345  0.1000 -0.3629 -0.1618
   74MOL    C2919155   7.101   7.222   5.402 -0.4855  0.3421  0.2118
   74MOL    C3019156   7.195   7.128   5.319 -0.4486  0.3667 -0.6984
   74MOL    C3119157   7.234   7.191   5.457 -0.2900 -0.4312 -0.3634
   74MOL    C3219158   7.081   7.471   5.444  0.3193 -0.1744 -0.3985
   74MOL    H3319159   7.153   7.371   5.275  0.5124 -1.0772  0.1458
   74MOL    H3419160   7.018   7.183   5.461 -1.4887 -0.8400 -1.8943
   74MOL    H3519161   7.243   7.172   5.232  2.8296 -1.8361 -0.1178
   74MOL    H3619162   7.165   7.024   5.312 -3.4161  0.7430  4.1258
   74MOL    H3719163   7.308   7.270   5.466 -0.1065 -0.5162 -1.1345
   74MOL    H3819164   7.234   7.125   5.544 -1.1494  0.8642  0.6409
   74MOL    H3919165   7.053   7.564   5.394 -3.5129 -0.3849  1.1042
   74MOL    H4019166   7.187   7.482   5.464  0.3313  0.1978 -0.6610
   74MOL    C4119167   6.995   7.457   5.571  0.3921 -0.1698  0.2220
   74MOL    C4219168   6.864   7.539   5.554  0.0901 -0.5386  0.0948
   74MOL    C4319169   6.753   7.534   5.651 -0.3137  0.5677  0.1172
   74MOL    C4419170   6.730   7.481   5.513  0.5120 -0.2836 -0.6856
   74MOL    C4519171   7.082   7.511   5.687  0.5294  0.2703 -0.4350
   74MOL    H4619172   6.973   7.354   5.598 -0.2486 -0.4673 -1.3629
   74MOL    H4719173   6.880   7.637   5.509 -1.1786 -1.2062 -1.8588
   74MOL    H4819174   6.765   7.462   5.732  2.0661  0.0945 -0.6063
   74MOL    H4919175   6.715   7.632   5.680  0.2810  0.7248  0.3694
   74MOL    H5019176   6.654   7.536   5.459 -0.5835 -0.1804  0.9129
   74MOL    H5119177   6.725   7.376   5.489  1.8747  0.0167 -2.3765
   74MOL    H5219178   7.087   7.619   5.679 -1.1951  0.3592 -0.3371
   74MOL    H5319179   7.183   7.471   5.674  0.0741 -1.4548  1.1137
   74MOL    C5419180   7.040   7.479   5.834  0.1746  1.0890  0.3357
   74MOL    C5519181   7.050   7.334   5.865  0.0682 -0.1024  0.8722
   74MOL    C5619182   6.958   7.232   5.804  0.2675 -0.5760 -0.5695
   74MOL    C5719183   6.944   7.270   5.953 -0.4745  0.2452  0.4814
   74MOL    C5819184   7.123   7.558   5.939  0.1670  0.2229  0.1253
   74MOL    H5919185   6.935   7.506   5.844 -0.2413  0.2102 -1.3718
   74MOL    H6019186   7.148   7.302   5.901  0.2883 -0.9297 -0.4459
   74MOL    H6119187   6.875   7.256   5.739  0.5551 -0.6188 -0.9561
   74MOL    H6219188   6.999   7.134   5.781  0.5547 -0.6091  0.0578
   74MOL    H6319189   6.984   7.204   6.030  1.9103 -0.1751 -1.0778
   74MOL    H6419190   6.842   7.306   5.966 -0.3172  0.7719  0.2521
   74MOL    H6519191   7.112   7.522   6.041 -0.2944  3.5947  1.3529
   74MOL    H6619192   7.228   7.536   5.917 -0.5608 -1.6530 -1.5475
   74MOL    C6719193   7.091   7.710   5.946  0.3472 -0.3182 -0.4400
   74MOL    C6819194   6.961   7.740   6.012  0.5287 -0.0068 -0.1636
   74MOL    C6919195   6.896   0.039   5.989 -0.2736  0.7020 -0.4172
   74MOL    C7019196   6.830   7.755   5.940  0.1262  0.3671 -0.1843
   74MOL    C7119197   7.203   7.786   6.017 -0.4271  0.2830  0.1466
   74MOL    H7219198   7.087   7.754   5.846 -1.0257  3.0140  1.0297
   74MOL    H7319199   6.948   7.692   6.109  1.2534  0.7953  0.3381
   74MOL    H7419200   6.857   0.078   6.082  1.4765  0.8308  0.2890
   74MOL    H7519201   6.926   0.105   5.908  2.1659 -0.3497 -0.4250
   74MOL    H7619202   6.834   7.723   5.836 -2.5010  2.7004 -1.0387
   74MOL    H7719203   6.729   7.736   5.975 -0.4032  0.2207 -1.7165
   74MOL    H7819204   7.233   7.726   6.103  1.7212 -0.4099 -1.0576
   74MOL    H7919205   7.174   0.046   6.052  1.5273 -0.9137  5.6634
   74MOL    C8019206   7.323   7.797   5.927  0.7740  0.1551  0.1194
   74MOL    C8119207   7.442   7.828   6.009  0.0222  0.0495 -0.4890
   74MOL    C8219208   7.585   7.778   5.970  0.2642 -0.6107  0.2122
   74MOL    C8319209   7.507   7.717   6.085  0.1437  0.7074  0.2909
   74MOL    C8419210   7.300   0.073   5.820  0.6264  0.4056 -0.3714
   74MOL    H8519211   7.339   7.703   5.875 -0.6968 -0.5535  0.9259
   74MOL    H8619212   7.432   0.085   6.059  1.5606 -0.6092  1.1449
   74MOL    H8719213   7.665   0.011   5.984 -0.9239  0.9467 -0.7444
   74MOL    H8819214   7.603   7.707   5.890  0.6662  1.6868 -1.7960
   74MOL    H8919215   7.465   7.618   6.068  2.1315 -0.3160  1.1582
   74MOL    H9019216   7.543   7.742   6.185  1.6786  0.7836 -0.2746
   74MOL    H9119217   7.196   0.087   5.793  0.7654 -1.3558 -1.9100
   74MOL    H9219218   7.324   0.164   5.875 -0.6098  2.6365 -3.3649
   74MOL    C9319219   7.383   0.071   5.691  0.2757 -0.2048  0.0264
   74MOL    C9419220   7.340   7.795   5.600 -0.0044  0.0064 -0.1127
   74MOL    C9519221   7.423   7.753   5.484 -0.1670 -0.7068 -0.0750
   74MOL    C9619222   7.406   7.660   5.594  0.0766  0.2832 -0.9701
   74MOL    C9719223   7.391   0.211   5.615 -0.0086 -0.1035 -0.0450
   74MOL    H9819224   7.488   0.057   5.718  0.9317  2.3654 -1.0047
   74MOL    H9919225   7.238   7.802   5.562 -0.1976  0.6380  0.5138
   74MOL   H10019226   7.379   7.716   5.392 -0.4643 -2.6016  0.8071
   74MOL   H10119227   7.516   7.808   5.472 -0.8123  0.7289  1.2385
   74MOL   H10219228   7.338   7.576   5.577  1.1160 -0.6751 -0.4742
   74MOL   H10319229   7.495   7.643   5.654 -0.9069 -1.0598  0.1389
   74MOL   H10419230   7.293   0.257   5.621  0.1598  0.1174  0.9820
   74MOL   H10519231   7.407   0.191   5.509 -0.1222 -0.8529  0.0721
   74MOL   C10619232   7.496   0.313   5.674 -0.4330 -0.6202 -0.6268
   74MOL   C10719233   7.643   0.269   5.642  0.0537 -0.4927 -0.2939
   74MOL   C10819234   7.772   0.315   5.710 -0.6048 -1.0656  0.2964
   74MOL   C10919235   7.713   0.181   5.741  0.1280  0.0492 -1.1854
   74MOL   C11019236   7.478   0.461   5.622 -0.7463 -0.7711 -0.3470
   74MOL   H11119237   7.482   0.309   5.782 -1.9250 -1.9494 -0.8675
   74MOL   H11219238   7.656   0.234   5.540  1.6366 -0.6971 -0.0423
   74MOL   H11319239   0.020   0.312   5.645 -1.1175  3.0470 -0.7615
   74MOL   H11419240   7.773   0.393   5.786 -0.0753 -0.0048 -0.7655
   74MOL   H11519241   7.679   0.169   5.843  1.3838 -0.6867 -0.8384
   74MOL   H11619242   7.767   0.101   5.690 -0.3245 -1.1717  0.2128
   74MOL   H11719243   7.572   0.515   5.637 -0.2072 -1.6329 -0.5671
   74MOL   H11819244   7.488   0.452   5.514 -1.7540  1.6453 -0.6699
   74MOL   C11919245   7.363   0.547   5.680  0.1447  0.4204 -0.2957
   74MOL   C12019246   7.397   0.575   5.826 -0.3872 -0.4131  0.3574
   74MOL   C12119247   7.349   0.497   5.944 -0.2609 -0.3095 -0.4021
   74MOL   C12219248   7.291   0.637   5.917 -0.3490 -0.0271  0.6707
   74MOL   C12319249   7.326   0.674   5.610  0.3553  0.0803 -0.3914
   74MOL   H12419250   7.279   0.477   5.679 -1.1916  2.0108 -0.2484
   74MOL   H12519251   7.494   0.622   5.839 -1.1469  2.0389 -2.1331
   74MOL   H12619252   7.409   0.479   6.032  0.4812 -1.2121 -1.0764
   74MOL   H12719253   7.293   0.408   5.915  0.2345  0.4432 -3.8899
   74MOL   H12819254   7.188   0.638   5.882 -0.9673 -0.6464  2.4524
   74MOL   H12919255   7.323   0.723   5.976 -0.6626  1.2770 -1.0185
   74MOL   H13019256   7.236   0.718   5.653  0.7680  3.0300 -2.3686
   74MOL   H13119257   7.419   0.723   5.640 -0.5333  1.6133 -0.0797
   74MOL   C13219258   7.310   0.665   5.460  0.0346 -0.5353 -0.1580
   74MOL   C13319259   7.323   0.807   5.403 -0.1454  0.4512 -0.2280
   74MOL   C13419260   7.368   0.818   5.267 -0.1881  0.2949  0.4146
   74MOL   C13519261   7.456   0.862   5.370 -0.3267 -0.1054 -0.1620
   74MOL   C13619262   7.171   0.595   5.426  0.0144 -0.1406  0.3192
   74MOL   H13719263   7.398   0.614   5.421  1.2041 -0.0914  1.8693
   74MOL   H13819264   7.246   0.874   5.440  0.2312 -0.2255  1.8088
   74MOL   H13919265   7.390   0.732   5.205  0.7125 -0.6855  2.0348
   74MOL   H14019266   7.317   0.896   5.211 -0.9408 -0.8923 -0.5728
   74MOL   H14119267   7.545   0.803   5.392 -0.5098 -0.3830 -0.1766
   74MOL   H14219268   7.480   0.968   5.360 -1.1191 -0.1436 -2.8020
   74MOL   H14319269   7.139   0.526   5.504  0.2635  0.3556  0.8740
   74MOL   H14419270   7.098   0.676   5.425  0.0460 -0.1109  0.4300
   74MOL   C14519271   7.167   0.519   5.290  0.5406 -0.0930  0.1419
   74MOL   C14619272   7.246   0.389   5.298  0.0703 -0.4851 -0.3496
   74MOL   C14719273   7.295   0.306   5.177  0.1701 -0.7266  0.0007
   74MOL   C14819274   7.390   0.387   5.263 -0.1285 -0.5344 -0.6988
   74MOL   C14919275   7.024   0.484   5.241 -0.3248 -0.5912 -0.1906
   74MOL   H15019276   7.220   0.579   5.216  0.7356 -0.7639 -0.2666
   74MOL   H15119277   7.223   0.326   5.384 -0.3662 -0.3052 -0.3332
   74MOL   H15219278   7.282   0.199   5.190 -2.6206 -0.2633  1.4408
   74MOL   H15319279   7.245   0.351   5.092 -2.3796 -2.2053  0.6877
   74MOL   H15419280   7.425   0.477   5.212  0.4924 -0.3742 -0.0024
   74MOL   H15519281   7.463   0.320   5.307 -0.7683 -0.9834 -0.3227
   74MOL   H15619282   6.999   0.389   5.287 -2.4344  1.3666  2.9373
   74MOL   H15719283   6.960   0.554   5.295 -0.2641  0.1327 -1.0341
   74MOL   C15819284   6.998   0.486   5.086 -0.1386 -0.5679  0.7291
   74MOL   C15919285   6.919   0.607   5.058  0.1630  0.0251  0.1782
   74MOL   C16019286   6.977   0.746   5.068  0.7280  1.1340 -0.5466
   74MOL   C16119287   6.931   0.694   4.939 -0.0804 -0.3211 -0.5014
   74MOL   C16219288   6.926   0.361   5.032  0.1285  0.1916 -0.1710
   74MOL   H16319289   7.093   0.506   5.038  0.0890  0.7959  1.7286
   74MOL   H16419290   6.814   0.604   5.086  0.3623 -2.3661  0.8575
   74MOL   H16519291   7.084   0.755   5.089  0.0081  2.2192  3.0321
   74MOL   H16619292   6.917   0.831   5.100  0.6375  0.7544  0.3156
   74MOL   H16719293   6.836   0.726   4.896  1.3999  2.0368 -2.1251
   74MOL   H16819294   7.004   0.670   4.861 -0.6533  2.0474 -1.8223
   74MOL   H16919295   6.826   0.369   5.074  0.0202  2.0668 -0.7308
   74MOL   H17019296   6.966   0.276   5.086  0.3222  1.2970  1.4295
   74MOL   C17119297   6.938   0.348   4.879  0.2456 -0.4279 -0.3608
   74MOL   C17219298   7.083   0.301   4.839  0.2653  0.1566  0.3326
   74MOL   C17319299   7.135   0.315   4.700  0.6729  0.0966  0.3799
   74MOL   C17419300   7.187   0.404   4.816 -1.1008 -0.1121 -0.4606
   74MOL   C17519301   6.838   0.242   4.831 -0.2580 -0.4199 -0.1572
   74MOL   H17619302   6.917   0.446   4.837  2.5902 -0.0816 -0.7604
   74MOL   H17719303   7.112   0.205   4.881 -1.3846 -0.9068 -0.9012
   74MOL   H17819304   7.196   0.232   4.664  0.9243  0.8496 -0.9581
   74MOL   H17919305   7.063   0.347   4.624  1.8069  1.9157  0.0509
   74MOL   H18019306   7.168   0.511   4.814 -1.4901 -0.1465  1.1571
   74MOL   H18119307   7.283   0.381   4.862 -1.7792 -0.4623  0.8023
   74MOL   H18219308   6.860   0.141   4.866  1.0046 -0.3136 -0.6262
   74MOL   H18319309   6.850   0.237   4.723  0.1391  0.0948 -0.1379
   74MOL   C18419310   6.687   0.287   4.851  0.0579  0.7249 -0.3550
   74MOL   C18519311   6.604   0.166   4.796  0.2320 -0.4345 -1.0051
   74MOL   C18619312   6.482   0.107   4.854 -0.5651 -0.0261  0.8332
   74MOL   C18719313   6.609   0.031   4.864 -0.2237  0.4355 -0.1655
   74MOL   C18819314   6.654   0.417   4.775  0.4847 -0.0281 -0.6382
   74MOL   H18919315   6.665   0.294   4.958  2.5428  0.2493  0.2122
   74MOL   H19019316   6.612   0.163   4.688 -1.0273 -0.6054 -1.1046
   74MOL   H19119317   6.405   0.054   4.798 -0.1840 -1.7370  1.8963
   74MOL   H19219318   6.453   0.145   4.952  1.3823  0.5093  1.2307
   74MOL   H19319319   6.605   7.779   4.805  2.6132  0.8696 -1.1377
   74MOL   H19419320   6.659   0.021   4.960  1.9575 -2.1035 -1.4888
   74MOL   H19519321   6.707   0.409   4.679  1.3576  1.2510 -0.2688
   74MOL   H19619322   6.692   0.504   4.828 -0.2858  0.6350 -1.1529
   74MOL   C19719323   6.501   0.465   4.758 -0.5570 -1.3897 -0.4180
   74MOL   C19819324   6.426   0.451   4.895  0.0006 -0.1066  1.1208
   74MOL   C19919325   6.329   0.546   4.944 -0.0632  0.1865 -0.4550
   74MOL   C20019326   6.462   0.528   5.012  0.2048  1.0103  0.3128
   74MOL   C20119327   6.431   0.394   4.633 -0.5589 -0.5591 -0.1360
   74MOL   H20219328   6.516   0.569   4.729 -1.6314 -1.1242 -0.0393
   74MOL   H20319329   6.409   0.344   4.904  2.4073 -0.5291  0.8817
   74MOL   H20419330   6.307   0.630   4.879  0.2207 -0.4412 -1.3759
   74MOL   H20519331   6.251   0.509   5.009 -0.3961 -0.8605 -1.4377
   74MOL   H20619332   6.514   0.623   5.013  0.0487  1.1019 -0.0402
   74MOL   H20719333   6.467   0.478   5.108 -1.3584  0.9073  0.3581
   74MOL   H20819334   6.420   0.289   4.659 -1.6562 -0.1144  1.2090
   74MOL   H20919335   6.330   0.434   4.639  0.7331  2.5622  2.0566
   74MOL   C21019336   6.476   0.420   4.484  0.5213 -0.4909 -0.5914
   74MOL   C21119337   6.391   0.339   4.394 -0.0337 -0.3035  1.1014
   74MOL   C21219338   6.442   0.261   4.273  0.3452  0.5659 -0.5954
   74MOL   C21319339   6.406   0.189   4.391  0.0336 -0.0156 -0.2682
   74MOL   C21419340   6.458   0.570   4.446 -0.1331 -0.3602 -0.5969
   74MOL   H21519341   6.581   0.391   4.483  0.5608 -0.3377 -1.1603
   74MOL   H21619342   6.292   0.382   4.381  0.9586  2.1821  1.5193
   74MOL   H21719343   6.375   0.246   4.189 -0.6006 -0.5775  0.3523
   74MOL   H21819344   6.551   0.256   4.264  0.3955 -0.2140  0.3459
   74MOL   H21919345   6.318   0.126   4.380  0.6391 -1.1628  1.2513
   74MOL   H22019346   6.491   0.135   4.434 -0.0184 -0.0508 -0.2095
   74MOL   H22119347   6.354   0.603   4.445 -0.0765 -0.0609  1.3435
   74MOL   H22219348   6.513   0.631   4.517 -1.6308 -1.1932  1.3245
   74MOL   C22319349   6.531   0.615   4.311 -0.3964 -0.0072 -0.5690
   74MOL   C22419350   6.673   0.661   4.353  0.5574 -0.0976  0.4696
   74MOL   C22519351   6.791   0.565   4.346  0.1197 -0.1512 -0.1605
   74MOL   C22619352   6.793   0.685   4.260  0.6202 -0.0829 -0.0538
   74MOL   C22719353   6.456   0.739   4.239 -0.0899  0.4588 -0.1572
   74MOL   H22819354   6.540   0.537   4.236 -1.3860  0.2631 -0.9882
   74MOL   H22919355   6.678   0.731   4.436  0.6636  0.7476 -0.2451
   74MOL   H23019356   6.777   0.470   4.295  2.8840 -1.1066  0.8023
   74MOL   H23119357   6.856   0.561   4.433  0.0601 -1.1420 -0.1589
   74MOL   H23219358   6.866   0.762   4.285  0.6821 -0.3478  0.5825
   74MOL   H23319359   6.756   0.671   4.158  1.9056 -1.3939 -0.3582
   74MOL   H23419360   6.394   0.789   4.313 -1.2129  0.2533 -0.9463
   74MOL   H23519361   6.540   0.802   4.208  0.9997  0.1204  2.0098
   74MOL   C23619362   6.367   0.701   4.120  0.2795 -0.0096  0.0153
   74MOL   C23719363   6.334   0.829   4.037 -0.5263  0.5748  0.2650
   74MOL   C23819364   6.444   0.899   3.961 -0.1572 -0.2336  0.0735
   74MOL   C23919365   6.330   0.830   3.888 -0.5600  0.6727 -0.0896
   74MOL   C24019366   6.243   0.619   4.151  0.0682  0.0178  1.2272
   74MOL   H24119367   6.436   0.644   4.057  0.3817 -2.5751  2.3769
   74MOL   H24219368   6.271   0.904   4.084  0.7519  1.6485  0.3144
   74MOL   H24319369   6.445   1.007   3.969  1.7183 -0.2403  0.1770
   74MOL   H24419370   6.544   0.860   3.944  0.0706  0.5297 -0.3510
   74MOL   H24519371   6.356   0.741   3.831  1.0760  0.8608  0.3104
   74MOL   H24619372   6.248   0.895   3.860  0.0119  1.6081  0.3512
   74MOL   H24719373   6.264   0.528   4.207  2.2857  0.9584  1.9987
   74MOL   H24819374   6.183   0.673   4.224 -0.0615  0.1095  1.0542
   74MOL   C24919375   6.156   0.570   4.028  0.1684  0.0550 -0.3475
   74MOL   C25019376   6.023   0.516   4.075 -0.6419 -0.8272 -1.2304
   74MOL   C25119377   5.912   0.607   4.133 -0.3777  0.3745  0.5404
   74MOL   C25219378   5.897   0.538   3.999 -0.6596 -0.0367 -0.2151
   74MOL   C25319379   6.224   0.464   3.948 -0.3814 -0.2374  0.2002
   74MOL   H25419380   6.122   0.645   3.957 -0.0259  1.6073  1.3295
   74MOL   H25519381   6.038   0.427   4.135  2.1855  0.0602 -0.5275
   74MOL   H25619382   5.858   0.568   4.219 -0.6676  0.4873  0.4108
   74MOL   H25719383   5.935   0.713   4.130 -2.2637  0.9091  2.9169
   74MOL   H25819384   5.824   0.458   3.999 -0.6564 -0.0393  0.3877
   74MOL   H25919385   5.894   0.600   3.909  1.6083 -0.7873 -0.8447
   74MOL   H26019386   6.314   0.497   3.895 -0.4759 -2.1078 -1.1716
   74MOL   H26119387   6.155   0.423   3.875  1.4108 -1.2496 -0.9856
   74MOL   H26219388   6.253   0.382   4.015  0.1442 -0.5858 -0.4423
   75MOL     C119389   4.324   7.395   4.750  0.0032 -0.9440  0.3946
   75MOL     C219390   4.369   7.346   4.882  0.1107  0.6351 -0.4665
   75MOL     C319391   4.396   7.200   4.907  0.1296 -0.4329 -0.0981
   75MOL     C419392   4.266   7.257   4.960 -0.1507 -0.3438 -0.1366
   75MOL     C519393   4.236   7.517   4.763 -0.1093 -0.0639  0.0910
   75MOL     H619394   4.416   7.423   4.698  0.1190 -0.6046  0.7811
   75MOL     H719395   4.433   7.418   4.933  2.3297 -0.8885 -1.0351
   75MOL     H819396   4.384   7.130   4.825  2.5006  0.4164 -1.2310
   75MOL     H919397   4.468   7.170   4.982 -3.1534 -4.4627  1.6643
   75MOL    H1019398   4.261   7.267   5.068 -2.0755  0.2074 -0.2565
   75MOL    H1119399   4.178   7.221   4.907 -0.6346  3.1038 -1.8001
   75MOL    H1219400   4.301   7.601   4.787 -0.0544 -0.3995  1.1731
   75MOL    H1319401   4.179   7.518   4.856  0.0405 -0.0578  0.1834
   75MOL    H1419402   4.268   7.324   4.689 -1.5616  0.5326  0.0829
   75MOL    C1519403   4.137   7.550   4.649  0.2003  0.0780  0.3124
   75MOL    C1619404   4.035   7.652   4.690  0.7393  0.2856  0.7513
   75MOL    C1719405   3.917   7.616   4.781 -0.7691  0.2580  0.2954
   75MOL    C1819406   3.888   7.629   4.636  0.3885 -0.1778  0.4727
   75MOL    C1919407   4.218   7.615   4.535 -0.0699  0.1180 -0.3399
   75MOL    H2019408   4.078   7.462   4.623  0.1964 -0.1776  1.1841
   75MOL    H2119409   4.067   7.755   4.698 -0.8919  0.8389  0.4433
   75MOL    H2219410   3.871   7.693   4.842  0.2936  1.4892 -0.4300
   75MOL    H2319411   3.930   7.516   4.823  0.5375  0.3582  0.1319
   75MOL    H2419412   3.845   7.540   4.590  0.1279  1.0797 -1.7646
   75MOL    H2519413   3.847   7.719   4.591  1.2678 -0.3573 -0.6954
   75MOL    H2619414   4.324   7.608   4.559 -0.6049 -1.8089  1.6656
   75MOL    H2719415   4.207   7.723   4.542 -2.1992 -0.2052  2.2626
   75MOL    C2819416   4.196   7.551   4.398 -0.4606  0.9629 -0.4613
   75MOL    C2919417   4.190   7.396   4.403  0.0303 -0.0364  0.0791
   75MOL    C3019418   4.056   7.324   4.416  0.0269 -0.1608 -0.0355
   75MOL    C3119419   4.139   7.318   4.285 -0.2207  0.3175  0.5029
   75MOL    C3219420   4.296   7.600   4.298 -0.2530 -0.1915  0.1117
   75MOL    H3319421   4.097   7.579   4.362  0.5618  1.2629 -3.1298
   75MOL    H3419422   4.262   7.352   4.472  2.2535  3.7644  0.3432
   75MOL    H3519423   3.967   7.387   4.413 -0.7876 -1.2794  0.5856
   75MOL    H3619424   4.041   7.232   4.471  1.6462  0.9645  2.3666
   75MOL    H3719425   4.111   7.390   4.209  1.4804  0.0783 -0.3775
   75MOL    H3819426   4.189   7.226   4.254 -1.7805 -0.2197 -0.4158
   75MOL    H3919427   4.268   7.549   4.206 -0.2195  2.9812 -1.7413
   75MOL    H4019428   4.395   7.572   4.334 -0.0601 -0.4991 -0.6394
   75MOL    C4119429   4.294   7.758   4.262 -0.0621  0.9101 -0.3508
   75MOL    C4219430   4.156   7.812   4.230 -0.2989 -0.0776  0.4273
   75MOL    C4319431   4.097   0.113   4.243  0.5395 -0.3918  0.3335
   75MOL    C4419432   4.045   0.001   4.332  0.4656  0.7447  0.2145
   75MOL    C4519433   4.403   7.792   4.158  0.1449  0.5680 -0.1902
   75MOL    H4619434   4.340   7.808   4.347 -1.1742  1.2797  0.0366
   75MOL    H4719435   4.117   7.771   4.137 -1.5244  0.7604  0.5608
   75MOL    H4819436   4.151   0.190   4.298  0.7405 -0.0083 -0.3943
   75MOL    H4919437   4.016   0.148   4.180 -1.6585 -1.2092  2.6450
   75MOL    H5019438   3.951   7.791   4.308  1.1571 -0.4065 -0.2021
   75MOL    H5119439   4.077   0.005   4.436  0.6137 -0.8332  0.2511
   75MOL    H5219440   4.374   7.758   4.058 -0.1406 -1.0113  0.4195
   75MOL    H5319441   4.485   7.726   4.186 -0.2066  0.3132  0.2466
   75MOL    C5419442   4.448   0.102   4.161  0.0245  0.7671  0.6811
   75MOL    C5519443   4.522   0.154   4.285  0.6599 -0.7831  0.0140
   75MOL    C5619444   4.448   0.216   4.401  0.0390  0.2426  0.4871
   75MOL    C5719445   4.512   0.306   4.301  0.4243 -0.2286  0.0569
   75MOL    C5819446   4.544   0.129   4.039  0.3214 -1.0840  0.3688
   75MOL    H5919447   4.360   0.162   4.137 -0.7613 -1.2888 -1.8268
   75MOL    H6019448   4.615   0.101   4.305  0.2538 -1.6404 -0.3483
   75MOL    H6119449   4.340   0.202   4.398  0.1931 -0.6292 -2.0568
   75MOL    H6219450   4.493   0.219   4.501 -1.3436 -0.4904  1.1462
   75MOL    H6319451   4.601   0.362   4.327  0.7728 -0.9585  0.4645
   75MOL    H6419452   4.440   0.356   4.237 -0.0142 -1.8035 -0.7022
   75MOL    H6519453   4.588   0.228   4.055 -1.5871 -0.2220  0.4052
   75MOL    H6619454   4.625   0.057   4.048  0.9231 -0.2901  1.3469
   75MOL    C6719455   4.474   0.125   3.901  0.2552  0.2368 -0.9549
   75MOL    C6819456   4.346   0.212   3.899 -0.0539 -0.1020  0.5658
   75MOL    C6919457   4.244   0.203   3.782 -0.2289  0.2761  0.3794
   75MOL    C7019458   4.206   0.162   3.923  0.1281 -0.6257 -0.4264
   75MOL    C7119459   4.573   0.171   3.793 -0.9248 -0.1705  0.2970
   75MOL    H7219460   4.449   0.022   3.876  1.8677 -0.6931  1.1503
   75MOL    H7319461   4.373   0.314   3.924  0.9451  0.0544 -1.0685
   75MOL    H7419462   4.233   0.303   3.740 -0.1440 -0.0522 -0.4316
   75MOL    H7519463   4.266   0.123   3.711 -0.6701  0.1186  0.4258
   75MOL    H7619464   4.188   0.056   3.942 -0.4811 -0.2752  1.0531
   75MOL    H7719465   4.139   0.230   3.974  1.3672 -0.0707  0.4782
   75MOL    H7819466   4.599   0.275   3.812  0.0760  0.0720 -2.1845
   75MOL    H7919467   4.516   0.164   3.700  0.0608 -1.5133 -0.2312
   75MOL    C8019468   4.704   0.087   3.765  0.5118  0.7548 -0.3879
   75MOL    C8119469   4.789   0.162   3.672 -0.4189 -0.0717  0.8867
   75MOL    C8219470   4.938   0.145   3.668  0.2394 -0.6115  0.1942
   75MOL    C8319471   4.877   0.278   3.701  0.0442 -0.4873 -0.0849
   75MOL    C8419472   4.679   7.786   3.721  0.2256 -0.0515 -0.1293
   75MOL    H8519473   4.748   0.090   3.865  1.2663  1.6673 -0.7503
   75MOL    H8619474   4.731   0.171   3.580 -0.3023  1.2387  0.9337
   75MOL    H8719475   4.994   0.139   3.575  0.4608 -0.9048  0.3438
   75MOL    H8819476   4.995   0.108   3.753  2.1571 -0.1233 -0.8483
   75MOL    H8919477   4.900   0.304   3.805  1.7152  0.4656 -0.6699
   75MOL    H9019478   4.903   0.356   3.630 -1.9244 -0.4974 -0.8597
   75MOL    H9119479   4.593   7.746   3.774  0.1916 -1.4294 -1.1819
   75MOL    H9219480   4.656   7.795   3.615 -0.8776 -1.2230  0.0012
   75MOL    C9319481   4.788   7.685   3.744 -0.0369  0.2369  0.1080
   75MOL    C9419482   4.813   7.638   3.887 -0.4265  0.1805 -1.0398
   75MOL    C9519483   4.935   7.560   3.926  0.0612  0.1655 -0.3037
   75MOL    C9619484   4.929   7.705   3.961 -0.0915  0.0855 -0.2283
   75MOL    C9719485   4.777   7.561   3.648  0.1062  0.4030  0.0501
   75MOL    H9819486   4.874   7.739   3.706 -1.0438  1.3475 -0.6306
   75MOL    H9919487   4.725   7.610   3.944  1.9135 -0.1384  2.6374
   75MOL   H10019488   4.908   7.488   4.003  0.4092  0.4181  0.0566
   75MOL   H10119489   5.007   7.525   3.853 -2.5419 -2.8195 -1.5549
   75MOL   H10219490   4.874   7.745   4.046  1.3460  0.8018  0.3655
   75MOL   H10319491   5.005   7.766   3.913  0.8081  0.0988  1.1721
   75MOL   H10419492   4.864   7.496   3.658 -0.3601 -0.5273 -1.7439
   75MOL   H10519493   4.793   7.599   3.548  0.5088  1.3797  0.4881
   75MOL   C10619494   4.638   7.478   3.654 -0.1243  0.1693  0.1294
   75MOL   C10719495   4.583   7.461   3.518 -0.1090 -0.3631  0.4753
   75MOL   C10819496   4.444   7.413   3.492  0.5027 -0.5002  0.0818
   75MOL   C10919497   4.486   7.554   3.459 -0.9450  0.1386 -0.6850
   75MOL   C11019498   4.664   7.339   3.714  0.1642 -0.0626 -0.5986
   75MOL   H11119499   4.566   7.524   3.722 -2.3193 -1.0090 -1.3784
   75MOL   H11219500   4.657   7.431   3.444 -0.0678 -1.6650  1.0138
   75MOL   H11319501   4.417   7.352   3.406 -0.5820 -1.7579  1.2902
   75MOL   H11419502   4.382   7.400   3.580  0.6467 -1.0565  0.0984
   75MOL   H11519503   4.458   7.635   3.526  0.1117 -2.9810  3.8005
   75MOL   H11619504   4.506   7.581   3.356 -1.6085 -0.5148 -0.9866
   75MOL   H11719505   4.617   7.264   3.649  0.2199 -0.6424  0.0269
   75MOL   H11819506   4.771   7.319   3.708 -0.1278 -0.9970 -4.3956
   75MOL   C11919507   4.620   7.317   3.859  0.1868  0.3049  0.6451
   75MOL   C12019508   4.469   7.332   3.872  0.4087 -0.3984 -0.3049
   75MOL   C12119509   4.401   7.466   3.904 -0.3996  0.4909 -0.6002
   75MOL   C12219510   4.399   7.358   4.011 -0.3190  0.0427 -0.0282
   75MOL   C12319511   4.659   7.173   3.900  0.6019 -0.6806  0.6615
   75MOL   H12419512   4.664   7.396   3.920 -1.2071  0.3555  1.5968
   75MOL   H12519513   4.420   7.273   3.795 -1.6287  1.2811 -0.3319
   75MOL   H12619514   4.311   7.500   3.852  0.7311  1.1340 -2.1827
   75MOL   H12719515   4.467   7.547   3.933 -0.0531  0.1025 -0.2994
   75MOL   H12819516   4.459   7.387   4.097 -0.0561  2.1679 -0.8883
   75MOL   H12919517   4.308   7.298   4.015  1.6284 -2.9105  1.3550
   75MOL   H13019518   4.587   7.101   3.860 -0.1611  0.3539  0.1453
   75MOL   H13119519   4.758   7.161   3.855  1.6050  1.8845  2.0774
   75MOL   C13219520   4.692   7.148   4.049 -0.0315  0.5512  0.7081
   75MOL   C13319521   4.811   7.056   4.065 -0.2275 -0.6779  0.5492
   75MOL   C13419522   4.920   7.090   4.168  0.5530  0.3006  0.4424
   75MOL   C13519523   4.943   7.122   4.019 -0.3124  0.3073 -0.0171
   75MOL   C13619524   4.566   7.088   4.122 -0.9113 -0.6595  0.0671
   75MOL   H13719525   4.722   7.243   4.092  1.0422 -0.0280  1.2595
   75MOL   H13819526   4.809   6.953   4.031  1.4287 -0.2727 -0.8624
   75MOL   H13919527   4.892   7.165   4.243 -0.4017 -0.6907  1.0938
   75MOL   H14019528   4.974   7.005   4.209  0.2692 -0.8722 -1.5871
   75MOL   H14119529   4.939   7.227   3.992 -2.8537  0.1597 -0.3096
   75MOL   H14219530   5.007   7.058   3.958  3.1646  2.1675  1.5145
   75MOL   H14319531   4.482   7.157   4.117 -0.9278 -0.5372  1.8100
   75MOL   H14419532   4.523   7.009   4.060 -0.9906 -0.8207  0.3299
   75MOL   C14519533   4.556   7.050   4.267 -0.1587  0.8392  0.0399
   75MOL   C14619534   4.528   7.166   4.358  0.0096 -0.7346  0.4557
   75MOL   C14719535   4.586   7.203   4.493 -0.1471  0.4984  0.1035
   75MOL   C14819536   4.611   7.292   4.375  0.1704  0.1762 -0.0382
   75MOL   C14919537   4.445   6.931   4.277  0.0121 -0.8325  1.0176
   75MOL   H15019538   4.648   6.998   4.290 -0.3313  0.4975 -0.0346
   75MOL   H15119539   4.423   7.194   4.352  0.7656  2.1835  0.1727
   75MOL   H15219540   4.512   7.240   4.563 -1.7837 -2.3360 -0.0569
   75MOL   H15319541   4.661   7.133   4.529 -1.2185 -0.0248  1.3465
   75MOL   H15419542   4.711   7.284   4.331  0.1550  2.8430 -0.6393
   75MOL   H15519543   4.572   7.391   4.355 -0.5716  0.2308  1.5887
   75MOL   H15619544   4.345   6.966   4.252  1.0248  0.5535 -1.2456
   75MOL   H15719545   4.461   6.845   4.214  0.3764  0.3154 -0.4761
   75MOL   C15819546   4.434   6.858   4.409  0.5141  0.9066  0.2498
   75MOL   C15919547   4.345   6.940   4.508 -0.2968  0.2290  0.1471
   75MOL   C16019548   4.197   6.949   4.483  0.8258 -0.2346 -0.1334
   75MOL   C16119549   4.251   6.878   4.605  0.3406  0.3439  0.4610
   75MOL   C16219550   4.570   6.818   4.467  0.3375  0.4141  0.3133
   75MOL   H16319551   4.371   6.773   4.384  0.7940  1.0259 -0.8933
   75MOL   H16419552   4.396   7.029   4.545  1.5694 -1.3377  1.5011
   75MOL   H16519553   4.144   6.874   4.425 -0.2996  0.4414  0.0032
   75MOL   H16619554   4.143   7.041   4.503  0.5798 -0.3234 -0.3780
   75MOL   H16719555   4.234   6.931   4.698 -3.1866 -1.1425  0.7393
   75MOL   H16819556   4.235   6.771   4.610  2.6050  0.0628  2.2592
   75MOL   H16919557   4.539   6.768   4.559  0.6323  0.8379  0.6421
   75MOL   H17019558   4.623   6.909   4.494  0.9577  0.0078  0.4750
   75MOL   C17119559   4.652   6.719   4.384 -0.7216  0.1926  0.0446
   75MOL   C17219560   4.783   6.696   4.460  0.4670 -0.7847 -0.5800
   75MOL   C17319561   4.914   6.668   4.390 -0.2637 -0.7795  0.2086
   75MOL   C17419562   4.893   6.799   4.460 -0.1389  0.2275  0.1148
   75MOL   C17519563   4.587   6.579   4.372  0.1402  0.7472 -0.4842
   75MOL   H17619564   4.671   6.759   4.284 -1.1574 -0.9937 -0.5196
   75MOL   H17719565   4.763   6.644   4.553  1.9541  1.0668  0.8081
   75MOL   H17819566   4.989   6.608   4.440 -0.8036 -0.9116  0.8660
   75MOL   H17919567   4.916   6.657   4.281 -1.8968 -2.4520  0.2970
   75MOL   H18019568   4.944   6.820   4.553  0.7624 -0.8219 -0.1337
   75MOL   H18119569   4.877   6.886   4.396  1.5829  1.4829  1.3447
   75MOL   H18219570   4.478   6.570   4.376  0.1358 -0.2788 -2.2813
   75MOL   H18319571   4.613   6.523   4.461 -0.5028 -3.1761 -2.6473
   75MOL   C18419572   4.622   6.499   4.243  0.1078  0.4942 -0.9231
   75MOL   C18519573   4.565   6.562   4.124  0.1215 -0.5034 -0.5193
   75MOL   C18619574   4.603   6.516   3.985  0.0418  0.3331 -0.5355
   75MOL   C18719575   4.648   6.655   4.039 -0.2453  0.0799 -0.4348
   75MOL   C18819576   4.585   6.351   4.259 -0.5564 -0.5725  0.4780
   75MOL   H18919577   4.729   6.500   4.225  0.5962 -1.3970  1.5864
   75MOL   H19019578   4.458   6.580   4.136 -0.0980 -0.2002 -2.8247
   75MOL   H19119579   4.535   6.492   3.903  0.6982 -1.8682 -0.4941
   75MOL   H19219580   4.678   6.436   3.986 -2.6843 -2.3002 -0.0988
   75MOL   H19319581   4.607   6.748   4.001  2.4413  1.2403 -0.6011
   75MOL   H19419582   4.752   6.667   4.069  0.8246 -2.8466 -2.6323
   75MOL   H19519583   4.597   6.303   4.162 -1.9918 -0.0761  0.0347
   75MOL   H19619584   4.477   6.359   4.272 -0.6161 -2.3838  1.2699
   75MOL   C19719585   4.669   6.264   4.367  0.0907  0.2235  0.0471
   75MOL   C19819586   4.814   6.259   4.316 -0.3823  0.0406 -0.0402
   75MOL   C19919587   4.920   6.191   4.396 -0.2452 -0.0720  0.1874
   75MOL   C20019588   4.916   6.343   4.390 -0.3040 -0.2533  0.7336
   75MOL   C20119589   4.610   6.125   4.384  0.1124 -0.8590  0.3449
   75MOL   H20219590   4.663   6.313   4.464  0.8088  0.0895  0.1601
   75MOL   H20319591   4.823   6.264   4.208 -0.0044 -1.4566 -0.0799
   75MOL   H20419592   4.889   6.141   4.488 -2.0443 -1.2045 -0.9801
   75MOL   H20519593   5.005   6.146   4.345  0.2043  0.5560  0.3800
   75MOL   H20619594   4.883   6.401   4.477  1.2354  0.4694  0.8389
   75MOL   H20719595   4.987   6.386   4.321  0.3631 -1.2922  0.7527
   75MOL   H20819596   4.627   6.067   4.294  3.8738 -0.2428  0.5963
   75MOL   H20919597   4.671   6.074   4.458  1.4983  0.5951  0.2203
   75MOL   C21019598   4.462   6.122   4.441 -0.4048  0.0846  0.4636
   75MOL   C21119599   4.396   5.990   4.423 -0.4076  0.0949  0.6912
   75MOL   C21219600   4.416   5.904   4.298  0.3358 -0.0831 -0.8490
   75MOL   C21319601   4.472   5.863   4.428  0.2206  0.0310 -0.6731
   75MOL   C21419602   4.454   6.171   4.585  0.0698 -0.0387 -0.3889
   75MOL   H21519603   4.399   6.184   4.377  0.4616 -0.1919 -0.6666
   75MOL   H21619604   4.294   5.986   4.460 -0.9609 -0.0645 -0.8012
   75MOL   H21719605   4.324   5.861   4.259 -0.0160  0.2779 -0.4120
   75MOL   H21819606   4.481   5.935   4.217  0.7148  1.4102  0.0112
   75MOL   H21919607   4.436   5.781   4.490 -0.8184  0.6236 -0.4738
   75MOL   H22019608   4.579   5.864   4.444 -0.1251 -1.3667  1.9385
   75MOL   H22119609   4.492   6.088   4.643 -2.5733 -0.6132  0.6023
   75MOL   H22219610   4.507   6.263   4.610  0.7876 -0.4772 -0.2925
   75MOL   C22319611   4.309   6.205   4.643  0.5735  0.3410  0.8711
   75MOL   C22419612   4.255   6.326   4.575 -0.1470  0.2037  0.6542
   75MOL   C22519613   4.182   6.323   4.439  0.8184  0.0906 -0.3476
   75MOL   C22619614   4.110   6.357   4.566 -0.4403 -0.5431  0.6726
   75MOL   C22719615   4.296   6.221   4.798 -0.0363  0.4520 -0.4382
   75MOL   H22819616   4.247   6.123   4.606 -0.1040  0.4389  1.7764
   75MOL   H22919617   4.307   6.417   4.604 -0.3741  0.2203  1.0010
   75MOL   H23019618   4.161   6.224   4.398 -0.3697  0.0935  0.2125
   75MOL   H23119619   4.201   6.402   4.368 -0.5439  1.5905  0.9068
   75MOL   H23219620   4.077   6.459   4.587 -3.1439 -0.9665 -1.1143
   75MOL   H23319621   4.038   6.280   4.592 -1.3726 -0.3364 -1.1550
   75MOL   H23419622   4.369   6.296   4.828 -1.2862  0.7771  1.8380
   75MOL   H23519623   4.199   6.260   4.828  0.1498 -0.6082  1.5923
   75MOL   C23619624   4.317   6.088   4.869 -0.7889  0.1236  0.0127
   75MOL   C23719625   4.190   6.033   4.918 -0.4843 -0.4275  0.6691
   75MOL   C23819626   4.129   5.913   4.844 -0.4265 -0.1511 -0.0722
   75MOL   C23919627   4.194   5.896   4.978  0.2921  0.0619 -0.2287
   75MOL   C24019628   4.421   6.098   4.984  0.2068  0.6426 -0.1923
   75MOL   H24119629   4.359   6.011   4.804  1.7726  0.4997  1.1561
   75MOL   H24219630   4.123   6.104   4.966 -0.1165  0.3478  0.0485
   75MOL   H24319631   4.021   5.924   4.851 -0.5761 -1.1256 -0.7312
   75MOL   H24419632   4.166   5.861   4.756 -0.8348  0.1447 -0.4159
   75MOL   H24519633   4.283   5.834   4.988  0.6815  0.3943 -1.5478
   75MOL   H24619634   4.125   5.868   5.057  2.9606 -1.8711  1.5072
   75MOL   H24719635   4.394   6.174   5.057  0.2854  1.3712 -0.9160
   75MOL   H24819636   4.427   6.007   5.045  0.0984  0.2493 -0.7636
   75MOL   C24919637   4.565   6.125   4.934 -0.4782 -0.0341 -0.6265
   75MOL   C25019638   4.647   5.999   4.912  0.0104 -0.5979 -0.3896
   75MOL   C25119639   4.622   5.892   4.809 -0.0445  0.0206  0.9168
   75MOL   C25219640   4.742   5.981   4.796 -0.1493  0.2286 -0.0860
   75MOL   C25319641   4.645   6.231   5.015  0.3241 -0.0292  0.3656
   75MOL   H25419642   4.565   6.160   4.831  1.2458 -0.3407 -0.7449
   75MOL   H25519643   4.683   5.963   5.008  1.1815  2.7316  0.4859
   75MOL   H25619644   4.656   5.790   4.820 -3.1990 -1.3626 -1.1033
   75MOL   H25719645   4.537   5.916   4.745  0.6775  1.2051  0.3760
   75MOL   H25819646   4.735   6.064   4.726 -3.7144 -0.1692 -0.3252
   75MOL   H25919647   4.838   5.944   4.830  0.2000  0.0724 -1.2338
   75MOL   H26019648   4.659   6.199   5.119 -0.9642 -1.7159  0.0584
   75MOL   H26119649   4.584   6.320   5.028  1.0791  0.4928  0.2879
   75MOL   H26219650   4.742   6.260   4.975 -0.2332 -1.0409 -1.7931
   76MOL     C119651   6.954   1.868   0.643 -0.1809  0.1533  0.7554
   76MOL     C219652   6.938   1.733   0.709 -0.2547 -0.0886 -0.1792
   76MOL     C319653   6.804   1.654   0.704 -0.4282  0.1376 -0.1213
   76MOL     C419654   6.843   1.723   0.827 -0.2552 -0.8381 -0.8722
   76MOL     C519655   6.825   1.952   0.602 -0.2875  0.8471 -0.2818
   76MOL     H619656   7.016   1.923   0.713  1.3791 -0.0746 -0.4341
   76MOL     H719657   7.028   1.671   0.707  1.7941  2.8029 -0.3093
   76MOL     H819658   6.729   1.692   0.635  0.5471  0.7791 -0.8326
   76MOL     H919659   6.809   1.545   0.705 -0.9120  0.0913  3.1503
   76MOL    H1019660   6.892   1.660   0.901 -0.7995 -0.5211 -0.2298
   76MOL    H1119661   6.785   1.808   0.863  3.5156  1.1633  0.7990
   76MOL    H1219662   6.746   1.950   0.678 -2.2186 -1.9424 -2.2455
   76MOL    H1319663   6.770   1.908   0.519 -0.5544  0.9969 -0.1842
   76MOL    H1419664   7.015   1.864   0.553 -2.4350 -0.7368 -0.7802
   76MOL    C1519665   6.859   2.094   0.548 -0.6514 -0.0566  0.0907
   76MOL    C1619666   6.722   2.145   0.502  0.6164  0.6646 -0.0950
   76MOL    C1719667   6.635   2.104   0.388 -0.3164 -0.0925  0.1614
   76MOL    C1819668   6.702   2.241   0.389  0.7019  0.9075 -0.8932
   76MOL    C1919669   6.932   2.188   0.655 -0.2337  0.4385  0.3938
   76MOL    H2019670   6.911   2.087   0.453 -1.7759 -0.4535 -0.5022
   76MOL    H2119671   6.674   2.169   0.596 -0.1299 -1.2899  0.0507
   76MOL    H2219672   6.530   2.092   0.415 -0.6129  3.9937  1.0272
   76MOL    H2319673   6.662   2.038   0.305 -0.2290  0.0475  0.0777
   76MOL    H2419674   6.770   2.259   0.307 -0.5639  0.1930 -2.1174
   76MOL    H2519675   6.650   2.332   0.420  3.0117  1.0476  2.8827
   76MOL    H2619676   7.024   2.130   0.666  0.2576  1.1977  0.3673
   76MOL    H2719677   6.882   2.180   0.751  2.6108 -0.3826  1.8816
   76MOL    C2819678   6.952   2.332   0.601  0.1507  0.0663 -0.0774
   76MOL    C2919679   7.098   2.372   0.627 -0.2652 -0.1984  0.5105
   76MOL    C3019680   7.211   2.294   0.566  0.1915 -0.1433 -0.1362
   76MOL    C3119681   7.187   2.430   0.517 -0.9885  0.4813 -0.1778
   76MOL    C3219682   6.849   2.439   0.651 -0.1946  0.4045 -0.5006
   76MOL    H3319683   6.942   2.325   0.492 -0.3333 -0.5272  0.0053
   76MOL    H3419684   7.116   2.416   0.724  0.1940  0.6950  0.0265
   76MOL    H3519685   7.191   2.205   0.508 -1.2387 -1.5651  2.4587
   76MOL    H3619686   7.305   2.279   0.619 -0.5333 -0.2160  1.1497
   76MOL    H3719687   7.155   2.422   0.414  0.7734  0.4185 -0.7275
   76MOL    H3819688   7.261   2.504   0.547 -0.5208 -0.6386  1.4839
   76MOL    H3919689   6.865   2.439   0.758 -1.7197  0.4192 -0.2616
   76MOL    H4019690   6.748   2.397   0.648 -0.2583  0.3973  1.2298
   76MOL    C4119691   6.856   2.578   0.594  0.1924  0.6324  0.7794
   76MOL    C4219692   6.780   2.680   0.687 -0.0440  0.3302  0.1950
   76MOL    C4319693   6.833   2.810   0.723  0.1796 -0.7256  0.2171
   76MOL    C4419694   6.828   2.701   0.827  0.1605  0.1528  0.2440
   76MOL    C4519695   6.797   2.583   0.450  0.4242  0.1454  0.2042
   76MOL    H4619696   6.961   2.605   0.597  0.8130 -1.5056 -1.1447
   76MOL    H4719697   6.673   2.658   0.691  0.2891 -1.0914  1.8809
   76MOL    H4819698   6.931   2.839   0.684 -0.1122 -0.7110 -0.4990
   76MOL    H4919699   6.775   2.890   0.767 -1.3648 -0.1593 -2.7710
   76MOL    H5019700   6.753   2.718   0.905 -1.4664 -1.0638 -1.0082
   76MOL    H5119701   6.911   2.636   0.854  1.1110  1.0585 -0.4746
   76MOL    H5219702   6.688   2.584   0.452  0.3576 -1.0546 -1.7930
   76MOL    H5319703   6.827   2.496   0.392  0.5481  0.0887  0.3518
   76MOL    C5419704   6.840   2.705   0.361  0.3838 -0.2040 -0.3378
   76MOL    C5519705   6.984   2.696   0.320  0.4804  0.0566  0.2924
   76MOL    C5619706   7.088   2.785   0.392 -0.0620 -0.0310 -0.3933
   76MOL    C5719707   7.051   2.816   0.249  0.3322  0.0577 -0.4860
   76MOL    C5819708   6.741   2.721   0.241 -0.0497  0.0430  0.0558
   76MOL    H5919709   6.825   2.794   0.422  0.9210  0.4872 -1.1951
   76MOL    H6019710   7.009   2.598   0.280 -0.4348 -0.0734  0.0361
   76MOL    H6119711   7.172   2.721   0.417 -0.6115 -0.6662 -0.1709
   76MOL    H6219712   7.054   2.855   0.469  2.7599  2.8695 -1.6624
   76MOL    H6319713   7.116   2.788   0.166 -0.6794 -2.0842 -0.5797
   76MOL    H6419714   6.977   2.893   0.227 -0.2837 -1.0731 -2.4772
   76MOL    H6519715   6.792   2.791   0.174 -2.2173  0.0951 -1.6004
   76MOL    H6619716   6.736   2.622   0.198  2.1726 -1.5464  3.2575
   76MOL    C6719717   6.599   2.777   0.267 -0.2914 -0.0243  0.4026
   76MOL    C6819718   6.619   2.917   0.318  0.2466  0.3770  0.0346
   76MOL    C6919719   6.499   2.983   0.372  0.4684  0.0070 -0.6425
   76MOL    C7019720   6.600   2.957   0.472 -0.3023  0.7101 -0.2294
   76MOL    C7119721   6.522   2.793   0.131  0.0088  0.2865 -0.2100
   76MOL    H7219722   6.542   2.706   0.326 -1.1114 -0.3513 -0.7620
   76MOL    H7319723   6.688   2.984   0.266 -2.1323  0.9726 -2.4693
   76MOL    H7419724   6.486   3.080   0.325  1.9465  0.9647  0.8796
   76MOL    H7519725   6.410   2.922   0.387 -0.0346  1.0334  0.7194
   76MOL    H7619726   6.613   2.875   0.542  0.7229 -0.2717 -1.5437
   76MOL    H7719727   6.660   3.044   0.496  3.6046 -1.1667 -2.6922
   76MOL    H7819728   6.562   2.883   0.084 -0.8378  1.6404  1.5739
   76MOL    H7919729   6.425   2.826   0.168 -0.0768 -0.1613 -0.0291
   76MOL    C8019730   6.500   2.673   0.038 -0.5910  0.0219 -0.1323
   76MOL    C8119731   6.431   2.722   7.751  0.0702  0.4710 -0.1635
   76MOL    C8219732   6.444   2.656   7.616 -1.0277 -0.2438 -0.2769
   76MOL    C8319733   6.507   2.787   7.635  0.1450  0.3651 -0.9043
   76MOL    C8419734   6.439   2.553   0.112 -0.3605  0.0521  0.6089
   76MOL    H8519735   6.604   2.662   0.008  0.0745  0.4957  1.8997
   76MOL    H8619736   6.329   2.759   7.768  0.3197  0.6813  0.9524
   76MOL    H8719737   6.362   2.648   7.546 -1.1384 -2.0927  0.0151
   76MOL    H8819738   6.520   2.581   7.593  0.0905  0.3482  1.3555
   76MOL    H8919739   6.615   2.777   7.647  0.0352 -0.5851 -0.6612
   76MOL    H9019740   6.465   2.884   7.611  1.4937  1.7073  1.7944
   76MOL    H9119741   6.483   2.550   0.211  1.0368  0.8131  0.0349
   76MOL    H9219742   6.333   2.577   0.121 -1.3636 -3.5036 -0.9452
   76MOL    C9319743   6.456   2.416   0.043 -0.0987 -0.0904 -0.5112
   76MOL    C9419744   6.598   2.359   0.049  0.4455  0.3037  0.4425
   76MOL    C9519745   6.646   2.247   7.803  0.1993  0.6471  0.7058
   76MOL    C9619746   6.698   2.390   7.777  0.4059  0.5574 -0.1632
   76MOL    C9719747   6.356   2.325   0.109  0.0755  0.2091  0.2510
   76MOL    H9819748   6.431   2.428   7.777 -1.1268 -0.3791 -0.3091
   76MOL    H9919749   6.637   2.377   0.149  0.9946  0.0825  0.2678
   76MOL   H10019750   6.717   2.178   0.009  1.6383  0.0114 -2.4058
   76MOL   H10119751   6.590   2.208   7.718  2.4625 -2.9443  0.7856
   76MOL   H10219752   6.799   2.405   7.814 -0.6677  1.0006  2.7102
   76MOL   H10319753   6.674   2.432   7.679 -2.0056  1.5485  0.8199
   76MOL   H10419754   6.259   2.366   0.136 -0.2640 -0.9899  0.9077
   76MOL   H10519755   6.403   2.317   0.207  0.0025  1.0300  0.3569
   76MOL   C10619756   6.323   2.183   0.047  0.0154  0.2328  0.7307
   76MOL   C10719757   6.240   2.107   0.145 -0.3632 -0.0782 -0.1198
   76MOL   C10819758   6.229   1.956   0.124 -0.4786  0.0800  0.1474
   76MOL   C10919759   6.295   2.009   0.242  0.0138 -0.0978 -0.3345
   76MOL   C11019760   6.266   2.194   7.742 -0.1170  1.3149  0.2282
   76MOL   H11119761   6.410   2.120   0.031  0.0399  0.4559 -0.0486
   76MOL   H11219762   6.137   2.138   0.162 -1.4103 -3.9218  1.0444
   76MOL   H11319763   6.139   1.897   0.143 -0.9488  0.7591  0.0569
   76MOL   H11419764   6.299   1.909   0.055  0.4671  1.2787  0.2633
   76MOL   H11519765   6.403   2.019   0.248  0.0278 -0.8181  0.7121
   76MOL   H11619766   6.244   1.992   0.336  0.4152 -2.5723 -0.5358
   76MOL   H11719767   6.356   2.213   7.684  0.4163  0.8641  0.8916
   76MOL   H11819768   6.223   2.097   7.715  0.0829  1.1600  0.4523
   76MOL   C11919769   6.169   2.305   7.701 -0.0089 -0.6551 -0.4509
   76MOL   C12019770   6.136   2.283   7.555 -0.1077 -0.1926  0.1580
   76MOL   C12119771   6.243   2.335   7.460 -0.1769  0.1217  0.1669
   76MOL   C12219772   6.104   2.401   7.454 -0.3815  0.7250 -0.0463
   76MOL   C12319773   6.038   2.306   7.777  0.0090  0.4207  0.6442
   76MOL   H12419774   6.219   2.402   7.705 -0.8920 -0.2374  1.1810
   76MOL   H12519775   6.084   2.188   7.542 -0.4547 -0.2601  1.8207
   76MOL   H12619776   6.261   2.255   7.389 -0.7408  0.2663 -0.1436
   76MOL   H12719777   6.321   2.400   7.498 -0.5148  1.7679 -1.8748
   76MOL   H12819778   6.109   2.506   7.482 -0.7567  0.6431  0.3384
   76MOL   H12919779   6.044   2.375   7.367 -0.6849  0.1763  0.3222
   76MOL   H13019780   6.010   2.201   7.782  0.3762  0.3322  0.9030
   76MOL   H13119781   6.054   2.336   0.042  0.8050  2.1632  0.0328
   76MOL   C13219782   5.926   2.401   7.729 -0.4629 -0.2766 -0.1451
   76MOL   C13319783   5.961   2.548   7.758 -0.2373 -0.9629  0.1325
   76MOL   C13419784   5.868   2.661   7.754  0.2953 -0.2414  0.1419
   76MOL   C13519785   5.976   2.652   7.656  0.1134  0.1443 -0.1450
   76MOL   C13619786   5.794   2.357   7.798  0.3557 -0.2611  0.2752
   76MOL   H13719787   5.916   2.387   7.621  0.1040  1.0367 -0.3831
   76MOL   H13819788   6.049   2.557   7.821 -0.4018  3.1588 -0.1100
   76MOL   H13919789   5.771   2.647   7.708  0.8612 -1.3686 -0.7421
   76MOL   H14019790   5.886   2.735   7.832  2.0316  0.4694 -0.8977
   76MOL   H14119791   5.948   2.633   7.552 -3.4250  3.1294  0.1867
   76MOL   H14219792   6.070   2.707   7.663  1.0029 -1.4651  0.8076
   76MOL   H14319793   5.806   2.377   0.066  0.0859  2.5566 -0.1976
   76MOL   H14419794   5.714   2.422   7.764  0.8884  1.0721  1.5207
   76MOL   C14519795   5.743   2.204   7.796  0.1497 -0.0270  0.9971
   76MOL   C14619796   5.625   2.188   0.052 -0.1235  0.1977 -0.3696
   76MOL   C14719797   5.558   2.059   0.091 -0.2912 -1.1269 -0.4134
   76MOL   C14819798   5.656   2.115   0.185  0.3374 -0.2934  0.0390
   76MOL   C14919799   5.700   2.180   7.649 -0.7784 -0.3020  0.9868
   76MOL   H15019800   5.828   2.139   7.820 -0.4024 -0.5251  1.6415
   76MOL   H15119801   5.566   2.277   0.073 -0.4766  0.1683 -1.2197
   76MOL   H15219802   5.452   2.073   0.110  0.2468  2.3815  0.3861
   76MOL   H15319803   5.588   1.970   0.036 -0.9102 -1.4692 -0.2031
   76MOL   H15419804   5.745   2.054   0.199  0.1985 -0.3758  0.5632
   76MOL   H15519805   5.610   2.145   0.279 -0.3116  1.1571 -0.7384
   76MOL   H15619806   5.622   2.252   7.628 -0.6671 -0.2477  0.7526
   76MOL   H15719807   5.781   2.219   7.587  0.1235 -0.3008  2.1389
   76MOL   C15819808   5.650   2.047   7.608  0.4560  0.8065 -0.1196
   76MOL   C15919809   5.766   1.945   7.584 -0.1599 -0.2009 -0.4556
   76MOL   C16019810   5.827   1.871   7.709 -0.1387  0.1984  0.0218
   76MOL   C16119811   5.744   1.795   7.611  0.2889  0.0712 -0.0375
   76MOL   C16219812   5.552   2.062   7.484  0.3447 -0.1341  0.3459
   76MOL   H16319813   5.589   1.999   7.684  1.2039 -0.0581 -0.0583
   76MOL   H16419814   5.822   1.951   7.491 -1.1906  1.8864 -0.9716
   76MOL   H16519815   5.789   1.880   7.810  1.2848  1.9630  0.4222
   76MOL   H16619816   5.935   1.858   7.697 -0.0511  2.3713 -1.9667
   76MOL   H16719817   5.802   1.729   7.546  2.2247  1.3198  0.3564
   76MOL   H16819818   5.648   1.751   7.636  0.3896 -0.9867 -1.4392
   76MOL   H16919819   5.615   2.053   7.395 -0.6951 -0.0833 -0.4031
   76MOL   H17019820   5.500   2.158   7.488  0.4698 -0.0060 -0.9575
   76MOL   C17119821   5.441   1.961   7.468 -0.3743 -0.3700 -0.1813
   76MOL   C17219822   5.352   1.948   7.590 -0.3398 -0.2266  0.4396
   76MOL   C17319823   5.245   1.833   7.596 -0.0002 -0.2942 -0.3905
   76MOL   C17419824   5.374   1.827   7.679 -0.4191  0.1679 -0.5177
   76MOL   C17519825   5.365   1.988   7.336  0.0628  0.1556 -0.9722
   76MOL   H17619826   5.487   1.864   7.447  0.6712  0.2003 -0.6029
   76MOL   H17719827   5.336   2.045   7.638 -0.2824  0.6573 -1.3107
   76MOL   H17819828   5.156   1.842   7.657  0.7791 -1.5117  0.9429
   76MOL   H17919829   5.233   1.784   7.500 -0.8589  0.7001 -0.7979
   76MOL   H18019830   5.453   1.755   7.659  0.8998  0.9779  1.6760
   76MOL   H18119831   5.360   1.836   7.786 -0.3050  2.1501 -0.6394
   76MOL   H18219832   5.354   2.097   7.343  1.0806  0.1140  1.7639
   76MOL   H18319833   5.269   1.939   7.347 -0.0095  0.6972  1.1267
   76MOL   C18419834   5.418   1.952   7.194  0.0077  0.8526 -0.6714
   76MOL   C18519835   5.333   2.034   7.092 -0.4888  0.2758  0.3970
   76MOL   C18619836   5.393   2.093   6.961  0.0471 -0.3793 -0.8737
   76MOL   C18719837   5.365   2.185   7.076  0.1451  0.0661 -0.1411
   76MOL   C18819838   5.408   1.797   7.170  0.2147  0.4994  1.1973
   76MOL   H18919839   5.522   1.978   7.173 -0.0888  1.1821 -0.7499
   76MOL   H19019840   5.227   2.015   7.107 -1.0853  1.9034 -1.5367
   76MOL   H19119841   5.338   2.107   6.868  1.6104 -0.4510 -1.8313
   76MOL   H19219842   5.497   2.060   6.963  0.5973  1.3484  1.5498
   76MOL   H19319843   5.292   2.265   7.077  0.3973  0.2969  1.0771
   76MOL   H19419844   5.448   2.209   7.142  0.1556 -2.2711  0.7538
   76MOL   H19519845   5.302   1.773   7.181  0.2967 -0.2381  0.4087
   76MOL   H19619846   5.456   1.754   7.257  1.6930 -0.2910  0.0120
   76MOL   C19719847   5.464   1.743   7.039 -0.0395 -0.3932 -0.2832
   76MOL   C19819848   5.362   1.648   6.982  1.1510 -0.1175 -0.3622
   76MOL   C19919849   5.335   1.627   6.826  0.1248  0.5720  0.6983
   76MOL   C20019850   5.235   1.693   6.916  0.6099 -0.1576  0.4251
   76MOL   C20119851   5.599   1.673   7.052 -0.0076 -0.1404  0.4761
   76MOL   H20219852   5.475   1.825   6.968 -1.0717  0.3766  0.4216
   76MOL   H20319853   5.347   1.559   7.043  3.1881 -0.2416 -0.0137
   76MOL   H20419854   5.391   1.693   6.760 -0.4768 -1.6961 -2.1781
   76MOL   H20519855   5.333   1.522   6.798 -0.2221  0.6976  0.2450
   76MOL   H20619856   5.208   1.795   6.887  1.1931 -0.8830 -2.8844
   76MOL   H20719857   5.146   1.633   6.935  1.4142 -0.9650  1.6959
   76MOL   H20819858   5.584   1.581   7.108  1.3325  0.3763  1.6976
   76MOL   H20919859   5.634   1.629   6.959  0.3728  0.0962  0.5084
   76MOL   C21019860   5.710   1.767   7.112 -0.1831 -0.1833  0.1673
   76MOL   C21119861   5.834   1.679   7.140 -0.0212  0.5501 -0.1338
   76MOL   C21219862   5.922   1.703   7.258 -0.7584  0.4844 -0.7088
   76MOL   C21319863   5.837   1.583   7.267 -0.0660 -0.0203 -0.1776
   76MOL   C21419864   5.747   1.874   7.016  0.7855 -0.3092  0.2978
   76MOL   H21519865   5.687   1.803   7.212 -1.7246 -2.4245  0.6455
   76MOL   H21619866   5.882   1.638   7.051  3.9325 -0.3152  2.3064
   76MOL   H21719867   6.029   1.686   7.251 -0.4489  1.2699  1.4692
   76MOL   H21819868   5.908   1.783   7.332 -0.5169 -1.6536  1.7270
   76MOL   H21919869   5.880   1.486   7.247  0.3738  0.1991 -0.3075
   76MOL   H22019870   5.740   1.583   7.317 -0.2297 -2.0433 -0.4865
   76MOL   H22119871   5.749   1.825   6.919  1.4536 -0.3555  0.3330
   76MOL   H22219872   5.668   1.948   6.998  0.6809 -0.4199  0.3057
   76MOL   C22319873   5.876   1.958   7.040 -0.0453  0.4151  0.0488
   76MOL   C22419874   5.859   2.032   7.172 -0.0619  0.5811  0.4567
   76MOL   C22519875   5.963   2.135   7.220  0.2317 -0.9578 -0.3853
   76MOL   C22619876   5.827   2.184   7.183 -0.5263  0.1340 -0.1585
   76MOL   C22719877   5.909   2.050   6.919 -0.1430 -0.1740 -0.3961
   76MOL   H22819878   5.965   1.896   7.048  0.6994  1.3336 -1.0780
   76MOL   H22919879   5.811   1.981   7.256  0.6575 -1.4556 -0.3290
   76MOL   H23019880   6.050   2.147   7.156  0.1800 -2.3777 -0.7506
   76MOL   H23119881   5.980   2.144   7.327 -2.7507  0.8474 -0.0050
   76MOL   H23219882   5.767   2.215   7.268 -0.4400 -2.0346  0.7098
   76MOL   H23319883   5.810   2.237   7.089 -0.6250 -0.7205 -0.6299
   76MOL   H23419884   5.824   2.108   6.881  1.8192  0.7599 -3.5053
   76MOL   H23519885   5.977   2.127   6.956 -0.1399 -0.1836 -0.3826
   76MOL   C23619886   5.964   1.974   6.789 -0.4876  0.2383  0.2122
   76MOL   C23719887   6.095   1.909   6.818  0.1652 -0.3017 -0.1129
   76MOL   C23819888   6.097   1.766   6.860 -0.0803 -0.4349  0.0096
   76MOL   C23919889   6.157   1.805   6.726  0.5989 -0.3095 -0.4690
   76MOL   C24019890   5.977   2.081   6.678  0.4225  0.3881 -0.5993
   76MOL   H24119891   5.898   1.898   6.749 -0.4472  0.7591 -0.8700
   76MOL   H24219892   6.157   1.971   6.883  1.2596 -0.4270 -1.0266
   76MOL   H24319893   6.152   1.751   6.952 -1.1350 -0.9642  0.5737
   76MOL   H24419894   6.004   1.710   6.851 -1.7316  2.0508  1.0336
   76MOL   H24519895   6.095   1.765   6.645 -0.4552 -1.3904  0.8561
   76MOL   H24619896   6.258   1.767   6.728  0.9476  0.6887  2.0214
   76MOL   H24719897   5.877   2.124   6.662 -0.1721  0.6599  3.4290
   76MOL   H24819898   6.041   2.161   6.713 -1.7505  1.6957  0.4997
   76MOL   C24919899   6.017   2.035   6.535 -0.7626  0.2065  0.4352
   76MOL   C25019900   6.017   2.158   6.444  0.0376  0.2397 -0.1734
   76MOL   C25119901   6.128   2.269   6.442  0.8388  0.2971  0.1152
   76MOL   C25219902   6.106   2.176   6.325  0.3443  0.4328 -0.0060
   76MOL   C25319903   5.920   1.936   6.472  0.8354 -0.1728  0.4874
   76MOL   H25419904   6.112   1.982   6.534 -0.7741  0.1844  0.5591
   76MOL   H25519905   5.919   2.204   6.433  0.6482  1.1032 -2.1700
   76MOL   H25619906   6.098   2.374   6.446 -0.8043 -0.0747 -1.8015
   76MOL   H25719907   6.215   2.256   6.507  0.3867 -0.1135  0.6401
   76MOL   H25819908   6.062   2.206   6.230  0.2507  0.5869  0.0873
   76MOL   H25919909   6.188   2.108   6.302 -1.2120 -1.3096 -0.5993
   76MOL   H26019910   5.818   1.973   6.467  0.7652 -0.6203 -2.3749
   76MOL   H26119911   5.931   1.835   6.513 -1.5201 -0.2213  1.0674
   76MOL   H26219912   5.938   1.921   6.366  4.5669  1.2521  0.8421
   77MOL     C119913   6.885   3.683   2.005  0.7393 -0.2589 -0.2210
   77MOL     C219914   6.875   3.816   2.063  0.2096 -0.2315  0.5487
   77MOL     C319915   6.875   3.946   1.977  0.2997  0.1583  0.7926
   77MOL     C419916   6.985   3.916   2.083  0.3356  0.4133 -0.6874
   77MOL     C519917   6.749   3.625   1.972  0.5447  0.0576 -0.3023
   77MOL     H619918   6.940   3.696   1.912  1.1500  0.1682  0.0817
   77MOL     H719919   6.799   3.821   2.140 -0.3454 -0.6777  0.0370
   77MOL     H819920   6.874   3.943   1.869 -1.7704  0.5775  0.7740
   77MOL     H919921   6.808   4.026   2.009  0.2441  0.5969 -0.3947
   77MOL    H1019922   6.982   3.970   2.177 -0.1129  0.8446 -0.9451
   77MOL    H1119923   7.081   3.879   2.045  0.2234  2.3184 -2.9885
   77MOL    H1219924   6.674   3.705   1.970  2.4795  1.8832 -2.1688
   77MOL    H1319925   6.735   3.537   2.035 -0.2627  0.4171  0.0316
   77MOL    H1419926   6.940   3.604   2.056  0.5888 -0.1461  0.1207
   77MOL    C1519927   6.739   3.574   1.826  0.4645 -0.3504  0.1399
   77MOL    C1619928   6.629   3.473   1.825  0.8965 -0.5988 -0.0882
   77MOL    C1719929   6.675   3.331   1.840 -0.4286  0.2851  0.3299
   77MOL    C1819930   6.610   3.367   1.712  0.0224 -1.1830 -0.2025
   77MOL    C1919931   6.703   3.687   1.725 -0.3426 -0.1164 -0.2295
   77MOL    H2019932   6.831   3.523   1.800 -0.4824 -2.5146  0.9222
   77MOL    H2119933   6.532   3.506   1.861  0.8274  0.5003 -1.2289
   77MOL    H2219934   6.613   3.275   1.910 -1.0062  0.8047  0.2320
   77MOL    H2319935   6.774   3.288   1.828 -2.0085 -3.4931 -0.0761
   77MOL    H2419936   6.682   3.349   1.632  0.0525  0.5046 -0.5817
   77MOL    H2519937   6.508   3.334   1.695 -0.6847  0.6164  0.4319
   77MOL    H2619938   6.732   3.785   1.763  2.1001 -0.8621 -0.1405
   77MOL    H2719939   6.594   3.692   1.723 -0.4849 -2.5341 -0.5005
   77MOL    C2819940   6.759   3.664   1.580 -0.2498  0.2857 -0.3503
   77MOL    C2919941   6.869   3.764   1.546  0.7375 -0.1236 -0.6654
   77MOL    C3019942   7.011   3.773   1.618 -0.3920 -0.2848  0.2401
   77MOL    C3119943   6.993   3.723   1.481 -0.0109  0.3768 -0.1056
   77MOL    C3219944   6.637   3.670   1.480 -0.1846 -0.0983  0.0667
   77MOL    H3319945   6.804   3.565   1.583 -0.3692  0.2383 -0.0835
   77MOL    H3419946   6.831   3.859   1.510  0.8930 -0.1335 -0.8598
   77MOL    H3519947   7.030   3.705   1.701 -0.0005  0.4127  0.7348
   77MOL    H3619948   7.058   3.870   1.629 -2.3493  0.4614  2.3609
   77MOL    H3719949   7.017   3.618   1.464  1.0044  0.8668 -1.8249
   77MOL    H3819950   7.020   3.788   1.398  0.6406 -0.2853 -0.4235
   77MOL    H3919951   6.600   3.772   1.489  4.0240  1.4017  1.5480
   77MOL    H4019952   6.561   3.604   1.520  0.6618 -2.1439 -1.6192
   77MOL    C4119953   6.657   3.622   1.332 -0.6550 -0.9083 -0.1040
   77MOL    C4219954   6.695   3.475   1.305  0.0931  0.1046  0.7811
   77MOL    C4319955   6.641   3.407   1.182 -0.0250 -0.0635 -0.4653
   77MOL    C4419956   6.598   3.361   1.325  0.1654  0.3063  0.5168
   77MOL    C4519957   6.759   3.722   1.261 -0.2787  0.6358 -0.5207
   77MOL    H4619958   6.558   3.634   1.288 -1.7919 -3.6844  1.5628
   77MOL    H4719959   6.791   3.449   1.350  0.3586  0.3850  0.3737
   77MOL    H4819960   6.559   3.441   1.120 -1.6977 -0.8709  1.2396
   77MOL    H4919961   6.698   3.330   1.131 -0.4991 -0.1929 -0.7973
   77MOL    H5019962   6.633   3.264   1.359  1.0134  0.0945 -0.8989
   77MOL    H5119963   6.501   3.392   1.364 -0.0892 -0.3588  0.4118
   77MOL    H5219964   6.861   3.688   1.277  0.8853  3.5091 -1.5043
   77MOL    H5319965   6.751   3.823   1.301 -1.8325  0.0224  0.7995
   77MOL    C5419966   6.741   3.728   1.102 -0.4930 -1.0888 -0.8830
   77MOL    C5519967   6.601   3.777   1.067 -0.4992 -0.3768  0.5205
   77MOL    C5619968   6.585   3.872   0.945 -0.2006 -0.2647 -0.5597
   77MOL    C5719969   6.549   3.914   1.085 -0.0019  0.1597 -0.0896
   77MOL    C5819970   6.858   3.808   1.038 -0.2154 -0.0086 -0.0792
   77MOL    H5919971   6.755   3.625   1.070  0.9974 -1.7703  1.7530
   77MOL    H6019972   6.519   3.705   1.063 -0.1919 -0.6946 -0.1432
   77MOL    H6119973   6.675   3.920   0.907  1.0570 -1.9633  0.2470
   77MOL    H6219974   6.497   3.860   0.882  0.3984 -0.5665 -1.3485
   77MOL    H6319975   6.444   3.930   1.110  0.5490  1.6469  1.4083
   77MOL    H6419976   6.611   3.990   1.133 -0.1985  0.2281  0.0554
   77MOL    H6519977   6.836   3.914   1.050 -1.3663 -0.1504 -0.8396
   77MOL    H6619978   6.944   3.794   1.104 -1.7742 -1.1842  1.7723
   77MOL    C6719979   6.911   3.776   0.892  0.0123 -0.1500  0.2280
   77MOL    C6819980   6.999   3.887   0.827 -0.0043  1.1119  0.0260
   77MOL    C6919981   6.985   3.918   0.683 -0.2398  0.5019  0.3136
   77MOL    C7019982   6.960   4.028   0.786 -0.2727 -0.7279  0.2559
   77MOL    C7119983   6.985   3.635   0.873  0.6701  0.5040  0.4542
   77MOL    H7219984   6.821   3.778   0.832  1.0088  2.7689 -1.2630
   77MOL    H7319985   7.101   3.874   0.861  0.0444 -0.5792 -0.7392
   77MOL    H7419986   7.081   3.927   0.633 -0.2394  2.8218  0.6767
   77MOL    H7519987   6.909   3.873   0.619  1.8370 -3.0360  0.1774
   77MOL    H7619988   6.860   4.068   0.771  0.0958  1.0402  2.2957
   77MOL    H7719989   7.031   4.108   0.802  1.5065 -2.3606  0.6509
   77MOL    H7819990   7.012   3.595   0.971 -2.1624 -1.9140  0.3392
   77MOL    H7919991   7.088   3.646   0.841  0.9115  1.0050  1.3888
   77MOL    C8019992   6.912   3.528   0.800 -0.1462  0.7688 -0.0602
   77MOL    C8119993   6.986   3.392   0.817  0.3952  0.3386 -0.2651
   77MOL    C8219994   6.909   3.262   0.835  1.2426 -0.1393  0.6200
   77MOL    C8319995   6.981   3.323   0.951  0.4294  0.6035  0.0963
   77MOL    C8419996   6.885   3.556   0.647 -0.3451 -0.0377  0.7865
   77MOL    H8519997   6.817   3.522   0.853 -1.2084  2.4872 -1.7098
   77MOL    H8619998   7.084   3.377   0.773  1.1722  0.4751  1.3603
   77MOL    H8719999   6.952   3.174   0.788  0.7157 -0.3514  0.5364
   77MOL    H8820000   6.801   3.255   0.827  1.3817 -1.9122  0.0382
   77MOL    H8920001   6.921   3.374   1.026  0.0993 -1.4310  1.2736
   77MOL    H9020002   7.061   3.257   0.986 -0.4424 -0.4131  0.1954
   77MOL    H9120003   6.872   3.664   0.637  0.0360 -0.2142 -2.0147
   77MOL    H9220004   6.968   3.537   0.579  0.4058 -1.5154  2.1004
   77MOL    C9320005   6.756   3.509   0.582 -0.6983  0.3203  0.5633
   77MOL    C9420006   6.636   3.588   0.629  0.0598  0.3301  0.4451
   77MOL    C9520007   6.491   3.537   0.634 -0.2209 -0.1221  0.1141
   77MOL    C9620008   6.575   3.549   0.757  0.1335  0.2398  0.5309
   77MOL    C9720009   6.766   3.533   0.432  0.6153  0.2449  0.0454
   77MOL    H9820010   6.745   3.403   0.604  0.2725  0.2796  0.8611
   77MOL    H9920011   6.634   3.691   0.595 -0.4924  0.9739  2.3678
   77MOL   H10020012   6.408   3.608   0.632  0.9625  1.2878  0.2521
   77MOL   H10120013   6.459   3.443   0.589 -0.8404 -0.3646  1.0444
   77MOL   H10220014   6.551   3.636   0.817  0.3845  1.1698 -0.6962
   77MOL   H10320015   6.623   3.459   0.795  0.3458 -0.3356 -1.0640
   77MOL   H10420016   6.780   3.639   0.410  0.4896  0.5095  1.1915
   77MOL   H10520017   6.665   3.507   0.402  0.9034 -2.2391  1.1381
   77MOL   C10620018   6.868   3.454   0.347 -0.8281  0.2698  0.1944
   77MOL   C10720019   6.858   3.303   0.343  0.8409  0.6961  0.3010
   77MOL   C10820020   6.972   3.212   0.301  0.1785  0.6920 -0.6605
   77MOL   C10920021   6.927   3.210   0.445 -0.5618 -0.5249 -0.6674
   77MOL   C11020022   6.869   3.512   0.193 -1.1931  0.5491 -0.0048
   77MOL   H11120023   6.967   3.479   0.385 -0.2050  2.1719 -2.5361
   77MOL   H11220024   6.759   3.279   0.307  0.0829  4.2551 -0.1180
   77MOL   H11320025   6.954   3.125   0.239  0.1904  0.6042 -0.5414
   77MOL   H11420026   7.070   3.253   0.277 -0.7682  3.5084  0.0700
   77MOL   H11520027   6.980   3.265   0.523  0.5677 -1.1730 -0.9717
   77MOL   H11620028   6.867   3.131   0.489 -1.0252 -0.6271 -1.4771
   77MOL   H11720029   6.924   3.435   0.138 -0.1133  1.3987 -0.1275
   77MOL   H11820030   6.767   3.497   0.158 -0.9484 -2.2581  0.3562
   77MOL   C11920031   6.918   3.652   0.164  0.2769  0.3016  0.6679
   77MOL   C12020032   7.057   3.663   0.218  0.0269 -0.4581 -0.3562
   77MOL   C12120033   7.089   3.692   0.365  0.4719 -0.2760  0.0694
   77MOL   C12220034   7.116   3.799   0.260  0.4254  0.2695  0.3041
   77MOL   C12320035   6.909   3.678   0.006 -0.3404  0.1824 -0.8199
   77MOL   H12420036   6.857   3.726   0.217  0.1217  0.4193  0.3250
   77MOL   H12520037   7.126   3.588   0.179  0.0787  0.2016 -1.5394
   77MOL   H12620038   7.172   3.648   0.420  1.5045  0.1458 -1.1243
   77MOL   H12720039   7.004   3.727   0.423  0.0761 -0.9772 -0.0914
   77MOL   H12820040   7.056   3.886   0.283  0.6055  0.3515  0.4626
   77MOL   H12920041   7.221   3.817   0.239  0.2547  1.4221  0.3910
   77MOL   H13020042   7.008   3.711   7.813 -0.6664  1.5176 -0.4614
   77MOL   H13120043   6.902   3.582   7.794  0.2486 -0.5400  0.4320
   77MOL   C13220044   6.813   3.786   7.792 -0.3475 -0.7802  0.3330
   77MOL   C13320045   6.792   3.769   7.635  0.4166  0.3238 -0.2355
   77MOL   C13420046   6.660   3.794   7.575 -0.6625  0.0512 -0.4365
   77MOL   C13520047   6.703   3.651   7.589  0.0916  0.1133 -0.7100
   77MOL   C13620048   6.867   3.924   7.831  0.6249 -0.2878 -0.0434
   77MOL   H13720049   6.722   3.782   0.012 -0.9327  0.5454 -0.4577
   77MOL   H13820050   6.878   3.774   7.568  1.0579 -2.6365  0.2504
   77MOL   H13920051   6.583   3.831   7.644 -0.0041 -0.9753  0.8706
   77MOL   H14020052   6.664   3.843   7.478 -1.2054  1.4532  0.2383
   77MOL   H14120053   6.659   3.597   7.673  2.8968 -0.8220  0.2171
   77MOL   H14220054   6.732   3.585   7.508 -1.4430 -0.2445 -0.9940
   77MOL   H14320055   6.912   3.924   0.091 -1.4170 -1.7476  0.8973
   77MOL   H14420056   6.954   3.941   7.767  0.1591  1.1262 -0.3264
   77MOL   C14520057   6.776   4.045   7.806  0.0299  0.3213 -0.4827
   77MOL   C14620058   6.690   4.070   0.092 -0.1593 -0.2155 -0.6210
   77MOL   C14720059   6.547   4.109   0.088 -0.6500 -0.4697  0.3588
   77MOL   C14820060   6.593   3.976   0.141  0.3057  0.3159 -0.5058
   77MOL   C14920061   6.862   4.167   7.772  0.4016  0.4362 -0.0881
   77MOL   H15020062   6.716   4.031   7.716  1.8251  1.2912 -1.8615
   77MOL   H15120063   6.744   4.125   0.169 -0.4877  0.3441 -0.7910
   77MOL   H15220064   6.515   4.167   0.174  3.2310  0.3400  1.3441
   77MOL   H15320065   6.477   4.086   0.008  0.3901 -1.3260 -0.3199
   77MOL   H15420066   6.561   3.890   0.083  1.2941 -0.0739 -0.4909
   77MOL   H15520067   6.580   3.961   0.248 -0.4247  3.3780 -0.1149
   77MOL   H15620068   6.916   4.214   0.015 -1.0737 -1.0680  1.7723
   77MOL   H15720069   6.927   4.140   7.689 -0.5703  1.5620 -1.2541
   77MOL   C15820070   6.784   4.287   7.713  0.1604 -0.4539  0.0060
   77MOL   C15920071   6.756   4.274   7.562  0.1139  0.6024 -0.1062
   77MOL   C16020072   6.625   4.201   7.516  0.0973 -0.4531  0.2649
   77MOL   C16120073   6.647   4.353   7.489 -0.4644 -0.0614 -1.0584
   77MOL   C16220074   6.855   4.422   7.741  0.5721 -1.1505 -0.4817
   77MOL   H16320075   6.688   4.287   7.765 -0.4495 -0.8059 -1.1053
   77MOL   H16420076   6.843   4.260   7.500  1.8398 -1.4743  2.6526
   77MOL   H16520077   6.555   4.166   7.592 -0.1331 -1.4355 -0.3988
   77MOL   H16620078   6.617   4.149   7.422  0.4033 -1.9528  1.0509
   77MOL   H16720079   6.666   4.384   7.387  0.7963 -0.4255 -0.9403
   77MOL   H16820080   6.579   4.418   7.544  0.6051  0.7929 -0.7198
   77MOL   H16920081   6.800   4.503   7.693  0.6613 -1.7009 -1.5034
   77MOL   H17020082   6.957   4.413   7.704  0.9877 -1.4414  0.6950
   77MOL   C17120083   6.860   4.480   0.049 -0.1156 -0.5412 -0.0831
   77MOL   C17220084   6.972   4.586   0.063  0.1447 -0.2034 -0.4141
   77MOL   C17320085   7.056   4.601   0.183 -0.0127 -0.0666  0.7372
   77MOL   C17420086   7.115   4.543   0.063 -0.7283  0.0624  1.1376
   77MOL   C17520087   6.725   4.542   0.080  0.2792 -0.4805  0.8685
   77MOL   H17620088   6.870   4.396   0.118 -0.9931  0.4530  1.2830
   77MOL   H17720089   6.937   4.672   0.006  0.7569  0.4652  0.2108
   77MOL   H17820090   7.110   4.692   0.210  1.4515  0.3917 -3.3492
   77MOL   H17920091   7.013   4.551   0.270  0.0636 -1.8278 -0.2161
   77MOL   H18020092   7.129   4.437   0.043 -0.4123  0.2698  0.2460
   77MOL   H18120093   7.165   4.606   7.829 -1.8515  0.0197  0.3250
   77MOL   H18220094   6.659   4.457   0.063 -1.5048  0.3778  3.1925
   77MOL   H18320095   6.697   4.616   0.005  0.0898 -0.2252  1.1835
   77MOL   C18420096   6.701   4.586   0.231 -0.0278  0.3520 -0.3430
   77MOL   C18520097   6.643   4.470   0.307  0.6247  0.1949  1.3317
   77MOL   C18620098   6.673   4.461   0.451  0.3479 -0.0329 -0.0014
   77MOL   C18720099   6.711   4.347   0.359  0.2893 -0.5995 -0.0245
   77MOL   C18820100   6.606   4.710   0.232 -0.2457  0.0489  0.1636
   77MOL   H18920101   6.799   4.612   0.269  0.8688 -0.3582 -2.1224
   77MOL   H19020102   6.536   4.464   0.289  0.7062  1.3106  0.4389
   77MOL   H19120103   6.590   4.436   0.517  0.9733  1.2697  1.2829
   77MOL   H19220104   6.743   4.532   0.493  1.4834  0.1173 -2.0746
   77MOL   H19320105   6.658   4.253   0.373  2.4326 -1.9355 -0.6570
   77MOL   H19420106   6.819   4.340   0.348  0.2842 -1.1453  0.2109
   77MOL   H19520107   6.512   4.680   0.184  0.1012 -0.5661 -0.1392
   77MOL   H19620108   6.656   4.784   0.171  0.0349 -1.9845 -2.1671
   77MOL   C19720109   6.575   4.786   0.367 -0.6116  0.4946 -0.4692
   77MOL   C19820110   6.476   4.898   0.350  0.3549  0.2697 -0.1768
   77MOL   C19920111   6.332   4.889   0.301  0.2977  0.0115  0.5040
   77MOL   C20020112   6.440   4.950   0.213 -0.6763 -0.7745  0.2986
   77MOL   C20120113   6.711   4.853   0.410 -0.4329  0.0567  0.2587
   77MOL   H20220114   6.539   4.712   0.437 -0.3742  0.7606 -0.0628
   77MOL   H20320115   6.483   4.983   0.418  0.9492  1.0551 -1.2068
   77MOL   H20420116   6.288   4.795   0.267  0.3009  0.6593 -1.3542
   77MOL   H20520117   6.258   4.958   0.340 -0.4124 -2.0303  2.8852
   77MOL   H20620118   6.470   4.902   0.120 -1.1054 -2.7706  1.1756
   77MOL   H20720119   6.429   5.058   0.206 -1.0307 -0.6875  1.9715
   77MOL   H20820120   6.790   4.802   0.356 -0.1468 -0.2550  0.9608
   77MOL   H20920121   6.716   4.958   0.382 -1.6948 -0.6255 -2.6643
   77MOL   C21020122   6.737   4.848   0.565 -0.6871 -0.0388 -0.0725
   77MOL   C21120123   6.869   4.918   0.601  0.4715  1.0233  0.2848
   77MOL   C21220124   6.948   4.862   0.716 -0.4240  0.1408 -0.2963
   77MOL   C21320125   6.996   4.848   0.573  0.1378 -0.2307  0.2039
   77MOL   C21420126   6.619   4.911   0.652  0.0485  0.0386 -0.2086
   77MOL   H21520127   6.746   4.743   0.594 -1.1106 -0.1787 -0.4397
   77MOL   H21620128   6.872   5.027   0.590  1.7038  1.0550  0.8736
   77MOL   H21720129   6.989   4.934   0.787  0.5196 -0.6623 -0.0098
   77MOL   H21820130   6.887   4.785   0.764 -1.2779  0.9137 -0.1144
   77MOL   H21920131   7.076   4.913   0.539  0.8949 -0.1847  2.0223
   77MOL   H22020132   6.993   4.751   0.525  2.5232 -0.3480  0.2361
   77MOL   H22120133   6.588   5.002   0.602 -0.6299 -0.2496 -0.3168
   77MOL   H22220134   6.529   4.849   0.649 -1.2747  1.7385  2.7125
   77MOL   C22320135   6.634   4.930   0.806  0.1027 -0.6179 -1.2007
   77MOL   C22420136   6.657   4.805   0.885 -0.2846  0.6470 -0.5677
   77MOL   C22520137   6.545   4.713   0.936  0.0336  0.2567 -1.0694
   77MOL   C22620138   6.628   4.667   0.832 -0.1502  0.4678  0.5367
   77MOL   C22720139   6.519   5.009   0.877 -0.1863 -0.1675 -0.2573
   77MOL   H22820140   6.724   4.991   0.815  2.3374 -3.3804 -3.9666
   77MOL   H22920141   6.729   4.805   0.967  0.9571 -2.0849 -1.5762
   77MOL   H23020142   6.438   4.728   0.923 -0.7056 -1.5313  2.2067
   77MOL   H23120143   6.562   4.674   1.037  1.3470  0.5639 -1.1587
   77MOL   H23220144   6.699   4.589   0.859 -0.4905 -0.5670 -1.4627
   77MOL   H23320145   6.585   4.655   0.733 -0.1613  0.2185  0.5702
   77MOL   H23420146   6.432   4.944   0.890 -0.3636 -0.3285 -2.0529
   77MOL   H23520147   6.538   5.037   0.980  0.8153  2.3542 -1.1017
   77MOL   C23620148   6.482   5.143   0.810  0.4200  0.0688 -0.0123
   77MOL   C23720149   6.601   5.238   0.829  0.0647 -0.0958 -0.5669
   77MOL   C23820150   6.692   5.253   0.715  0.4507 -0.0200  0.3141
   77MOL   C23920151   6.607   5.371   0.750  0.4157  0.5048 -0.4715
   77MOL   C24020152   6.348   5.208   0.862  0.4878 -0.2050 -0.2443
   77MOL   H24120153   6.466   5.135   0.702  0.4351 -0.3202  0.0146
   77MOL   H24220154   6.639   5.250   0.931  0.1993 -3.8682 -0.1197
   77MOL   H24320155   6.797   5.272   0.739  1.1779  0.8733 -3.2804
   77MOL   H24420156   6.677   5.199   0.622  0.3653 -2.4044  1.6537
   77MOL   H24520157   6.525   5.387   0.681  0.8596  1.5122 -0.7658
   77MOL   H24620158   6.636   5.449   0.821  0.8658  1.4806 -1.7144
   77MOL   H24720159   6.362   5.215   0.970 -2.4727  1.3008  0.0848
   77MOL   H24820160   6.328   5.311   0.835  1.6933  0.2357  0.5273
   77MOL   C24920161   6.214   5.126   0.837 -0.3658 -0.7287 -0.2943
   77MOL   C25020162   6.205   5.063   0.692  1.1052 -0.3698 -1.0385
   77MOL   C25120163   6.081   5.063   0.610  0.2350 -0.3079  0.5070
   77MOL   C25220164   6.190   5.155   0.565  0.3532  0.1150  0.5523
   77MOL   C25320165   6.099   5.220   0.881 -0.2820  0.2571  0.3734
   77MOL   H25420166   6.214   5.042   0.906  0.5982 -1.1718 -0.8240
   77MOL   H25520167   6.274   4.980   0.677 -0.1321 -1.5516 -0.2566
   77MOL   H25620168   6.074   4.977   0.544  2.9334  0.1028 -0.3907
   77MOL   H25720169   5.984   5.104   0.639  0.8096  1.6472 -0.1906
   77MOL   H25820170   6.248   5.125   0.478  0.5968 -3.4682  1.8613
   77MOL   H25920171   6.191   5.258   0.598  3.5146 -0.0940  1.2421
   77MOL   H26020172   6.002   5.176   0.860  0.1017  0.8055 -2.7578
   77MOL   H26120173   6.095   5.312   0.822  0.6007 -0.3603 -0.6562
   77MOL   H26220174   6.106   5.262   0.982 -1.0865  0.0809  0.5064
   78MOL     C120175   0.339   4.595   1.679  0.2677  0.8551  0.3324
   78MOL     C220176   0.409   4.570   1.550  0.6117  1.1504  0.3205
   78MOL     C320177   0.442   4.426   1.496  0.2702  0.0646 -0.4906
   78MOL     C420178   0.549   4.519   1.561 -0.3364  0.6343 -0.3604
   78MOL     C520179   0.360   4.736   1.742 -0.2338  0.1654  0.0321
   78MOL     H620180   0.236   4.561   1.666  0.2822  0.9092  0.0825
   78MOL     H720181   0.392   4.642   1.470 -0.1190 -1.2042 -1.7145
   78MOL     H820182   0.434   4.339   1.560  1.2208  0.1806 -0.2093
   78MOL     H920183   0.446   4.419   1.387 -0.1201  0.2109 -0.5134
   78MOL    H1020184   0.623   4.549   1.487  0.7249 -0.1574  0.3594
   78MOL    H1120185   0.593   4.501   1.659  0.5974  1.7977 -0.5645
   78MOL    H1220186   0.321   4.814   1.676  1.0918 -0.8695 -2.0325
   78MOL    H1320187   0.467   4.751   1.746 -0.0777 -0.0291 -2.3632
   78MOL    H1420188   0.381   4.518   1.743 -0.0536 -0.8974 -1.5249
   78MOL    C1520189   0.288   4.750   1.879 -0.1779 -0.3583  1.0218
   78MOL    C1620190   0.133   4.747   1.856 -0.0086  0.0050  0.2145
   78MOL    C1720191   0.068   4.877   1.820  0.2244 -0.1786 -0.0531
   78MOL    C1820192   0.029   4.812   1.947  0.4861  0.0625 -0.1226
   78MOL    C1920193   0.340   4.640   1.980 -0.0215 -0.5755 -0.4504
   78MOL    H2020194   0.320   4.849   1.910 -0.4303  0.5016 -1.3982
   78MOL    H2120195   0.097   4.656   1.810 -0.8112 -0.2836  1.3752
   78MOL    H2220196   0.002   4.872   1.734 -1.3895  1.3723  1.0660
   78MOL    H2320197   0.136   4.961   1.832  0.3211 -0.4449  1.4008
   78MOL    H2420198   0.066   4.861   2.038 -0.2982  1.6293 -0.6314
   78MOL    H2520199   7.763   4.785   1.954  0.7288 -0.5466  1.4526
   78MOL    H2620200   0.449   4.641   1.983 -0.0134 -0.2644 -0.8109
   78MOL    H2720201   0.311   4.538   1.954  0.0029 -0.7458  0.1906
   78MOL    C2820202   0.286   4.671   2.121 -0.6538 -0.7237  0.1834
   78MOL    C2920203   0.359   4.798   2.176 -0.0929 -0.3562 -0.2697
   78MOL    C3020204   0.321   4.940   2.144  0.2087 -0.0263 -0.1947
   78MOL    C3120205   0.291   4.879   2.283 -0.1217 -0.7968 -0.1839
   78MOL    C3220206   0.310   4.561   2.226 -0.4824 -0.0441 -0.4635
   78MOL    H3320207   0.180   4.693   2.128 -0.9390 -1.8871 -0.4822
   78MOL    H3420208   0.465   4.783   2.192 -0.0997  1.7819  2.1170
   78MOL    H3520209   0.239   4.961   2.075  0.3986  2.0353  0.1744
   78MOL    H3620210   0.408   5.004   2.129  0.0708  0.1184 -0.3778
   78MOL    H3720211   0.183   4.874   2.289 -0.1167  0.3465  0.9569
   78MOL    H3820212   0.349   4.909   2.370  0.0843 -1.4401 -0.0971
   78MOL    H3920213   0.290   4.592   2.329  2.5752 -0.5644  0.3214
   78MOL    H4020214   0.417   4.549   2.240 -0.4688  0.2498 -0.3065
   78MOL    C4120215   0.236   4.428   2.217  0.3989  0.6626 -0.5399
   78MOL    C4220216   0.087   4.453   2.222  0.3954 -0.4617  0.2307
   78MOL    C4320217   7.830   4.347   2.176 -0.0277  0.3019  0.2016
   78MOL    C4420218   0.015   4.465   2.088  0.3870  0.8567  0.2288
   78MOL    C4520219   0.274   4.341   2.337 -0.3546  0.5124 -0.2098
   78MOL    H4620220   0.267   4.380   2.124  1.3676 -1.3106  0.7490
   78MOL    H4720221   0.060   4.508   2.312 -0.8214 -0.3953 -0.1592
   78MOL    H4820222   0.028   4.252   2.139 -1.6481 -1.0874  2.0498
   78MOL    H4920223   7.735   4.333   2.226 -0.7394 -0.7386 -1.4057
   78MOL    H5020224   7.762   4.519   2.067 -0.2989  0.7175  2.6819
   78MOL    H5120225   0.075   4.458   1.998  1.7873 -2.9899  1.3587
   78MOL    H5220226   0.202   4.260   2.350  0.1776  0.1985  0.7873
   78MOL    H5320227   0.272   4.399   2.429 -0.6655 -1.2810  0.9431
   78MOL    C5420228   0.414   4.266   2.312  0.2998  0.4528  0.6161
   78MOL    C5520229   0.464   4.229   2.443 -0.6655 -0.0243  0.0864
   78MOL    C5620230   0.521   4.326   2.536 -0.0675 -0.0910  0.0395
   78MOL    C5720231   0.610   4.216   2.471 -0.3267 -0.8172 -0.2812
   78MOL    C5820232   0.406   4.142   2.225 -0.5293  0.6601  0.3780
   78MOL    H5920233   0.481   4.341   2.270 -1.0635  0.0501 -2.4817
   78MOL    H6020234   0.420   4.139   2.485 -0.3869  0.0544  0.5543
   78MOL    H6120235   0.544   4.428   2.505  0.9667  0.4981  2.5780
   78MOL    H6220236   0.493   4.321   2.641 -0.1488  0.2856  0.0371
   78MOL    H6320237   0.649   4.137   2.536  3.3701  1.1631  0.0210
   78MOL    H6420238   0.679   4.248   2.394  1.8464  0.0403  1.9505
   78MOL    H6520239   0.497   4.091   2.257 -0.5438 -1.1066 -2.2351
   78MOL    H6620240   0.326   4.077   2.262 -0.7465  0.2573 -0.7969
   78MOL    C6720241   0.397   4.141   2.069  0.0991  0.3962  0.5443
   78MOL    C6820242   0.524   4.191   2.006 -0.6331  0.3800  0.2454
   78MOL    C6920243   0.507   4.287   1.887  0.6776  0.2422  0.1939
   78MOL    C7020244   0.579   4.331   2.011  0.2221 -0.1372 -0.0985
   78MOL    C7120245   0.350   4.002   2.020 -0.2037 -0.7132 -0.0562
   78MOL    H7220246   0.319   4.213   2.044  0.7197  0.7080 -0.5032
   78MOL    H7320247   0.592   4.109   1.984 -1.9172 -0.9984  1.3326
   78MOL    H7420248   0.562   4.252   1.800  1.3381  0.0561  0.6813
   78MOL    H7520249   0.409   4.332   1.867 -0.7046 -2.1217  1.3755
   78MOL    H7620250   0.534   4.409   2.071 -3.6772 -2.5959  0.3443
   78MOL    H7720251   0.687   4.333   2.016  0.0880  0.9511  2.7639
   78MOL    H7820252   0.252   3.970   2.055 -1.3637  0.1894 -2.4081
   78MOL    H7920253   0.411   3.920   2.058 -0.6007 -0.4170  1.2456
   78MOL    C8020254   0.326   4.000   1.864  0.2151 -0.3136  0.3203
   78MOL    C8120255   0.183   4.044   1.818 -0.1577  0.9589 -0.4012
   78MOL    C8220256   0.147   4.147   1.707 -0.2881  0.5756 -0.3654
   78MOL    C8320257   0.116   4.178   1.851 -0.6757  0.5513  0.7250
   78MOL    C8420258   0.360   3.864   1.816 -0.6643 -0.2838  0.4741
   78MOL    H8520259   0.389   4.076   1.820 -0.7313  0.5372  0.4080
   78MOL    H8620260   0.115   3.961   1.834 -0.3893  0.8502 -1.8203
   78MOL    H8720261   0.059   4.124   1.647 -0.3052 -0.9150  0.1960
   78MOL    H8820262   0.219   4.214   1.662  1.4305  0.2182  1.7523
   78MOL    H8920263   0.170   4.269   1.878  0.2647  0.0608  0.5174
   78MOL    H9020264   0.014   4.174   1.886 -0.9927 -1.4891 -0.3585
   78MOL    H9120265   0.449   3.825   1.866  0.8997  0.6444 -1.5329
   78MOL    H9220266   0.285   3.795   1.854 -0.6960 -0.5805 -0.1253
   78MOL    C9320267   0.364   3.856   1.660 -0.6414 -0.7344 -0.4169
   78MOL    C9420268   0.507   3.872   1.610 -0.2345  0.5052  0.0395
   78MOL    C9520269   0.540   3.938   1.477 -0.4276 -0.3406  0.2498
   78MOL    C9620270   0.571   4.012   1.604  0.7875  0.0836 -0.2284
   78MOL    C9720271   0.309   3.728   1.609  0.3946 -0.4783  0.0547
   78MOL    H9820272   0.300   3.933   1.616 -0.4895 -1.1129 -1.3069
   78MOL    H9920273   0.575   3.792   1.637 -1.3181 -0.7145 -0.7699
   78MOL   H10020274   0.620   3.894   1.418 -1.5294 -1.8052 -0.1802
   78MOL   H10120275   0.449   3.958   1.421  0.9815  1.3066 -1.5466
   78MOL   H10220276   0.672   4.017   1.643  0.2355  0.1359  1.2029
   78MOL   H10320277   0.508   4.095   1.636 -1.5258 -2.0014  0.7799
   78MOL   H10420278   0.351   3.641   1.660 -2.0681 -1.4254  0.5368
   78MOL   H10520279   0.349   3.705   1.511  0.7971  3.8562 -0.9111
   78MOL   C10620280   0.159   3.726   1.602 -0.2383  0.0153  0.4701
   78MOL   C10720281   0.116   3.718   1.459  0.2407  0.5520 -1.0317
   78MOL   C10820282   7.824   3.770   1.416 -0.5407  0.0927  0.2941
   78MOL   C10920283   0.114   3.845   1.376  0.5394  0.3356  0.1572
   78MOL   C11020284   0.108   3.616   1.696  0.1171  0.0346  0.7219
   78MOL   H11120285   0.114   3.818   1.638 -1.4244  0.5684 -2.3281
   78MOL   H11220286   0.153   3.632   1.404  0.2197 -1.3273  1.7702
   78MOL   H11320287   7.777   3.708   1.341  1.0222 -0.9274  0.1308
   78MOL   H11420288   7.756   3.808   1.492 -1.7837 -0.2394 -0.6344
   78MOL   H11520289   0.137   3.936   1.430 -3.2408  0.2907  2.0264
   78MOL   H11620290   0.145   3.827   1.274 -1.1294  1.9712 -0.6664
   78MOL   H11720291   0.134   3.526   1.640  1.0002  1.9368 -2.0236
   78MOL   H11820292   0.163   3.612   1.791  0.8868  2.8409  0.4338
   78MOL   C11920293   7.796   3.613   1.724 -0.0062 -0.2302 -0.3380
   78MOL   C12020294   7.775   3.485   1.804  0.7942  0.1429 -0.2529
   78MOL   C12120295   7.759   3.349   1.741 -0.0827  0.4803 -0.6414
   78MOL   C12220296   7.641   3.425   1.788 -0.3859  0.5407 -0.0544
   78MOL   C12320297   7.750   3.731   1.818  0.3768 -0.7918 -0.6405
   78MOL   H12420298   7.754   3.613   1.624  1.3932  2.0167 -0.9588
   78MOL   H12520299   7.800   3.498   1.909  2.4227  0.2743 -0.6426
   78MOL   H12620300   7.803   3.266   1.794  0.4973  0.1570 -1.6211
   78MOL   H12720301   7.783   3.352   1.635  1.0659  2.4709 -0.3472
   78MOL   H12820302   7.572   3.466   1.715  0.0698  0.0352 -0.7762
   78MOL   H12920303   7.585   3.387   1.874 -2.3877  1.7028 -0.8071
   78MOL   H13020304   7.804   3.722   1.913  0.0677 -2.0673 -0.5857
   78MOL   H13120305   7.781   3.827   1.776 -0.2979  0.5203  1.6958
   78MOL   C13220306   7.595   3.738   1.838  0.1185 -0.0278  0.5304
   78MOL   C13320307   7.515   3.760   1.702 -0.6506  0.1800 -0.6425
   78MOL   C13420308   7.517   3.895   1.630 -0.3675 -0.2275  0.0370
   78MOL   C13520309   7.385   3.844   1.685 -1.0054 -0.7522  0.8446
   78MOL   C13620310   7.544   3.844   1.949 -0.1767  0.3209 -0.1960
   78MOL   H13720311   7.562   3.640   1.874  0.4689 -0.0338  0.8353
   78MOL   H13820312   7.526   3.679   1.631 -2.2386 -2.0609  1.5768
   78MOL   H13920313   7.565   3.974   1.687  1.7049 -1.8446  0.6339
   78MOL   H14020314   7.531   3.907   1.523  1.8523 -1.3086  0.1575
   78MOL   H14120315   7.348   3.929   1.741 -0.6430  0.3501 -0.5748
   78MOL   H14220316   7.335   3.820   1.592  0.7237 -0.6194 -0.1391
   78MOL   H14320317   7.555   3.947   1.918  0.5916 -0.3107 -2.0989
   78MOL   H14420318   7.442   3.823   1.980  0.8269  0.4547  3.4243
   78MOL   C14520319   7.623   3.831   2.089 -0.0107  0.4891 -0.2986
   78MOL   C14620320   7.581   3.943   2.188 -0.5074  0.2341  0.5053
   78MOL   C14720321   7.668   4.031   2.274 -0.0578  0.2084  0.3946
   78MOL   C14820322   7.610   4.090   2.150  0.3919  0.4347  0.0191
   78MOL   C14920323   7.585   3.695   2.156 -0.8542 -0.0140  1.0888
   78MOL   H15020324   7.731   3.831   2.076  0.4038 -0.5518  2.8530
   78MOL   H15120325   7.484   3.917   2.230 -0.4482  1.7443  1.5896
   78MOL   H15220326   7.626   4.069   2.367 -2.5944  0.4083 -0.7842
   78MOL   H15320327   7.776   4.038   2.267 -0.0400 -0.8492 -0.5744
   78MOL   H15420328   7.666   4.113   2.060  0.6326  0.6772  0.2333
   78MOL   H15520329   7.549   4.173   2.186 -0.9360  0.4093 -2.1076
   78MOL   H15620330   7.485   3.697   2.199 -1.3421 -0.2532 -0.0309
   78MOL   H15720331   7.590   3.618   2.080 -2.3021  1.5070 -0.6035
   78MOL   C15820332   7.675   3.648   2.280 -0.6228  0.1838  0.2898
   78MOL   C15920333   7.821   3.639   2.241 -0.1787 -0.2160 -0.1441
   78MOL   C16020334   0.080   3.746   2.239 -0.3279  0.2882 -1.0201
   78MOL   C16120335   0.102   3.630   2.336 -0.2217 -0.3294  0.2927
   78MOL   C16220336   7.625   3.509   2.336 -0.0169 -0.8654  0.6259
   78MOL   H16320337   7.662   3.726   2.355  1.1508  0.9009 -0.1215
   78MOL   H16420338   7.818   3.572   2.155 -1.2449  0.3794 -0.5852
   78MOL   H16520339   0.035   3.839   2.276 -1.6119 -0.2161 -1.2800
   78MOL   H16620340   0.134   3.766   2.147  1.0996  0.2288 -0.2166
   78MOL   H16720341   0.192   3.571   2.318 -2.5987 -3.4421 -2.1146
   78MOL   H16820342   0.079   3.648   2.441  0.5596 -0.4870  0.4993
   78MOL   H16920343   7.699   3.476   2.409  0.5003  0.5529  0.7629
   78MOL   H17020344   7.635   3.437   2.255 -0.2450  0.4093 -0.5527
   78MOL   C17120345   7.480   3.488   2.388 -0.4054  0.4560 -0.5698
   78MOL   C17220346   7.481   3.346   2.433  0.1582 -0.1665 -0.3811
   78MOL   C17320347   7.361   3.252   2.428 -0.1807  0.2949 -0.4585
   78MOL   C17420348   7.482   3.239   2.339 -0.0511  0.4581  0.3081
   78MOL   C17520349   7.445   3.586   2.502 -0.6632 -0.0531 -0.0006
   78MOL   H17620350   7.419   3.505   2.299 -0.1964  0.0164 -0.7944
   78MOL   H17720351   7.546   3.323   2.518  2.1800  0.9785 -1.5917
   78MOL   H17820352   7.360   3.185   2.513 -1.3533  0.8506 -0.0249
   78MOL   H17920353   7.271   3.301   2.392  0.3531  2.3362  0.8710
   78MOL   H18020354   7.472   3.273   2.236 -3.3609 -1.3451 -0.0434
   78MOL   H18120355   7.560   3.163   2.348 -0.7419 -0.3684 -0.5578
   78MOL   H18220356   7.485   3.686   2.484  0.5187 -0.7722 -1.5688
   78MOL   H18320357   7.514   3.559   2.581 -2.4778  2.4341  2.5245
   78MOL   C18420358   7.294   3.596   2.529 -0.0209  0.2245 -0.0292
   78MOL   C18520359   7.219   3.636   2.400 -0.4484 -0.1164  0.6293
   78MOL   C18620360   7.233   3.772   2.333  0.7024  0.2794 -0.7493
   78MOL   C18720361   7.105   3.729   2.399  0.9086 -0.6252 -0.0447
   78MOL   C18820362   7.267   3.695   2.653  0.1878  0.0876  0.4767
   78MOL   H18920363   7.259   3.496   2.556 -2.8554  0.6289 -1.9443
   78MOL   H19020364   7.196   3.547   2.342  0.6195 -0.4226  0.6683
   78MOL   H19120365   7.231   3.756   2.225  1.3464  0.1088 -0.7408
   78MOL   H19220366   7.308   3.829   2.388  0.2932  0.0218  0.0872
   78MOL   H19320367   7.022   3.700   2.336 -0.0303 -1.0108  1.3409
   78MOL   H19420368   7.070   3.779   2.490  1.1284  4.1363 -2.4131
   78MOL   H19520369   7.160   3.701   2.670 -0.1333 -1.7599 -0.7273
   78MOL   H19620370   7.309   3.793   2.631 -3.1837  0.8498 -3.0787
   78MOL   C19720371   7.337   3.650   2.787 -0.1966 -0.4905  0.4696
   78MOL   C19820372   7.293   3.506   2.832 -0.2340 -0.4672 -0.3913
   78MOL   C19920373   7.360   3.412   2.934 -0.5479 -0.0033  0.6022
   78MOL   C20020374   7.372   3.389   2.783 -0.4578  0.0920 -0.5926
   78MOL   C20120375   7.318   3.753   2.907 -0.2012 -0.0887 -0.3413
   78MOL   H20220376   7.444   3.644   2.764 -0.5125 -1.6311 -0.7958
   78MOL   H20320377   7.185   3.491   2.825  0.0257 -2.3169 -0.8082
   78MOL   H20420378   7.443   3.449   2.993 -0.6280 -0.9847  1.3382
   78MOL   H20520379   7.317   3.322   2.978  0.1107 -0.9248 -0.6130
   78MOL   H20620380   7.471   3.407   2.742  0.6532  0.6353  2.2329
   78MOL   H20720381   7.306   3.321   2.730  1.9889 -1.1657 -2.0959
   78MOL   H20820382   7.294   3.854   2.872  1.2210  0.1138 -0.7338
   78MOL   H20920383   7.236   3.712   2.966  0.6777 -0.9357  0.3087
   78MOL   C21020384   7.437   3.766   3.001  0.8967  0.6189 -0.4514
   78MOL   C21120385   7.554   3.837   2.936 -0.3836  0.2075  0.0959
   78MOL   C21220386   7.691   3.827   3.000  0.1692  1.1041  0.5071
   78MOL   C21320387   7.663   3.753   2.869 -0.5420 -0.0643 -0.1517
   78MOL   C21420388   7.405   3.834   3.142 -0.2533  0.9580 -0.2827
   78MOL   H21520389   7.472   3.665   3.022 -0.1076 -0.6361 -4.4528
   78MOL   H21620390   7.544   3.934   2.889 -0.1498 -0.1961 -0.7893
   78MOL   H21720391   7.732   3.928   3.008 -0.3271  1.2688  1.0875
   78MOL   H21820392   7.698   3.766   3.089  1.6813 -2.0682 -1.7154
   78MOL   H21920393   7.695   3.795   2.773  1.5666  1.4537  1.1752
   78MOL   H22020394   7.659   3.645   2.868  1.4275 -0.1665  1.0214
   78MOL   H22120395   7.501   3.850   3.191 -0.1234 -2.0138  0.5149
   78MOL   H22220396   7.377   3.938   3.123 -1.8573  0.6209  0.1389
   78MOL   C22320397   7.298   3.767   3.227 -0.1306 -0.5773 -0.3340
   78MOL   C22420398   7.245   3.863   3.327 -0.4208  0.4037 -0.0215
   78MOL   C22520399   7.150   3.974   3.298  0.1363 -0.2348  0.5925
   78MOL   C22620400   7.101   3.842   3.361  0.9360  0.2684 -0.2719
   78MOL   C22720401   7.350   3.636   3.294 -0.3133  0.4054 -0.2861
   78MOL   H22820402   7.223   3.733   3.156 -2.2189 -1.5677  2.2702
   78MOL   H22920403   7.312   3.885   3.410  0.4216 -1.0244 -0.3006
   78MOL   H23020404   7.129   3.989   3.192 -0.2046 -0.8650  0.5644
   78MOL   H23120405   7.142   4.063   3.359  0.8157 -0.0771  0.4446
   78MOL   H23220406   7.071   3.841   3.465  2.4950 -0.4652  0.1742
   78MOL   H23320407   7.027   3.798   3.293  0.6408  0.3947 -0.0337
   78MOL   H23420408   7.409   3.583   3.220  0.3523  0.9887 -0.1852
   78MOL   H23520409   7.425   3.664   3.368  0.5248 -0.2191 -0.8941
   78MOL   C23620410   7.249   3.532   3.352 -0.2644  0.2811 -0.3713
   78MOL   C23720411   7.308   3.441   3.455 -0.1132 -0.3246  0.1204
   78MOL   C23820412   7.376   3.483   3.587 -0.5741  0.0170  0.0002
   78MOL   C23920413   7.245   3.417   3.594  0.6794 -0.1595  0.7255
   78MOL   C24020414   7.200   3.439   3.241  0.3540 -0.7173  0.1056
   78MOL   H24120415   7.162   3.581   3.396 -0.6325  0.2422 -1.0567
   78MOL   H24220416   7.371   3.367   3.406 -1.1536 -0.1254 -1.5745
   78MOL   H24320417   7.464   3.431   3.625  0.6431  1.3715 -0.8575
   78MOL   H24420418   7.383   3.585   3.624 -2.2402 -0.9823  3.2162
   78MOL   H24520419   7.176   3.496   3.626  1.0572  0.8238 -0.8384
   78MOL   H24620420   7.240   3.323   3.649 -1.6038 -1.0527 -0.9651
   78MOL   H24720421   7.177   3.489   3.147  1.3867 -0.7652 -0.1747
   78MOL   H24820422   7.282   3.382   3.198  0.5752 -0.5194  0.2693
   78MOL   C24920423   7.071   3.350   3.271  0.3268 -0.6711  0.2243
   78MOL   C25020424   7.058   3.242   3.165 -0.5496 -0.2523 -0.5083
   78MOL   C25120425   7.143   3.112   3.166 -0.9479  0.5111 -0.2357
   78MOL   C25220426   6.994   3.116   3.198  0.3279  0.4388  0.6089
   78MOL   C25320427   6.937   3.432   3.289  0.1798 -0.9579  0.2290
   78MOL   H25420428   7.093   3.299   3.365 -0.0394  0.5013  0.9616
   78MOL   H25520429   7.036   3.279   3.065  2.6409 -1.5449 -1.7843
   78MOL   H25620430   7.172   3.051   3.081  1.7458  1.4973 -0.0954
   78MOL   H25720431   7.214   3.098   3.248  0.0217  1.7478 -0.8511
   78MOL   H25820432   6.931   3.067   3.124 -0.6728 -0.9804  2.3421
   78MOL   H25920433   6.963   3.099   3.302  0.1511  0.1733  0.5147
   78MOL   H26020434   6.940   3.486   3.383  2.1692 -0.0107 -0.3423
   78MOL   H26120435   6.860   3.356   3.301  0.7279 -1.5353  0.1141
   78MOL   H26220436   6.905   3.498   3.208  3.4757  0.2844 -0.1598
   79MOL     C120437   3.202   4.286   6.604  0.0986  0.7209  0.3439
   79MOL     C220438   3.079   4.220   6.666 -0.0858 -0.3050  0.3202
   79MOL     C320439   2.989   4.291   6.770 -0.0481  0.3332  0.6024
   79MOL     C420440   3.067   4.175   6.812 -0.1946 -0.3648  0.0304
   79MOL     C520441   3.190   4.302   6.448  0.4994  0.6169  0.8292
   79MOL     H620442   3.193   4.387   6.644 -0.6071  0.2505  1.3957
   79MOL     H720443   3.027   4.154   6.597 -0.0032  1.8884 -1.9263
   79MOL     H820444   3.015   4.385   6.818  0.9541 -1.0691  2.8948
   79MOL     H920445   2.882   4.283   6.750  0.1227  0.2092 -0.2970
   79MOL    H1020446   3.014   4.083   6.830  1.1731 -0.9021  1.4345
   79MOL    H1120447   3.156   4.195   6.872 -1.6886  0.7645  1.9473
   79MOL    H1220448   3.104   4.366   6.428  2.3358  2.2460 -2.3459
   79MOL    H1320449   3.169   4.207   6.400  0.0065  1.1638 -0.0369
   79MOL    H1420450   3.294   4.241   6.642  0.7574  1.5994 -0.1761
   79MOL    C1520451   3.315   4.355   6.382 -0.1549 -0.7475  0.0968
   79MOL    C1620452   3.352   4.499   6.422  0.1744  0.9049 -0.1117
   79MOL    C1720453   3.281   4.618   6.369 -0.7927 -0.2442 -0.6327
   79MOL    C1820454   3.419   4.582   6.311 -0.2686 -0.3751 -0.0826
   79MOL    C1920455   3.435   4.259   6.397  0.2171  0.1620 -0.2664
   79MOL    H2020456   3.283   4.359   6.278  0.3113 -1.0293 -0.0589
   79MOL    H2120457   3.387   4.498   6.525  1.1732  1.9112 -0.4426
   79MOL    H2220458   3.276   4.708   6.430 -0.2852  0.5710 -1.7749
   79MOL    H2320459   3.191   4.600   6.310 -0.3902 -0.8607 -1.0630
   79MOL    H2420460   3.425   4.552   6.207 -0.0082  0.1065 -0.2094
   79MOL    H2520461   3.507   4.641   6.337 -0.2471 -1.1050  1.5646
   79MOL    H2620462   3.401   4.156   6.407 -0.9139  0.6511  1.0657
   79MOL    H2720463   3.489   4.280   6.489  0.9128  0.8316 -0.8238
   79MOL    C2820464   3.537   4.250   6.283 -0.4184 -0.5985 -0.3096
   79MOL    C2920465   3.468   4.190   6.163 -0.2118 -0.0961 -0.5814
   79MOL    C3020466   3.394   4.264   6.058 -0.1555  0.0086  0.0598
   79MOL    C3120467   3.527   4.191   6.032 -0.2658  0.3007  0.3591
   79MOL    C3220468   3.658   4.158   6.313  0.2657  0.6211  0.1951
   79MOL    H3320469   3.572   4.350   6.258 -1.3703 -0.5016 -1.2834
   79MOL    H3420470   3.423   4.094   6.189 -0.5048  0.7566  2.2948
   79MOL    H3520471   3.383   4.372   6.066 -1.7022 -0.3226  2.6800
   79MOL    H3620472   3.312   4.208   6.014  2.3959 -2.1201 -2.2537
   79MOL    H3720473   3.608   4.260   6.009 -0.0535 -0.4696 -1.2346
   79MOL    H3820474   3.528   4.097   5.977 -0.7843  0.7316 -0.3877
   79MOL    H3920475   3.714   4.185   6.223  2.7116 -0.4638  1.3405
   79MOL    H4020476   3.636   4.052   6.317 -1.2026  0.8295 -1.4758
   79MOL    C4120477   3.757   4.202   6.426  0.8272  0.0894  0.6885
   79MOL    C4220478   3.795   4.349   6.417  1.2223 -0.2200 -0.1598
   79MOL    C4320479   3.856   4.430   6.536 -0.8315 -0.2477  0.6038
   79MOL    C4420480   3.711   4.448   6.483 -0.3110 -0.4787 -0.2991
   79MOL    C4520481   3.884   4.119   6.412 -0.8329  0.5405  0.2359
   79MOL    H4620482   3.705   4.187   6.521 -0.6678 -1.2819 -0.3191
   79MOL    H4720483   3.834   4.372   6.318  0.2290 -0.0349 -0.5231
   79MOL    H4820484   3.871   4.385   6.634  0.9933 -0.5521  0.1928
   79MOL    H4920485   3.942   4.493   6.513 -1.3674  0.6727  1.0772
   79MOL    H5020486   3.692   4.552   6.457  1.9158 -0.6149 -2.6089
   79MOL    H5120487   3.636   4.406   6.550  1.4929 -0.4065  1.8587
   79MOL    H5220488   3.974   4.180   6.407 -1.6673  1.7568 -0.2635
   79MOL    H5320489   3.895   4.075   6.313  0.3766 -1.6683  1.3113
   79MOL    C5420490   3.907   3.999   6.514  0.4886 -0.2487  0.5791
   79MOL    C5520491   3.799   3.905   6.499  0.7449  0.6818  0.5508
   79MOL    C5620492   3.659   3.917   6.560 -0.2200  0.1001  0.2151
   79MOL    C5720493   3.753   3.814   6.613  0.8804 -0.4289  0.0656
   79MOL    C5820494   4.039   3.931   6.526  0.4988  0.1577 -0.8239
   79MOL    H5920495   3.883   4.042   6.612  2.0702 -0.8629  1.2538
   79MOL    H6020496   3.812   3.864   6.398  0.8117  4.5006 -1.0680
   79MOL    H6120497   3.636   4.009   6.613 -1.4049  0.1053 -0.2843
   79MOL    H6220498   3.576   3.880   6.499  1.2627 -2.0837 -0.5301
   79MOL    H6320499   3.757   3.712   6.575  0.6554 -0.5999  0.4993
   79MOL    H6420500   3.812   3.836   6.701  1.5111  0.9289 -0.6829
   79MOL    H6520501   4.029   3.831   6.568  0.4057  0.4667 -0.0914
   79MOL    H6620502   4.077   3.922   6.425  1.3641 -0.7051 -0.4305
   79MOL    C6720503   4.142   4.007   6.611 -0.0683 -0.5756  0.6855
   79MOL    C6820504   4.168   4.155   6.577 -0.2355  0.2315  0.7336
   79MOL    C6920505   4.313   4.209   6.576 -0.0720 -0.7525  0.1010
   79MOL    C7020506   4.234   4.199   6.449  0.5089 -0.1390  0.2349
   79MOL    C7120507   4.099   3.996   6.764 -0.4419  0.1638 -0.3549
   79MOL    H7220508   4.238   3.955   6.614 -2.3664 -5.2167 -1.1262
   79MOL    H7320509   4.092   4.226   6.612 -2.3333 -1.0423 -1.1069
   79MOL    H7420510   4.323   4.312   6.610 -0.6936 -1.1234  1.4637
   79MOL    H7520511   4.397   4.143   6.596  1.0269  1.0117  1.4930
   79MOL    H7620512   4.268   4.122   6.380  0.9210  1.2701 -1.1656
   79MOL    H7720513   4.190   4.291   6.410 -0.1166  0.2220  1.7692
   79MOL    H7820514   4.057   3.896   6.769  0.8483 -0.4949 -2.3041
   79MOL    H7920515   4.017   4.065   6.782 -1.2326 -0.9572  0.3697
   79MOL    C8020516   4.209   4.018   6.868  0.2283  0.0266  0.1299
   79MOL    C8120517   4.188   3.905   6.972 -0.0229  0.0628 -0.8939
   79MOL    C8220518   4.309   3.837   7.047 -0.2260  0.4189  0.1660
   79MOL    C8320519   4.223   3.758   6.952  0.4037  0.0780  0.2701
   79MOL    C8420520   4.210   4.161   6.934  0.0737 -0.0363  0.0006
   79MOL    H8520521   4.307   3.994   6.828  0.2490 -1.3939  0.9706
   79MOL    H8620522   4.091   3.909   7.020 -0.8766 -1.0719 -2.4834
   79MOL    H8720523   4.314   3.807   7.152  2.0404 -2.2649 -0.6427
   79MOL    H8820524   4.403   3.886   7.023 -1.6536  3.4354  0.5010
   79MOL    H8920525   4.258   3.721   6.856  0.6095  0.6139  0.1364
   79MOL    H9020526   4.154   3.688   6.999 -0.3379  2.2665  2.5510
   79MOL    H9120527   4.182   4.243   6.867 -0.9415  0.3548  0.9018
   79MOL    H9220528   4.133   4.160   7.011 -0.8103 -2.6912 -0.8482
   79MOL    C9320529   4.333   4.196   7.016 -0.4191 -0.2800  0.3170
   79MOL    C9420530   4.460   4.217   6.940 -0.9084 -0.1906  0.0724
   79MOL    C9520531   4.591   4.181   7.010  0.7355 -0.3143  0.1173
   79MOL    C9620532   4.555   4.121   6.876 -0.8992  0.2361  0.2851
   79MOL    C9720533   4.320   4.323   7.110 -0.4833 -0.1000  0.2133
   79MOL    H9820534   4.345   4.115   7.088 -1.2208  0.2582  1.0756
   79MOL    H9920535   4.456   4.312   6.885 -0.3028  0.2273  0.7521
   79MOL   H10020536   4.672   4.254   7.010  0.5405 -0.0684  1.6058
   79MOL   H10120537   4.571   4.119   7.098  1.0237 -1.5327 -0.6668
   79MOL   H10220538   4.601   4.158   6.785  1.2361 -0.6691  0.9683
   79MOL   H10320539   4.539   4.014   6.880  1.2534 -0.0967  0.8172
   79MOL   H10420540   4.307   4.411   7.048  0.3488  0.7497  1.2186
   79MOL   H10520541   4.408   4.343   7.172  0.3578  0.5346 -1.1606
   79MOL   C10620542   4.202   4.333   7.205  0.4470  0.0555 -0.3177
   79MOL   C10720543   4.221   4.233   7.320  0.1111 -0.2346  0.0832
   79MOL   C10820544   4.097   4.175   7.378  0.1811  0.2571  0.3231
   79MOL   C10920545   4.190   4.085   7.304 -0.6324 -0.9152  1.1548
   79MOL   C11020546   4.185   4.482   7.256  0.2705  0.2553  0.3707
   79MOL   H11120547   4.110   4.320   7.148 -0.3340  2.5995  0.3286
   79MOL   H11220548   4.303   4.249   7.390  0.5175 -1.5861 -0.0790
   79MOL   H11320549   4.094   4.167   7.486 -0.1387  1.1813  0.3868
   79MOL   H11420550   4.003   4.195   7.326  0.4440  1.2057  0.1860
   79MOL   H11520551   4.167   4.053   7.203 -1.6227  2.6681  0.1852
   79MOL   H11620552   4.241   4.006   7.360 -0.7879  0.3206  3.1040
   79MOL   H11720553   4.264   4.493   7.331  0.6424  0.4404 -0.0528
   79MOL   H11820554   4.211   4.566   7.193  0.5875  1.5221  2.1507
   79MOL   C11920555   4.055   4.518   7.335 -0.0238 -0.0507 -0.0103
   79MOL   C12020556   4.086   4.619   7.444  0.1655 -0.1849  0.2457
   79MOL   C12120557   4.153   4.581   7.568 -0.2169 -0.2366 -0.3505
   79MOL   C12220558   4.014   4.642   7.570 -0.4704 -0.1673  0.4173
   79MOL   C12320559   3.936   4.569   7.252  0.2243  0.5888  0.0182
   79MOL   H12420560   4.016   4.426   7.379 -0.6918  0.0892 -0.3118
   79MOL   H12520561   4.113   4.714   7.400 -1.3260  0.0594 -0.1822
   79MOL   H12620562   4.239   4.635   7.606 -0.4986 -0.3417  0.4487
   79MOL   H12720563   4.158   4.474   7.586 -0.5483 -0.2708 -0.4697
   79MOL   H12820564   3.923   4.587   7.592 -1.6618  0.8677 -1.8286
   79MOL   H12920565   4.000   4.748   7.588  0.8702  0.7129 -3.2344
   79MOL   H13020566   3.862   4.603   7.325 -0.3520  2.0333 -1.2073
   79MOL   H13120567   3.970   4.662   7.205  0.0826  0.2584 -0.7397
   79MOL   C13220568   3.861   4.491   7.151 -0.6514 -0.4025  0.2117
   79MOL   C13320569   3.781   4.580   7.055 -0.3414  0.7343  0.3759
   79MOL   C13420570   3.807   4.589   6.905  0.1652  0.0601 -0.3595
   79MOL   C13520571   3.830   4.711   6.984 -0.4644 -0.0270  0.0512
   79MOL   C13620572   3.775   4.391   7.217  0.3917  0.3465  0.0848
   79MOL   H13720573   3.934   4.437   7.092 -2.1046 -2.5636  0.3393
   79MOL   H13820574   3.677   4.580   7.086 -0.6685 -1.8658 -0.6539
   79MOL   H13920575   3.896   4.559   6.849  0.6136  2.8766 -1.2187
   79MOL   H14020576   3.727   4.607   6.834 -0.4121 -0.7181  0.0807
   79MOL   H14120577   3.930   4.751   6.999 -1.8940  2.5252  3.3626
   79MOL   H14220578   3.753   4.785   6.968 -1.1523 -0.1486  2.5444
   79MOL   H14320579   3.850   4.346   7.282  2.6955  3.0902 -0.5678
   79MOL   H14420580   3.695   4.424   7.283  0.2215  2.6730 -1.2501
   79MOL   C14520581   3.709   4.268   7.141 -0.0740  0.8336  0.2024
   79MOL   C14620582   3.807   4.209   7.045  0.2943 -0.2985 -0.1711
   79MOL   C14720583   3.778   4.120   6.929 -0.7909 -0.4044 -0.5028
   79MOL   C14820584   3.831   4.254   6.908  0.6027  0.0595  0.0542
   79MOL   C14920585   3.640   4.151   7.233  1.1256  0.2002  0.2199
   79MOL   H15020586   3.637   4.299   7.065 -0.1378  0.5948  0.1632
   79MOL   H15120587   3.890   4.164   7.098 -0.5502 -2.0195 -0.2549
   79MOL   H15220588   3.839   4.031   6.913  0.4074  0.0475  1.3892
   79MOL   H15320589   3.674   4.095   6.906 -1.1468  1.3391 -0.9061
   79MOL   H15420590   3.772   4.332   6.861  0.6037  0.3784  0.5689
   79MOL   H15520591   3.932   4.236   6.872 -0.1196 -2.6418 -0.7058
   79MOL   H15620592   3.608   4.069   7.169  0.6492 -0.4370  1.2584
   79MOL   H15720593   3.722   4.108   7.290  2.5013  1.4236 -0.8014
   79MOL   C15820594   3.516   4.183   7.320 -0.0770 -0.3233  0.2745
   79MOL   C15920595   3.414   4.265   7.236  0.1133  0.4274 -0.2990
   79MOL   C16020596   3.343   4.189   7.120  0.0322  0.7711  0.2123
   79MOL   C16120597   3.263   4.235   7.245  0.3972 -0.2933 -0.1660
   79MOL   C16220598   3.547   4.250   7.445  0.0848  0.1960  0.2868
   79MOL   H16320599   3.484   4.080   7.335 -2.9403  0.4880 -0.0020
   79MOL   H16420600   3.447   4.367   7.217 -0.2101  0.8128  1.1614
   79MOL   H16520601   3.363   4.082   7.114  0.7021  0.5119  5.0127
   79MOL   H16620602   3.348   4.248   7.029  0.0491 -1.9866 -1.6515
   79MOL   H16720603   3.201   4.323   7.228  0.5841 -0.1833 -0.2707
   79MOL   H16820604   3.227   4.174   7.329 -1.3276  0.8394 -0.0613
   79MOL   H16920605   3.450   4.263   7.492 -0.6627  0.5850 -1.3231
   79MOL   H17020606   3.582   4.352   7.431 -0.1666 -0.0635 -2.4229
   79MOL   C17120607   3.636   4.162   7.549  0.0421  0.3691 -0.1644
   79MOL   C17220608   3.684   4.255   7.662  0.6072  0.1922  0.2948
   79MOL   C17320609   3.821   4.234   7.721 -0.1378  0.5994  0.0628
   79MOL   C17420610   3.794   4.354   7.639  0.0375 -1.0160  0.0187
   79MOL   C17520611   3.566   4.037   7.617 -0.2441 -0.3240 -0.5178
   79MOL   H17620612   3.729   4.127   7.503 -1.2201 -1.8652 -1.1213
   79MOL   H17720613   3.606   4.288   7.729  0.8739 -0.9532  1.1973
   79MOL   H17820614   3.835   4.245   7.828 -1.4908  0.6689  0.2457
   79MOL   H17920615   3.901   4.170   7.684 -1.0969 -0.6881  0.1866
   79MOL   H18020616   3.849   4.360   7.545  0.0460 -2.0794 -0.0500
   79MOL   H18120617   3.780   4.444   7.698  3.2739  0.9658 -2.0688
   79MOL   H18220618   3.502   3.998   7.538  0.6014 -2.2606 -0.2665
   79MOL   H18320619   3.499   4.064   7.699  0.3575 -0.3671 -0.0019
   79MOL   C18420620   3.659   3.929   7.667 -0.0798  0.0935  0.2890
   79MOL   C18520621   3.739   3.858   7.554  0.6037  1.0451 -0.3101
   79MOL   C18620622   3.860   3.767   7.585  0.3326  0.1120 -0.3232
   79MOL   C18720623   3.877   3.914   7.532 -0.6207 -0.5638  0.5576
   79MOL   C18820624   3.586   3.821   7.752  0.3513  0.4263  0.7764
   79MOL   H18920625   3.732   3.980   7.730  0.4268 -2.5025  1.8737
   79MOL   H19020626   3.680   3.848   7.463 -1.6152 -2.0040  1.3785
   79MOL   H19120627   3.906   3.693   7.520  0.7801 -0.7317  0.9291
   79MOL   H19220628   3.859   3.745   7.691  0.2643  1.0699 -0.1159
   79MOL   H19320629   3.919   3.915   7.432  1.3150  2.0153  1.3494
   79MOL   H19420630   3.924   3.983   7.602  0.1246 -3.7109  3.3133
   79MOL   H19520631   3.647   3.731   7.747 -0.2167 -0.0017  1.4316
   79MOL   H19620632   3.489   3.784   7.717  0.7940 -1.9137  1.8738
   79MOL   C19720633   3.564   3.867   0.055  0.1556  0.1417  0.5104
   79MOL   C19820634   3.674   3.827   0.150 -0.2645  0.2007  0.3584
   79MOL   C19920635   3.692   3.903   0.271 -0.0744 -0.4395  0.6583
   79MOL   C20020636   3.800   3.902   0.166  0.6457  0.2522  0.1018
   79MOL   C20120637   3.429   3.825   0.111 -0.1065 -0.0632 -0.0165
   79MOL   H20220638   3.577   3.975   0.052  1.2975 -0.0102 -0.5825
   79MOL   H20320639   3.677   3.721   0.172  1.6997  0.6918  2.5932
   79MOL   H20420640   3.639   3.998   0.270 -0.9769 -0.9367 -0.6241
   79MOL   H20520641   3.687   3.853   0.368  1.5114  0.4384  1.1953
   79MOL   H20620642   3.819   3.998   0.119  2.4572  0.8921  2.0576
   79MOL   H20720643   3.891   3.842   0.173  0.9165  0.7737  1.0405
   79MOL   H20820644   3.424   3.717   0.092 -0.8166 -0.1274  0.4905
   79MOL   H20920645   3.428   3.829   0.220 -0.2881  0.7517 -0.0459
   79MOL   C21020646   3.305   3.892   0.055 -0.1717  0.2257 -1.2443
   79MOL   C21120647   3.188   3.814   0.125  0.5622 -0.6411 -0.0787
   79MOL   C21220648   3.057   3.782   0.052  0.4057 -0.6321 -0.9998
   79MOL   C21320649   3.161   3.668   0.088 -0.2027 -0.4144  0.2767
   79MOL   C21420650   3.294   4.043   0.078  0.6285  0.0261 -0.5674
   79MOL   H21520651   3.295   3.882   7.786 -1.8844 -0.7231 -1.0204
   79MOL   H21620652   3.184   3.827   0.233 -3.5512 -0.2363 -0.2095
   79MOL   H21720653   2.961   3.790   0.102  0.7517  0.2658 -0.4639
   79MOL   H21820654   3.052   3.823   7.790 -0.7430 -1.0011 -1.1005
   79MOL   H21920655   3.135   3.595   0.164  5.3527 -1.2483  1.6018
   79MOL   H22020656   3.230   3.633   0.012 -1.5662  1.6193 -1.9694
   79MOL   H22120657   3.294   4.047   0.187  3.1813  2.0042 -0.5654
   79MOL   H22220658   3.386   4.096   0.053  0.7551  0.5149  0.8739
   79MOL   C22320659   3.166   4.126   0.030  0.7810  0.1934  0.0906
   79MOL   C22420660   3.180   4.166   7.726 -0.1737 -0.0903  0.5281
   79MOL   C22520661   3.132   4.070   7.621  0.2867  0.4659  0.5609
   79MOL   C22620662   3.069   4.206   7.630  0.2831  0.0005  0.0666
   79MOL   C22720663   3.144   4.257   0.104  0.2247 -0.0905  0.7936
   79MOL   H22820664   3.078   4.067   0.057 -0.7668  2.2701 -0.2760
   79MOL   H22920665   3.274   4.212   7.696 -0.9660  1.0023 -0.2966
   79MOL   H23020666   3.068   3.985   7.640  2.6649 -1.4272  0.4635
   79MOL   H23120667   3.192   4.057   7.530  1.1357  1.7908  0.9059
   79MOL   H23220668   3.092   4.277   7.551  2.4535  1.4242  1.9341
   79MOL   H23320669   2.973   4.221   7.678  1.6305 -0.6386  3.0667
   79MOL   H23420670   3.239   4.309   0.095 -0.2104  0.4506 -0.8276
   79MOL   H23520671   3.066   4.323   0.065 -0.8628 -1.4055  0.7004
   79MOL   C23620672   3.108   4.249   0.255  0.0770 -0.4017 -0.3225
   79MOL   C23720673   2.964   4.204   0.275 -0.5690  0.0486  0.6083
   79MOL   C23820674   2.926   4.063   0.289  0.1361 -0.4012  0.5221
   79MOL   C23920675   2.917   4.156   0.407  0.2051  1.2214 -0.8037
   79MOL   C24020676   3.134   4.382   0.335  0.4126 -0.0236  0.3262
   79MOL   H24120677   3.178   4.181   0.304 -0.2194 -0.7213 -0.3365
   79MOL   H24220678   2.892   4.265   0.222  0.3568 -1.0673 -2.0212
   79MOL   H24320679   2.839   4.032   0.232  0.0361  0.7517  0.0315
   79MOL   H24420680   3.000   3.984   0.295  0.3872 -0.0182  3.0031
   79MOL   H24520681   2.986   4.128   0.486 -1.1884  0.7971  0.2920
   79MOL   H24620682   2.828   4.206   0.446  0.1799  1.3624 -1.0396
   79MOL   H24720683   3.073   4.467   0.304  0.0008 -0.7423 -0.8550
   79MOL   H24820684   3.097   4.382   0.437 -3.2877 -0.2918 -0.9565
   79MOL   C24920685   3.282   4.434   0.345  0.0363  0.0046 -0.0863
   79MOL   C25020686   3.377   4.334   0.414 -1.2854  0.1566  0.3323
   79MOL   C25120687   3.454   4.222   0.341 -0.2470 -0.2878  0.0879
   79MOL   C25220688   3.528   4.347   0.395  1.1021  0.1237 -0.2696
   79MOL   C25320689   3.275   4.569   0.419 -0.8076  0.5877  0.1085
   79MOL   H25420690   3.332   4.447   0.249  1.8752 -0.2865  0.8120
   79MOL   H25520691   3.354   4.307   0.517 -3.1723 -0.8467 -0.3123
   79MOL   H25620692   3.453   4.127   0.394 -3.6712 -0.4543 -0.2054
   79MOL   H25720693   3.446   4.213   0.232 -1.7838 -2.1763  0.3200
   79MOL   H25820694   3.580   4.344   0.491 -1.3176 -1.2458  1.0505
   79MOL   H25920695   3.571   4.404   0.313  1.2586 -1.7597 -1.5126
   79MOL   H26020696   3.284   4.560   0.527  1.7917  1.1697 -0.0290
   79MOL   H26120697   3.188   4.631   0.397  0.2182  1.8075 -0.6192
   79MOL   H26220698   3.364   4.628   0.394 -1.4215  0.9594 -1.2982
   80MOL     C120699   2.987   1.099   4.198  0.0991 -0.3008 -0.3855
   80MOL     C220700   2.958   0.987   4.300 -0.9360 -0.3076 -0.0547
   80MOL     C320701   3.059   0.955   4.407 -0.8339 -0.0304 -0.4453
   80MOL     C420702   3.034   0.849   4.308 -1.0556  0.1490 -0.4933
   80MOL     C520703   2.921   1.057   4.059 -0.4694  0.1796 -0.0874
   80MOL     H620704   2.957   1.193   4.244 -0.5286 -0.9812  0.6204
   80MOL     H720705   2.850   0.984   4.313 -1.1164 -0.1624 -1.4173
   80MOL     H820706   3.147   1.018   4.395 -1.1354  0.3830 -0.4955
   80MOL     H920707   3.023   0.934   4.508 -0.1901  0.0018 -0.2061
   80MOL    H1020708   2.978   0.763   4.345  1.1169 -0.5430  1.2541
   80MOL    H1120709   3.104   0.826   4.229  0.3534 -4.3922  1.9386
   80MOL    H1220710   2.812   1.055   4.066 -0.4237 -1.3882  0.3613
   80MOL    H1320711   2.958   0.962   4.021  2.8949  0.9585  1.0795
   80MOL    H1420712   3.093   1.118   4.183  0.7455 -2.8102  0.5889
   80MOL    C1520713   2.968   1.151   3.944 -0.0696 -0.1399 -0.1917
   80MOL    C1620714   2.912   1.091   3.813 -0.1631 -0.8494  0.1391
   80MOL    C1720715   2.980   0.981   3.746 -0.3871  0.1285 -0.0763
   80MOL    C1820716   2.959   1.112   3.669 -0.8462  0.0038 -0.0415
   80MOL    C1920717   2.905   1.294   3.964  0.1212 -0.1649  0.5133
   80MOL    H2020718   3.076   1.154   3.933  0.1498 -0.4194  1.8348
   80MOL    H2120719   2.804   1.084   3.814 -0.3260  0.5476 -2.2629
   80MOL    H2220720   2.919   0.893   3.725  1.5601 -1.2278 -0.1125
   80MOL    H2320721   3.087   0.961   3.746  0.0385  2.3102  0.1658
   80MOL    H2420722   3.048   1.174   3.655 -1.6933  0.8229 -1.9720
   80MOL    H2520723   2.884   1.121   3.590  1.0520  0.3789 -1.8523
   80MOL    H2620724   2.928   1.343   4.058  0.0704  1.2816 -0.2149
   80MOL    H2720725   2.796   1.285   3.959  0.0805 -0.9718  2.5431
   80MOL    C2820726   2.954   1.402   3.859 -0.1362  0.0424  0.0155
   80MOL    C2920727   3.098   1.439   3.886 -1.0237  0.2353  0.8134
   80MOL    C3020728   3.210   1.353   3.832 -0.1524  0.1980  0.0306
   80MOL    C3120729   3.183   1.485   3.769  0.1355 -0.1080 -0.1846
   80MOL    C3220730   2.862   1.533   3.860  0.2815 -0.4403  0.0710
   80MOL    H3320731   2.950   1.365   3.756 -0.4524 -2.6257  0.9394
   80MOL    H3420732   3.109   1.483   3.984 -0.7554  3.2282 -0.5081
   80MOL    H3520733   3.201   1.269   3.763  0.5348  0.4260 -0.3391
   80MOL    H3620734   3.292   1.340   3.902 -0.9190 -1.1549  0.7039
   80MOL    H3720735   3.154   1.499   3.666  2.2455  1.6821 -0.5559
   80MOL    H3820736   3.257   1.561   3.790 -0.1126 -0.4593  2.1599
   80MOL    H3920737   2.912   1.606   3.797  1.5942 -1.6477 -0.3192
   80MOL    H4020738   2.868   1.573   3.961  1.6676  1.7517 -0.8279
   80MOL    C4120739   2.723   1.518   3.805 -0.2212  0.3077  0.0863
   80MOL    C4220740   2.716   1.478   3.660  0.0056 -0.2669 -0.1343
   80MOL    C4320741   2.591   1.417   3.597 -0.4566  0.7181 -0.0520
   80MOL    C4420742   2.714   1.336   3.615  0.4959  0.6670 -0.0565
   80MOL    C4520743   2.627   1.636   3.843 -0.4422 -0.8009 -0.1597
   80MOL    H4620744   2.688   1.424   3.848  0.9410  0.6270  1.7569
   80MOL    H4720745   2.761   1.546   3.587 -2.2096 -0.2609 -1.5385
   80MOL    H4820746   2.507   1.396   3.663 -0.5418 -1.3542 -0.7919
   80MOL    H4920747   2.554   1.426   3.496  1.0929  2.0151 -0.5329
   80MOL    H5020748   2.779   1.319   3.529 -1.6681 -1.1565 -1.3949
   80MOL    H5120749   2.679   1.242   3.658 -0.5319  1.6057  1.1858
   80MOL    H5220750   2.532   1.624   3.790 -0.2425  1.2855 -1.0540
   80MOL    H5320751   2.673   1.725   3.800  0.3933 -1.8225 -1.4034
   80MOL    C5420752   2.599   1.663   3.989 -0.2986 -0.2049 -0.0104
   80MOL    C5520753   2.527   1.794   4.005 -0.0696 -0.3122 -0.1626
   80MOL    C5620754   2.609   1.919   3.995 -0.1446 -0.0285  0.5383
   80MOL    C5720755   2.548   1.885   4.125 -0.0427 -0.3132  0.2380
   80MOL    C5820756   2.511   1.555   4.047  0.4209  0.4664  0.4111
   80MOL    H5920757   2.693   1.676   4.042 -0.8577 -0.0589  0.9547
   80MOL    H6020758   2.430   1.792   3.956 -0.0920 -2.5887 -0.1161
   80MOL    H6120759   2.717   1.911   4.009  0.2129  0.9711 -1.5575
   80MOL    H6220760   2.577   2.013   3.951 -0.7472  0.0313  1.0981
   80MOL    H6320761   2.459   1.940   4.155 -0.2729 -0.1276 -0.7895
   80MOL    H6420762   2.596   1.841   4.212  0.8806  0.1005 -0.0523
   80MOL    H6520763   2.415   1.552   3.995  1.9479 -1.0105 -2.4547
   80MOL    H6620764   2.560   1.463   4.017 -0.1468  0.0770  0.6692
   80MOL    C6720765   2.488   1.555   4.201  0.5196  0.3640 -0.0729
   80MOL    C6820766   2.421   1.429   4.260  0.5088 -0.3031  0.1106
   80MOL    C6920767   2.340   1.330   4.176 -0.8071 -0.7106 -0.3193
   80MOL    C7020768   2.467   1.287   4.244 -0.0686 -0.3327 -0.5542
   80MOL    C7120769   2.618   1.576   4.278 -1.2475  0.0924  0.2660
   80MOL    H7220770   2.420   1.640   4.210  1.0386  0.9421 -1.5486
   80MOL    H7320771   2.368   1.453   4.352 -2.5456 -2.2076 -1.0501
   80MOL    H7420772   2.250   1.294   4.224  0.4812 -0.4678  2.3779
   80MOL    H7520773   2.349   1.340   4.068  0.1202  0.7272 -0.1311
   80MOL    H7620774   2.559   1.260   4.194 -0.4795  0.8174 -1.9911
   80MOL    H7720775   2.454   1.227   4.334  1.0411  0.9778  0.5006
   80MOL    H7820776   2.689   1.646   4.235  0.2455 -0.8335  1.1759
   80MOL    H7920777   2.679   1.489   4.253 -1.6188 -0.0308 -0.2177
   80MOL    C8020778   2.609   1.595   4.426 -0.0940  0.6686  0.1955
   80MOL    C8120779   2.513   1.703   4.466 -0.0291  0.2731 -0.2780
   80MOL    C8220780   2.480   1.734   4.602  1.0709  0.4146  0.1848
   80MOL    C8320781   2.370   1.676   4.516 -0.2494  0.3087  0.9417
   80MOL    C8420782   2.741   1.620   4.502  0.7681 -0.2861 -0.7274
   80MOL    H8520783   2.570   1.509   4.479 -1.3600 -0.1073 -1.9052
   80MOL    H8620784   2.529   1.788   4.399 -0.2691  0.5188 -0.0217
   80MOL    H8720785   2.467   1.839   4.629  0.1072  0.3482 -0.0018
   80MOL    H8820786   2.510   1.677   4.689 -3.3234  0.5147  1.8946
   80MOL    H8920787   2.344   1.573   4.542  2.2787 -0.5116  0.2961
   80MOL    H9020788   2.302   1.745   4.467  1.8369  2.4727  1.0371
   80MOL    H9120789   2.759   1.727   4.497  1.5701 -0.3800  0.0672
   80MOL    H9220790   2.711   1.596   4.605 -0.2695  0.3774 -0.8667
   80MOL    C9320791   2.857   1.528   4.470  0.0638  0.1665  0.1862
   80MOL    C9420792   2.949   1.595   4.365 -0.5998  0.0695 -1.1384
   80MOL    C9520793   3.068   1.677   4.406 -0.4244  0.0927 -0.1040
   80MOL    C9620794   3.090   1.544   4.338 -0.2774 -0.6695  0.3035
   80MOL    C9720795   2.941   1.489   4.593 -0.2240 -0.4725  0.1533
   80MOL    H9820796   2.821   1.436   4.424  0.7560  0.0547 -0.1450
   80MOL    H9920797   2.899   1.634   4.277 -1.5315 -0.7461 -0.9795
   80MOL   H10020798   3.092   1.772   4.358  4.3831 -1.2429 -0.6665
   80MOL   H10120799   3.102   1.677   4.510  3.3165  1.6451 -1.2358
   80MOL   H10220800   3.132   1.548   4.237 -0.6521 -0.2003  0.1633
   80MOL   H10320801   3.119   1.457   4.396  0.6704  0.5637  1.6917
   80MOL   H10420802   2.929   1.578   4.655  1.1344  0.7035 -1.2181
   80MOL   H10520803   3.048   1.484   4.574 -0.1990  1.5748 -0.3591
   80MOL   C10620804   2.893   1.373   4.679  0.4858 -0.2526  0.0717
   80MOL   C10720805   2.880   1.245   4.602  0.4503  0.1413 -0.9589
   80MOL   C10820806   2.795   1.131   4.649  0.6977 -0.4147  0.2685
   80MOL   C10920807   2.745   1.216   4.541 -0.7009  0.0219  0.1508
   80MOL   C11020808   2.993   1.338   4.796  0.4730  0.6366  0.1728
   80MOL   H11120809   2.795   1.393   4.722  0.3218 -0.6327 -0.1181
   80MOL   H11220810   2.971   1.214   4.552  0.4336  0.1373 -0.9869
   80MOL   H11320811   2.829   1.034   4.612 -0.8112  0.5341 -3.9395
   80MOL   H11420812   2.755   1.146   4.749  0.3119  1.1881 -0.1183
   80MOL   H11520813   2.665   1.283   4.572 -2.4271 -1.8144 -0.2114
   80MOL   H11620814   2.733   1.178   4.440  0.1321 -0.6377  0.2941
   80MOL   H11720815   2.954   1.250   4.847 -0.5098  0.6388 -0.5676
   80MOL   H11820816   3.093   1.308   4.763 -0.2397 -0.4400 -1.0582
   80MOL   C11920817   3.012   1.456   4.897  0.1749 -0.6340 -0.2573
   80MOL   C12020818   2.879   1.475   4.976  0.1135  0.1199 -0.0055
   80MOL   C12120819   2.759   1.554   4.929 -0.1140  0.0597 -0.4217
   80MOL   C12220820   2.848   1.600   5.048  0.5554 -0.2912  0.7914
   80MOL   C12320821   3.135   1.425   4.988 -0.4748  0.0774 -0.0300
   80MOL   H12420822   3.029   1.552   4.850  0.1150 -0.2482  0.5057
   80MOL   H12520823   2.845   1.392   5.038  1.5306  0.0410  0.6778
   80MOL   H12620824   2.662   1.517   4.960 -0.4243  0.9916 -0.2531
   80MOL   H12720825   2.763   1.604   4.832  0.0621 -1.4219 -1.1958
   80MOL   H12820826   2.910   1.687   5.026  1.6362 -1.5464 -1.2682
   80MOL   H12920827   2.823   1.590   5.154  0.0701 -1.4624  0.5686
   80MOL   H13020828   3.125   1.477   5.083 -0.4792  1.3972 -0.7342
   80MOL   H13120829   3.118   1.319   5.009  2.1920 -0.4671 -0.4523
   80MOL   C13220830   3.270   1.446   4.929 -0.0887 -0.2511  0.5211
   80MOL   C13320831   3.372   1.363   5.000  0.3230 -0.5239  0.6913
   80MOL   C13420832   3.504   1.302   4.946 -0.3917  0.9848 -0.0715
   80MOL   C13520833   3.381   1.219   4.978 -0.6231  0.8770 -0.6526
   80MOL   C13620834   3.313   1.600   4.925 -0.6899 -0.4678  0.4832
   80MOL   H13720835   3.259   1.406   4.828  0.1981 -2.2376  1.2713
   80MOL   H13820836   3.363   1.388   5.106 -0.2504  0.5890  0.3920
   80MOL   H13920837   3.533   1.307   4.841  0.4283  0.7134  0.1370
   80MOL   H14020838   3.583   1.311   5.021 -1.7524 -2.8618  1.9430
   80MOL   H14120839   3.320   1.185   4.894  0.1228 -0.4397 -0.6702
   80MOL   H14220840   3.383   1.149   5.061 -2.4886 -0.8542 -1.9999
   80MOL   H14320841   3.226   1.663   4.906  1.5505  2.3086 -0.7939
   80MOL   H14420842   3.346   1.631   5.024  2.6464 -1.1148 -0.3765
   80MOL   C14520843   3.414   1.631   4.809  0.1410 -0.4195  0.0432
   80MOL   C14620844   3.353   1.597   4.671  0.3462 -0.1849 -0.0839
   80MOL   C14720845   3.447   1.579   4.568 -0.3444  0.9529 -0.4796
   80MOL   C14820846   3.360   1.460   4.609 -0.5960 -0.3779 -0.2742
   80MOL   C14920847   3.453   1.770   4.812 -0.4278 -0.4896  0.5324
   80MOL   H15020848   3.499   1.565   4.827  1.2906 -0.1586 -3.9863
   80MOL   H15120849   3.276   1.671   4.654  0.3883 -0.1483 -0.1164
   80MOL   H15220850   3.425   1.627   4.473  0.0936 -1.8232 -2.0506
   80MOL   H15320851   3.548   1.605   4.601  0.0359  0.4708 -1.2409
   80MOL   H15420852   3.426   1.380   4.642  0.7377  1.9771  2.9144
   80MOL   H15520853   3.280   1.414   4.551 -0.5256  0.1256 -0.7721
   80MOL   H15620854   3.501   1.807   4.722  0.2891 -0.5775  0.8761
   80MOL   H15720855   3.364   1.833   4.803 -0.5971 -0.6913  0.7908
   80MOL   C15820856   3.540   1.816   4.930 -0.0951 -0.3743  0.3004
   80MOL   C15920857   3.536   1.968   4.944 -0.2168  0.0327  0.3451
   80MOL   C16020858   3.452   2.051   5.038  1.3597 -0.5877 -0.1037
   80MOL   C16120859   3.600   2.044   5.059  0.2964  0.2658  0.3182
   80MOL   C16220860   3.696   1.762   4.914  0.1054  0.1405  0.5884
   80MOL   H16320861   3.499   1.786   5.026 -0.3314  0.4591  0.4600
   80MOL   H16420862   3.564   2.022   4.854  0.2145 -1.3844 -0.3862
   80MOL   H16520863   3.382   2.016   5.114  0.0172  2.0111 -0.0756
   80MOL   H16620864   3.416   2.145   4.997  0.8209 -0.9551 -0.4785
   80MOL   H16720865   3.671   2.120   5.028  0.4855  1.2965  3.0759
   80MOL   H16820866   3.640   1.984   5.141  1.7071  0.6091 -0.1111
   80MOL   H16920867   3.739   1.838   4.849 -0.0816 -0.1243  0.1537
   80MOL   H17020868   3.693   1.668   4.859  1.5204  1.0721 -1.1268
   80MOL   C17120869   3.774   1.734   5.045  0.0884 -0.1955 -0.2969
   80MOL   C17220870   3.713   1.623   5.128  0.0288  0.6067 -0.6688
   80MOL   C17320871   3.742   1.610   5.274 -0.6718 -0.6933 -0.0731
   80MOL   C17420872   3.602   1.638   5.231 -0.2040 -0.3537  0.4631
   80MOL   C17520873   3.926   1.701   5.029  0.6655  0.2702 -0.0536
   80MOL   H17620874   3.768   1.824   5.107 -1.1041  0.4400 -1.3210
   80MOL   H17720875   3.699   1.531   5.070  1.3424  0.7212 -1.1742
   80MOL   H17820876   3.766   1.511   5.313 -0.7567 -1.4537 -1.9208
   80MOL   H17920877   3.798   1.686   5.328 -0.6837 -0.3977 -0.4802
   80MOL   H18020878   3.559   1.736   5.249  0.0037  0.1425 -1.6058
   80MOL   H18120879   3.533   1.556   5.250  0.7388 -1.9800 -2.8430
   80MOL   H18220880   3.935   1.668   4.925 -0.4259  0.6979 -0.2966
   80MOL   H18320881   3.943   1.611   5.089 -0.7261  0.0955  0.1138
   80MOL   C18420882   4.033   1.819   5.042 -0.0478 -0.2227 -0.1895
   80MOL   C18520883   4.058   1.863   5.189  0.4432 -0.4866 -0.5366
   80MOL   C18620884   4.190   1.921   5.249 -0.1010  0.3874 -0.0895
   80MOL   C18720885   4.151   1.769   5.269 -0.1026 -0.5957  0.3669
   80MOL   C18820886   4.010   1.946   4.955  0.2340 -0.1275 -0.3279
   80MOL   H18920887   4.127   1.773   5.009 -0.7861 -2.2931  0.4880
   80MOL   H19020888   3.964   1.873   5.243 -0.9433  0.6012 -3.1000
   80MOL   H19120889   4.205   1.966   5.347 -0.0779  0.0819  0.0492
   80MOL   H19220890   4.269   1.935   5.175 -1.5854  0.6600 -1.6528
   80MOL   H19320891   4.138   1.737   5.372  1.3651 -0.3534  0.6352
   80MOL   H19420892   4.199   1.696   5.204 -0.4521 -1.0883  0.6589
   80MOL   H19520893   4.075   2.025   4.990 -1.9947  0.6140  2.2751
   80MOL   H19620894   3.910   1.982   4.978 -0.4257 -1.6473 -0.7346
   80MOL   C19720895   4.026   1.944   4.801 -0.2058  0.3748  0.7338
   80MOL   C19820896   4.171   1.911   4.758 -0.1609  0.4987 -1.1460
   80MOL   C19920897   4.200   1.845   4.625 -0.1389 -0.2659  0.2241
   80MOL   C20020898   4.221   1.770   4.761 -0.1935 -0.4011  0.1117
   80MOL   C20120899   3.991   2.070   4.719  0.2630 -0.3292 -0.0671
   80MOL   H20220900   3.963   1.858   4.778  0.9801 -0.5694  0.9108
   80MOL   H20320901   4.242   1.986   4.791  1.4144 -1.0768 -0.8362
   80MOL   H20420902   4.112   1.832   4.562  0.0768  1.3110 -0.4333
   80MOL   H20520903   4.281   1.890   4.568 -0.5721  2.7549  1.9152
   80MOL   H20620904   4.155   1.686   4.781  1.2799 -1.5158  0.3885
   80MOL   H20720905   4.326   1.761   4.790  0.0617  0.7978 -0.4108
   80MOL   H20820906   4.035   2.152   4.777 -0.1441  0.5396 -0.9718
   80MOL   H20920907   4.041   2.068   4.622 -2.1081  0.6807 -1.3455
   80MOL   C21020908   3.842   2.111   4.699 -0.2319 -0.2431  0.1038
   80MOL   C21120909   3.823   2.262   4.679 -0.0532 -0.0157 -0.2438
   80MOL   C21220910   3.696   2.322   4.739 -0.8287  0.2920  0.2281
   80MOL   C21320911   3.830   2.366   4.785 -0.6098  0.0264  0.3133
   80MOL   C21420912   3.752   2.021   4.603  0.1812 -0.5531 -0.0094
   80MOL   H21520913   3.802   2.087   4.797  0.6300  0.5159  0.6439
   80MOL   H21620914   3.840   2.293   4.576 -0.3758 -0.8319 -0.5482
   80MOL   H21720915   3.642   2.400   4.685 -0.8281 -0.0967 -0.3425
   80MOL   H21820916   3.632   2.270   4.810  0.3719 -0.3455  0.8496
   80MOL   H21920917   3.866   2.465   4.760  2.3490 -1.0770  0.0631
   80MOL   H22020918   3.866   2.338   4.884  0.7754  0.4509 -0.0612
   80MOL   H22120919   3.793   1.920   4.599  0.2737 -0.5475  0.8245
   80MOL   H22220920   3.656   2.001   4.649  0.7365 -0.8732  1.0272
   80MOL   C22320921   3.723   2.072   4.454  0.3492 -0.2629 -0.2883
   80MOL   C22420922   3.612   1.987   4.393 -0.0018 -0.1515 -0.1909
   80MOL   C22520923   3.473   2.017   4.446 -0.0936 -0.2636 -0.3192
   80MOL   C22620924   3.509   2.049   4.301 -0.3252  0.5720 -0.1152
   80MOL   C22720925   3.846   2.080   4.360 -0.5140 -0.0136  0.4684
   80MOL   H22820926   3.688   2.175   4.459  6.5636  2.0760 -1.4562
   80MOL   H22920927   3.624   1.880   4.374 -2.4402 -0.8215  1.8070
   80MOL   H23020928   3.474   2.094   4.523  1.0904 -1.1919  0.6077
   80MOL   H23120929   3.417   1.927   4.468 -1.0447  0.3884 -0.0157
   80MOL   H23220930   3.465   1.989   4.222 -1.5149  2.3687 -0.8467
   80MOL   H23320931   3.520   2.153   4.274  2.3058  0.3860  0.1083
   80MOL   H23420932   3.932   2.133   4.402  0.0512 -1.4339  1.1310
   80MOL   H23520933   3.886   1.984   4.329  1.8316  1.5987 -1.7261
   80MOL   C23620934   3.822   2.162   4.233 -0.1242 -0.0849  0.3923
   80MOL   C23720935   3.929   2.124   4.131 -0.1034 -0.2867  0.6830
   80MOL   C23820936   3.932   1.992   4.053  0.2993  0.2137 -0.1246
   80MOL   C23920937   3.909   2.128   3.982  0.3660 -0.5785  0.8213
   80MOL   C24020938   3.819   2.318   4.266 -0.2739 -0.4516 -0.7015
   80MOL   H24120939   3.730   2.128   4.184 -0.2715  0.4081  0.3306
   80MOL   H24220940   4.028   2.154   4.162 -0.6702  0.1135  2.1301
   80MOL   H24320941   4.023   1.939   4.024 -0.5514 -1.7465  0.8015
   80MOL   H24420942   3.841   1.935   4.041  0.3862  0.2601 -1.0571
   80MOL   H24520943   3.811   2.142   3.936  1.2559  0.6344 -0.7761
   80MOL   H24620944   3.991   2.175   3.927 -0.2260  1.2715  1.4665
   80MOL   H24720945   3.765   2.332   4.360 -1.6875 -0.8463 -1.4374
   80MOL   H24820946   3.922   2.351   4.280  0.5796 -3.6324  0.8484
   80MOL   C24920947   3.753   2.410   4.164  0.9353  0.3628  0.0073
   80MOL   C25020948   3.794   2.558   4.200 -0.5275 -0.2788 -0.9546
   80MOL   C25120949   3.920   2.621   4.145 -0.3714 -0.3410 -0.1744
   80MOL   C25220950   3.790   2.665   4.088  0.1594 -0.4702 -0.3818
   80MOL   C25320951   3.599   2.408   4.180  0.1214 -0.4103  0.4918
   80MOL   H25420952   3.789   2.389   4.063  1.4062 -0.6841  0.3867
   80MOL   H25520953   3.753   2.587   4.296  1.0888  1.5626 -0.7975
   80MOL   H25620954   3.970   2.670   4.228 -2.2628 -1.4596  1.6792
   80MOL   H25720955   3.977   2.573   4.065 -0.1402 -1.9153  0.9227
   80MOL   H25820956   3.750   2.759   4.124  0.8528  0.7010 -2.5863
   80MOL   H25920957   3.765   2.641   3.985  0.3430  1.2412 -0.8421
   80MOL   H26020958   3.564   2.426   4.281  0.4230 -1.2563  0.7441
   80MOL   H26120959   3.550   2.316   4.146 -0.9565  0.4804 -0.4420
   80MOL   H26220960   3.547   2.486   4.123 -0.1270 -0.8884  0.0590
   81MOL     C120961   2.818   3.397   6.849 -0.4294  0.2295  0.3316
   81MOL     C220962   2.721   3.284   6.902 -0.2388 -0.4444 -0.8848
   81MOL     C320963   2.759   3.136   6.899  0.2889 -0.2459 -0.1831
   81MOL     C420964   2.655   3.183   6.807  0.0413  0.4051 -0.3631
   81MOL     C520965   2.756   3.523   6.795  0.1016 -0.4663  0.0623
   81MOL     H620966   2.870   3.422   6.942 -2.6330  1.4360  1.2844
   81MOL     H720967   2.654   3.323   6.978 -1.1627 -0.7216 -1.5447
   81MOL     H820968   2.862   3.118   6.869  0.7576 -0.6137  1.5749
   81MOL     H920969   2.720   3.079   6.983 -0.3258 -0.8903 -0.9028
   81MOL    H1020970   2.550   3.179   6.832 -0.7041  2.3184 -2.8449
   81MOL    H1120971   2.685   3.205   6.704 -0.6218 -1.5749 -0.9929
   81MOL    H1220972   2.696   3.562   6.878  2.8844  0.0094  1.9484
   81MOL    H1320973   2.694   3.507   6.707  2.0051 -0.7466 -1.2530
   81MOL    H1420974   2.877   3.350   6.770  0.1861 -1.3001  1.6550
   81MOL    C1520975   2.853   3.633   6.757  0.2316  0.0633 -0.4765
   81MOL    C1620976   2.927   3.695   6.882  0.1938  0.2975  0.2237
   81MOL    C1720977   2.862   3.780   6.985 -0.5927  0.8814 -0.0980
   81MOL    C1820978   2.958   3.842   6.887 -0.6702 -0.3854  0.3975
   81MOL    C1920979   2.956   3.600   6.644 -0.3569 -0.3561 -0.5822
   81MOL    H2020980   2.789   3.713   6.718 -1.4623 -2.3328 -2.8087
   81MOL    H2120981   3.004   3.627   6.918 -1.1455 -0.7372  1.2125
   81MOL    H2220982   2.894   3.770   7.089 -0.6455 -0.9045 -0.2419
   81MOL    H2320983   2.757   3.807   6.975 -0.8418 -0.0718 -0.0598
   81MOL    H2420984   2.927   3.877   6.789  0.4732  0.1518  0.2285
   81MOL    H2520985   3.045   3.899   6.920 -0.0752 -1.0382 -0.0493
   81MOL    H2620986   2.994   3.498   6.657  1.7344  0.2976 -1.2619
   81MOL    H2720987   3.043   3.658   6.674  0.5614 -0.6214 -2.6299
   81MOL    C2820988   2.911   3.619   6.496  0.5329  1.0079  0.0609
   81MOL    C2920989   2.939   3.498   6.405 -0.0021  0.3292 -0.4089
   81MOL    C3020990   2.880   3.361   6.448 -0.2410  0.2531 -0.0730
   81MOL    C3120991   2.840   3.427   6.322  0.6405  0.2013 -0.6900
   81MOL    C3220992   2.977   3.746   6.443  0.1544 -0.2188  0.0548
   81MOL    H3320993   2.802   3.631   6.493  0.3716 -0.4365 -0.5532
   81MOL    H3420994   3.040   3.491   6.365  0.1430  1.4760 -0.2351
   81MOL    H3520995   2.814   3.358   6.534  1.2083 -0.7687  1.0383
   81MOL    H3620996   2.952   3.279   6.451 -0.1930  0.3522  2.1151
   81MOL    H3720997   2.740   3.466   6.305  0.4869 -0.8990 -2.5291
   81MOL    H3820998   2.869   3.388   6.225 -1.3664 -0.2632 -1.1264
   81MOL    H3920999   3.080   3.713   6.427  0.7461  1.5240  0.1594
   81MOL    H4021000   2.983   3.824   6.519  1.2992 -0.2388  0.0004
   81MOL    C4121001   2.913   3.797   6.311  0.6499 -0.1088 -0.8292
   81MOL    C4221002   3.004   3.911   6.253 -0.3605 -0.3651  0.0797
   81MOL    C4321003   3.026   3.938   6.111 -0.5990  0.1317 -0.3910
   81MOL    C4421004   3.137   3.875   6.189 -0.0949 -0.3068 -0.0964
   81MOL    C4521005   2.769   3.851   6.329  0.2512  0.1269 -0.4389
   81MOL    H4621006   2.919   3.713   6.241  1.4388 -0.6667 -0.0981
   81MOL    H4721007   3.014   3.995   6.320  2.6265  0.5623 -1.4390
   81MOL    H4821008   2.975   3.879   6.035  0.3325  0.4200 -1.2454
   81MOL    H4921009   3.036   4.043   6.086 -1.6867  0.2810 -0.2489
   81MOL    H5021010   3.221   3.940   6.210 -0.3627 -0.7915  2.6884
   81MOL    H5121011   3.154   3.770   6.167 -0.0194  0.0144 -1.6542
   81MOL    H5221012   2.775   3.940   6.391 -1.5026  0.1346 -0.2609
   81MOL    H5321013   2.705   3.781   6.382 -0.3479  0.1576 -1.1048
   81MOL    C5421014   2.695   3.871   6.195  0.0642 -0.2405 -0.1984
   81MOL    C5521015   2.652   3.736   6.142 -0.2312  0.2157 -0.0329
   81MOL    C5621016   2.737   3.655   6.040  0.2907 -0.5754 -0.1232
   81MOL    C5721017   2.614   3.721   5.993 -0.3035 -0.2355 -0.5155
   81MOL    C5821018   2.575   3.961   6.217 -0.0805  0.1940  0.9178
   81MOL    H5921019   2.760   3.926   6.127  2.3065 -0.6547  1.5326
   81MOL    H6021020   2.603   3.671   6.213  1.7655 -2.1270 -0.7080
   81MOL    H6121021   2.838   3.694   6.026 -0.8921  2.2283 -1.1061
   81MOL    H6221022   2.722   3.548   6.051 -3.6120 -0.0805 -0.1404
   81MOL    H6321023   2.520   3.666   5.986 -0.4214  0.0573 -1.2775
   81MOL    H6421024   2.617   3.812   5.934  0.9453 -0.0523 -0.1730
   81MOL    H6521025   2.534   3.974   6.117  1.3753 -1.4788  0.0765
   81MOL    H6621026   2.494   3.908   6.267 -0.3162  1.4717  1.9273
   81MOL    C6721027   2.600   4.106   6.259  0.8867 -0.1923  0.0009
   81MOL    C6821028   2.659   4.192   6.149 -0.6826 -0.1874  0.0912
   81MOL    C6921029   2.695   4.329   6.161 -0.2400 -0.7169 -0.7752
   81MOL    C7021030   2.805   4.231   6.130  0.3926 -0.4083  0.1187
   81MOL    C7121031   2.470   4.180   6.311  0.1919  0.9185  0.4006
   81MOL    H7221032   2.664   4.117   6.346  1.1601 -0.2320 -0.1969
   81MOL    H7321033   2.631   4.154   6.051 -2.2722  1.1840  0.0109
   81MOL    H7421034   2.666   4.400   6.084  0.0165  0.2277 -0.0093
   81MOL    H7521035   2.697   4.381   6.256 -0.0767 -0.0468 -1.1461
   81MOL    H7621036   2.878   4.234   6.210  0.3898  0.4894  0.0888
   81MOL    H7721037   2.834   4.252   6.027 -0.7271 -0.0565 -0.1295
   81MOL    H7821038   2.387   4.177   6.240  0.2646  4.1263  0.1250
   81MOL    H7921039   2.495   4.286   6.311  2.3465  0.4601 -1.3407
   81MOL    C8021040   2.408   4.139   6.452  0.9014  0.2268 -0.1495
   81MOL    C8121041   2.272   4.192   6.472 -0.1964  0.1508  0.1015
   81MOL    C8221042   2.172   4.124   6.558  0.1395 -1.1491 -0.9319
   81MOL    C8321043   2.154   4.125   6.401  1.0390  0.6902 -1.1931
   81MOL    C8421044   2.503   4.162   6.575 -0.2733  0.1383  0.1904
   81MOL    H8521045   2.390   4.032   6.444  0.4332  0.1360  1.8827
   81MOL    H8621046   2.273   4.301   6.478 -2.4058  0.1830  0.2323
   81MOL    H8721047   2.105   4.189   6.613 -0.1693 -0.5398 -2.0042
   81MOL    H8821048   2.195   4.031   6.609 -1.7217 -0.8227  0.5620
   81MOL    H8921049   2.172   4.027   6.357  0.6958  0.5214 -0.9561
   81MOL    H9021050   2.063   4.173   6.369  1.5433  1.1958 -1.8650
   81MOL    H9121051   2.610   4.160   6.554 -0.1675  1.5718  0.5268
   81MOL    H9221052   2.480   4.264   6.607 -0.6252 -0.4638  1.8899
   81MOL    C9321053   2.490   4.061   6.693  0.8075  0.0992 -0.7728
   81MOL    C9421054   2.525   3.917   6.664  0.1260 -0.4700 -0.4162
   81MOL    C9521055   2.471   3.809   6.751 -0.2285  1.3643  0.5504
   81MOL    C9621056   2.427   3.813   6.608  0.6123  0.4281 -0.5120
   81MOL    C9721057   2.581   4.107   6.808 -0.1495 -0.5771  0.3099
   81MOL    H9821058   2.388   4.065   6.730  1.8616 -0.3929  2.3325
   81MOL    H9921059   2.620   3.909   6.613  0.2266  0.4209 -0.3745
   81MOL   H10021060   2.536   3.728   6.782 -1.8316 -0.9809 -1.9830
   81MOL   H10121061   2.391   3.832   6.822 -0.9796  0.2744  0.0797
   81MOL   H10221062   2.462   3.731   6.545  0.5889 -0.9611  1.2626
   81MOL   H10321063   2.321   3.833   6.592  0.3910 -0.4216 -0.1056
   81MOL   H10421064   2.678   4.146   6.779  0.0007 -2.1332 -1.3515
   81MOL   H10521065   2.595   4.024   6.877 -1.6080 -1.3039 -0.2419
   81MOL   C10621066   2.517   4.217   6.898  0.3672  0.5490  1.1469
   81MOL   C10721067   2.404   4.172   6.983  0.3092 -0.2577  0.1171
   81MOL   C10821068   2.310   4.278   7.052 -0.2721  0.0453  0.5038
   81MOL   C10921069   2.259   4.188   6.936 -0.1755  0.9077  0.3379
   81MOL   C11021070   2.630   4.299   6.972 -0.0720  0.3797  0.0214
   81MOL   H11121071   2.480   4.292   6.828  1.4212 -0.8111 -0.9210
   81MOL   H11221072   2.427   4.092   7.053  1.1338  0.2173  0.3850
   81MOL   H11321073   2.252   4.258   7.142 -0.8215  4.5870  1.3038
   81MOL   H11421074   2.326   4.384   7.033 -2.4991  0.4198  0.5229
   81MOL   H11521075   2.222   4.242   6.849 -3.1522 -2.4790 -0.6326
   81MOL   H11621076   2.204   4.094   6.946 -0.0497  0.7947  0.0010
   81MOL   H11721077   2.629   4.286   7.080 -0.2531 -2.1531 -0.2470
   81MOL   H11821078   2.730   4.261   6.952  0.2494  0.1042  2.0594
   81MOL   C11921079   2.623   4.445   6.946 -0.7914  0.6818 -0.4899
   81MOL   C12021080   2.708   4.520   7.045 -0.0488 -0.1833 -0.0993
   81MOL   C12121081   2.658   4.560   7.176 -0.0359 -0.4707 -0.9049
   81MOL   C12221082   2.657   4.663   7.072  0.4044  0.0898 -0.6476
   81MOL   C12321083   2.669   4.467   6.797 -0.2143  0.1761 -0.0278
   81MOL   H12421084   2.520   4.478   6.962 -1.8415 -2.3659 -0.7427
   81MOL   H12521085   2.806   4.476   7.058 -0.2398 -0.8283 -0.7565
   81MOL   H12621086   2.739   4.586   7.244 -0.0763 -2.1413 -0.1961
   81MOL   H12721087   2.560   4.535   7.217 -0.1078  0.3214 -0.5718
   81MOL   H12821088   2.559   4.689   7.034 -0.6451  0.0466  1.8911
   81MOL   H12921089   2.733   4.741   7.071  1.9654 -1.3606  0.1860
   81MOL   H13021090   2.777   4.482   6.792 -0.2482 -0.1068 -2.0674
   81MOL   H13121091   2.653   4.379   6.735 -1.3620  0.1395  0.3105
   81MOL   C13221092   2.586   4.584   6.730 -0.9109 -0.5541 -0.4746
   81MOL   C13321093   2.430   4.560   6.722 -0.1391  0.0300 -0.4107
   81MOL   C13421094   2.337   4.677   6.696  0.1067 -0.2814  0.1854
   81MOL   C13521095   2.355   4.622   6.831  0.0939  0.0547 -0.2001
   81MOL   C13621096   2.633   4.613   6.584 -0.2122  0.1798 -0.1580
   81MOL   H13721097   2.602   4.674   6.788  0.0247 -0.8098 -0.3300
   81MOL   H13821098   2.395   4.465   6.682  1.6179 -0.4925 -0.7574
   81MOL   H13921099   2.373   4.778   6.680 -1.5765  0.4574  1.0121
   81MOL   H14021100   2.237   4.661   6.655  1.0337 -0.2810 -2.1663
   81MOL   H14121101   2.409   4.693   6.893  1.0276 -0.5924 -0.2605
   81MOL   H14221102   2.272   4.567   6.875  1.5171 -1.8755  0.1853
   81MOL   H14321103   2.642   4.519   6.530 -1.0891 -1.2451  2.1343
   81MOL   H14421104   2.558   4.662   6.522  0.0004  0.8112  0.0743
   81MOL   C14521105   2.753   4.699   6.576 -0.3193 -1.4385 -0.2935
   81MOL   C14621106   2.796   4.696   6.429 -0.3688 -0.0402  0.0416
   81MOL   C14721107   2.938   4.732   6.408  0.1391 -0.3548 -0.3452
   81MOL   C14821108   2.885   4.594   6.375 -0.4444  0.1716  0.6010
   81MOL   C14921109   2.727   4.848   6.608 -0.2091  0.2986  0.6251
   81MOL   H15021110   2.832   4.657   6.638  1.7040  1.8995 -0.4460
   81MOL   H15121111   2.728   4.745   6.360  0.5540  1.0069 -0.1448
   81MOL   H15221112   2.951   4.808   6.331  2.1013 -0.8339 -0.5115
   81MOL   H15321113   3.000   4.743   6.497  1.9120 -3.0725 -1.1514
   81MOL   H15421114   2.917   4.510   6.436  1.8061 -0.1158 -0.8685
   81MOL   H15521115   2.889   4.570   6.269  0.1525 -0.0435  0.6728
   81MOL   H15621116   2.681   4.885   6.517 -0.0951 -1.2984 -0.1018
   81MOL   H15721117   2.648   4.862   6.682  1.4729  0.3529  2.4884
   81MOL   C15821118   2.849   4.920   6.659  0.2411 -0.3802 -0.2252
   81MOL   C15921119   2.889   4.871   6.796 -0.3475 -0.5543  0.6393
   81MOL   C16021120   2.996   4.758   6.813  0.0479  0.5335 -0.9922
   81MOL   C16121121   3.039   4.899   6.830 -0.2103  0.0924 -0.1760
   81MOL   C16221122   2.819   5.073   6.655  0.8487  0.2403 -0.6743
   81MOL   H16321123   2.930   4.899   6.590  0.1108 -0.0907 -0.4671
   81MOL   H16421124   2.829   4.919   6.874  1.0950  1.1705  0.7218
   81MOL   H16521125   3.030   4.702   6.726  0.2239  1.3201 -1.4302
   81MOL   H16621126   2.975   4.696   6.900  0.7946  2.0558  0.2859
   81MOL   H16721127   3.061   4.924   6.933  2.1367  0.9835 -0.8584
   81MOL   H16821128   3.122   4.906   6.760 -0.0411  2.0359  0.1922
   81MOL   H16921129   2.794   5.101   6.757  0.4483 -1.1326 -0.3848
   81MOL   H17021130   2.724   5.087   6.603 -0.1350  0.4052  1.1321
   81MOL   C17121131   2.923   5.164   6.599 -0.3064 -0.3573 -0.1853
   81MOL   C17221132   2.944   5.151   6.449  0.3852 -0.1596 -0.6331
   81MOL   C17321133   3.060   5.223   6.384  0.3631 -0.1997  0.0805
   81MOL   C17421134   3.054   5.075   6.380  0.3874 -0.0831 -0.1518
   81MOL   C17521135   2.886   5.314   6.624 -0.0878  0.2325  0.2810
   81MOL   H17621136   3.012   5.141   6.657 -0.8045 -1.4531  0.1454
   81MOL   H17721137   2.846   5.159   6.401 -0.0897 -0.3281  0.2831
   81MOL   H17821138   3.051   5.280   6.292  1.2936 -2.4983 -1.4575
   81MOL   H17921139   3.141   5.263   6.445  2.1229  0.7917 -2.8305
   81MOL   H18021140   3.123   5.017   6.441  0.3035 -2.6691 -2.4196
   81MOL   H18121141   3.028   5.027   6.286 -1.9359 -1.5628  1.1916
   81MOL   H18221142   2.785   5.335   6.589 -0.4214 -3.9800 -1.6349
   81MOL   H18321143   2.935   5.370   6.545 -0.9689 -0.4438 -0.7657
   81MOL   C18421144   2.927   5.386   6.760 -0.8226 -0.2723 -0.2614
   81MOL   C18521145   3.069   5.394   6.769 -0.8631 -1.0692  0.5339
   81MOL   C18621146   3.132   5.504   6.843  0.0426  0.5944 -0.3887
   81MOL   C18721147   3.149   5.496   6.694 -0.0506  0.1245  0.1203
   81MOL   C18821148   2.856   5.340   6.895  0.0480 -0.1793  0.8304
   81MOL   H18921149   2.891   5.488   6.750 -0.0674  0.1785  1.3225
   81MOL   H19021150   3.109   5.294   6.779 -0.4097 -1.1172 -1.4484
   81MOL   H19121151   3.219   5.494   6.907 -0.5430  1.9275  0.6461
   81MOL   H19221152   3.074   5.589   6.879  1.4663  1.8264 -0.9180
   81MOL   H19321153   3.251   5.479   6.662  0.0956 -0.0790  0.6892
   81MOL   H19421154   3.090   5.560   6.628 -0.6963 -0.9311 -0.3376
   81MOL   H19521155   2.897   5.390   6.983  0.9376 -1.6146  1.2435
   81MOL   H19621156   2.900   5.241   6.906  1.2419  0.2279 -0.1670
   81MOL   C19721157   2.702   5.342   6.893  0.6958 -0.7265 -0.0618
   81MOL   C19821158   2.652   5.474   6.939  0.5709 -0.4720  0.9652
   81MOL   C19921159   2.529   5.532   6.894  0.9497  0.6810 -0.0782
   81MOL   C20021160   2.649   5.597   6.847 -0.8335  0.3475  0.1401
   81MOL   C20121161   2.646   5.241   6.991 -0.5846  0.5030 -0.1549
   81MOL   H20221162   2.676   5.319   6.790  1.8181 -0.6842 -0.3616
   81MOL   H20321163   2.690   5.502   7.037  2.9326 -0.0787 -0.0293
   81MOL   H20421164   2.467   5.490   6.815 -0.5198  2.7925 -0.0669
   81MOL   H20521165   2.480   5.599   6.964 -0.9713  0.2630 -0.9975
   81MOL   H20621166   2.675   5.580   6.742  3.3103  0.9654  0.9508
   81MOL   H20721167   2.680   5.691   6.892  1.6023  0.1159 -0.9596
   81MOL   H20821168   2.703   5.148   6.986  0.2779  0.8973  1.8447
   81MOL   H20921169   2.668   5.277   7.092  0.4918  0.8184 -0.4983
   81MOL   C21021170   2.494   5.217   6.982 -0.2151  0.5484  0.4065
   81MOL   C21121171   2.459   5.127   6.865 -0.4375  0.2644  0.5540
   81MOL   C21221172   2.316   5.099   6.816  0.0244  0.4039  0.3050
   81MOL   C21321173   2.415   5.178   6.732 -0.8472  0.6359  0.0368
   81MOL   C21421174   2.454   5.148   7.114 -0.2549  0.2520  0.6517
   81MOL   H21521175   2.448   5.316   6.972 -0.9204  0.3348  1.4209
   81MOL   H21621176   2.529   5.044   6.853  0.1223  0.9946 -1.4574
   81MOL   H21721177   2.295   5.000   6.776  0.7730  0.3359  0.0732
   81MOL   H21821178   2.225   5.156   6.837  0.2193  0.5851  0.6604
   81MOL   H21921179   2.434   5.126   6.638 -0.3287  1.1394 -0.1435
   81MOL   H22021180   2.385   5.282   6.727 -2.1324  0.3443  1.3247
   81MOL   H22121181   2.483   5.043   7.110 -0.9815  0.0525  0.6940
   81MOL   H22221182   2.503   5.194   7.201  1.3343 -0.5760  0.2040
   81MOL   C22321183   2.305   5.156   7.154 -0.0134 -0.0609 -0.5072
   81MOL   C22421184   2.260   5.302   7.172  0.1467 -0.2726 -0.8218
   81MOL   C22521185   2.193   5.369   7.061 -0.1731 -0.5433  0.5454
   81MOL   C22621186   2.112   5.326   7.177  0.4935  0.4044 -0.6278
   81MOL   C22721187   2.282   5.078   7.281 -0.0277  0.1142  0.0644
   81MOL   H22821188   2.248   5.113   7.072 -2.1226  1.8606 -0.1263
   81MOL   H22921189   2.319   5.371   7.231 -1.6898 -0.9733  1.9305
   81MOL   H23021190   2.190   5.312   6.969  0.3781  0.3732 -0.0528
   81MOL   H23121191   2.202   5.477   7.047 -1.2383 -0.4760  0.3563
   81MOL   H23221192   2.068   5.408   7.234 -0.4719  0.1529 -0.9983
   81MOL   H23321193   2.042   5.244   7.161 -0.0047  0.2055  2.3977
   81MOL   H23421194   2.321   5.123   7.372  0.0061 -1.3589  0.7977
   81MOL   H23521195   2.175   5.078   7.302  0.1597  0.2878  1.0156
   81MOL   C23621196   2.309   4.924   7.276 -0.3219  0.4037  0.5420
   81MOL   C23721197   2.193   4.848   7.208 -0.6542  0.0825 -0.3591
   81MOL   C23821198   2.182   4.839   7.060 -0.8895  0.4769  0.6839
   81MOL   C23921199   2.219   4.721   7.139  0.6490  0.1208 -0.4338
   81MOL   C24021200   2.325   4.862   7.413  0.5501 -0.0599 -0.2852
   81MOL   H24121201   2.396   4.896   7.217 -0.9524  0.8299 -0.6110
   81MOL   H24221202   2.112   4.846   7.281 -1.4830 -0.0493 -1.2737
   81MOL   H24321203   2.087   4.815   7.013 -0.1654  1.5517 -1.3991
   81MOL   H24421204   2.262   4.866   6.991 -2.1098 -0.3521 -1.0759
   81MOL   H24521205   2.317   4.674   7.136  1.4854  1.5399  2.8451
   81MOL   H24621206   2.151   4.641   7.167  2.2699 -2.2114 -2.8668
   81MOL   H24721207   2.266   4.910   7.491 -0.0790 -1.2274 -0.0397
   81MOL   H24821208   2.276   4.765   7.410 -0.2403  0.2882  1.3022
   81MOL   C24921209   2.478   4.857   7.462  0.8317  0.8065 -0.0225
   81MOL   C25021210   2.510   4.771   7.584 -0.9738  0.4369 -0.1723
   81MOL   C25121211   2.536   4.622   7.577 -0.5161 -0.1483  0.1099
   81MOL   C25221212   2.650   4.715   7.600  0.1272 -0.2405  0.6537
   81MOL   C25321213   2.527   4.998   7.478 -0.3565  0.7409 -0.2302
   81MOL   H25421214   2.536   4.808   7.384 -1.5033 -1.5374 -0.3632
   81MOL   H25521215   2.465   4.792   7.680  1.7100 -1.2679  1.5137
   81MOL   H25621216   2.499   4.571   7.666 -2.9954  3.3271  1.1898
   81MOL   H25721217   2.523   4.572   7.482 -1.5184 -1.2937  0.8394
   81MOL   H25821218   2.695   4.717   7.699 -1.0436  0.0374  1.1876
   81MOL   H25921219   2.721   4.717   7.518 -2.3937  2.3804 -1.5874
   81MOL   H26021220   2.623   4.997   7.530 -0.5744  2.0912  0.2188
   81MOL   H26121221   2.457   5.052   7.542 -1.1149 -1.2201  0.6360
   81MOL   H26221222   2.545   5.056   7.388 -0.6514  0.1646 -0.6606
   82MOL     C121223   2.421   6.585   5.778 -0.3543  0.0750  0.7188
   82MOL     C221224   2.293   6.661   5.778 -0.0129  0.6424 -0.2242
   82MOL     C321225   2.255   6.730   5.911 -0.2950 -0.1281  0.0448
   82MOL     C421226   2.188   6.607   5.869 -0.3632 -0.0543  0.6985
   82MOL     C521227   2.441   6.495   5.643 -0.1016  0.1188 -0.0431
   82MOL     H621228   2.505   6.652   5.794  2.1573 -2.5010 -1.2048
   82MOL     H721229   2.277   6.716   5.685  0.5285 -0.9869 -1.3011
   82MOL     H821230   2.326   6.740   5.992 -2.6340  0.8599  2.0468
   82MOL     H921231   2.186   6.815   5.911 -0.2667 -0.1027 -1.5066
   82MOL    H1021232   2.085   6.623   5.836 -0.4162  1.1809  1.4134
   82MOL    H1121233   2.212   6.507   5.905 -0.0980  0.7689  2.8737
   82MOL    H1221234   2.346   6.449   5.614  0.7838 -1.2252 -0.8228
   82MOL    H1321235   2.503   6.418   5.689  1.2730  0.1400 -1.8543
   82MOL    H1421236   2.430   6.520   5.865 -0.5384 -1.1799 -0.1757
   82MOL    C1521237   2.519   6.565   5.530  0.2995 -0.3021 -0.5096
   82MOL    C1621238   2.651   6.635   5.581 -0.8486  0.1324  0.6311
   82MOL    C1721239   2.657   6.775   5.636 -0.7972 -0.5870  0.3336
   82MOL    C1821240   2.705   6.748   5.503  0.5096 -0.2247  0.0294
   82MOL    C1921241   2.559   6.467   5.422  0.2330  0.2034 -0.2184
   82MOL    H2021242   2.454   6.642   5.488 -0.7522 -1.0322 -0.2497
   82MOL    H2121243   2.730   6.564   5.603 -0.5840 -0.4503 -1.9870
   82MOL    H2221244   2.724   6.784   5.722 -2.7879  1.9644  1.6623
   82MOL    H2321245   2.560   6.819   5.657 -0.3749  0.6040 -0.2186
   82MOL    H2421246   2.636   6.796   5.434  0.0372  0.8145  1.2046
   82MOL    H2521247   2.812   6.737   5.483  0.7958  1.6323  0.4424
   82MOL    H2621248   2.634   6.400   5.463  1.1510  1.4338  0.1509
   82MOL    H2721249   2.609   6.516   5.338  2.8590 -2.4164 -0.2527
   82MOL    C2821250   2.447   6.379   5.365  0.0221  0.5087 -0.6532
   82MOL    C2921251   2.509   6.266   5.284 -0.5180 -0.0225  0.9720
   82MOL    C3021252   2.645   6.260   5.216  0.5810 -0.4373  0.4708
   82MOL    C3121253   2.614   6.168   5.334  0.6760 -0.1219 -0.4268
   82MOL    C3221254   2.348   6.469   5.283  0.3541 -0.4569  0.2859
   82MOL    H3321255   2.396   6.331   5.448  0.9879 -0.4771 -0.6374
   82MOL    H3421256   2.426   6.220   5.232 -0.9560 -1.1580  2.6637
   82MOL    H3521257   2.719   6.340   5.224 -1.2054  1.2637  0.2005
   82MOL    H3621258   2.645   6.205   5.122  0.5410  1.7334 -0.8348
   82MOL    H3721259   2.672   6.187   5.424  1.0834  1.0345 -0.9199
   82MOL    H3821260   2.599   6.061   5.324  2.3866 -0.3602 -0.5644
   82MOL    H3921261   2.403   6.526   5.208 -0.1984 -1.0150 -0.5540
   82MOL    H4021262   2.310   6.542   5.355 -0.2363 -2.6947  2.2676
   82MOL    C4121263   2.222   6.400   5.216  0.3795 -0.5121  0.9577
   82MOL    C4221264   2.151   6.488   5.123  0.5815 -0.3475 -0.7942
   82MOL    C4321265   2.086   6.433   5.000  0.2882  0.2754  0.4943
   82MOL    C4421266   2.204   6.522   4.987 -0.4833  0.5922 -0.1591
   82MOL    C4521267   2.132   6.332   5.319 -0.0316 -0.2106 -0.2249
   82MOL    H4621268   2.282   6.332   5.157  0.1921 -0.7574  1.0480
   82MOL    H4721269   2.095   6.562   5.180 -1.2392 -2.4119  0.2292
   82MOL    H4821270   2.112   6.329   4.981 -1.5075 -0.0878 -0.1042
   82MOL    H4921271   1.985   6.461   4.967 -0.3883  0.3993  2.6049
   82MOL    H5021272   2.183   6.623   4.951 -1.9400  0.4502  0.2779
   82MOL    H5121273   2.304   6.492   4.956 -0.3743  0.0634  0.6929
   82MOL    H5221274   2.063   6.402   5.367  1.0508  0.5703  0.2041
   82MOL    H5321275   2.187   6.303   5.409  0.2084  2.1895  0.4372
   82MOL    C5421276   2.053   6.207   5.269  0.7500  0.2288  0.8703
   82MOL    C5521277   2.156   6.094   5.249  0.2769  0.1730  0.4096
   82MOL    C5621278   2.230   6.080   5.118 -0.4669 -0.5191 -0.3415
   82MOL    C5721279   2.127   5.978   5.158  0.5563 -0.2495 -0.1171
   82MOL    C5821280   1.950   6.163   5.367  1.0425  0.2256 -0.2502
   82MOL    H5921281   2.005   6.238   5.176  1.4225 -1.2779 -0.0106
   82MOL    H6021282   2.228   6.084   5.330 -2.6809  1.4434  3.3380
   82MOL    H6121283   2.208   6.125   5.021  0.3404  0.9832  0.1630
   82MOL    H6221284   2.330   6.037   5.118 -0.8469 -1.4090 -0.1614
   82MOL    H6321285   2.157   5.881   5.196 -0.6319 -0.0760  1.2885
   82MOL    H6421286   2.025   5.983   5.120  0.3727 -2.8274 -0.0311
   82MOL    H6521287   1.893   6.079   5.329  0.9568 -1.0202  2.5001
   82MOL    H6621288   1.998   6.118   5.454  3.7000  0.9418 -1.2910
   82MOL    C6721289   1.833   6.258   5.393  0.1816 -0.0674  1.1083
   82MOL    C6821290   1.748   6.290   5.276  0.7286  0.6480 -0.3837
   82MOL    C6921291   1.650   6.408   5.271 -0.4536 -0.0435 -0.0958
   82MOL    C7021292   1.780   6.410   5.200 -0.8561 -0.7995 -0.0668
   82MOL    C7121293   1.744   6.201   5.506  0.6319 -0.3421 -0.1724
   82MOL    H7221294   1.868   6.355   5.429 -2.6841  1.1714  0.6311
   82MOL    H7321295   1.706   6.206   5.221 -2.0277  0.7271  1.4769
   82MOL    H7421296   1.560   6.405   5.209 -0.4334  1.5873 -0.2327
   82MOL    H7521297   1.647   6.480   5.353 -0.0953  0.6960 -0.7301
   82MOL    H7621298   1.850   6.481   5.243 -0.4641 -1.2202 -0.0066
   82MOL    H7721299   1.781   6.402   5.091  0.4184 -0.1395 -0.1048
   82MOL    H7821300   1.751   6.093   5.516 -1.0743 -0.7560 -2.8945
   82MOL    H7921301   1.641   6.219   5.474  0.3524 -1.1682  0.2506
   82MOL    C8021302   1.734   6.277   5.644 -0.1710 -0.6283 -0.1804
   82MOL    C8121303   1.865   6.266   5.720 -1.0392  0.0832  0.0540
   82MOL    C8221304   1.929   6.365   5.821  0.0678  0.6196  0.3454
   82MOL    C8321305   1.974   6.360   5.678 -0.1504 -1.0460 -0.1755
   82MOL    C8421306   1.625   6.205   5.725 -0.3971 -0.4075  0.1830
   82MOL    H8521307   1.707   6.381   5.629 -1.6918 -0.6459  2.2183
   82MOL    H8621308   1.898   6.162   5.717 -1.2407  0.0458 -2.0174
   82MOL    H8721309   1.993   6.322   5.897  0.4305  0.6577  0.0654
   82MOL    H8821310   1.876   6.455   5.851  1.0034  0.9990  0.8800
   82MOL    H8921311   1.954   6.449   5.618  0.9650 -2.0760 -2.1531
   82MOL    H9021312   2.070   6.313   5.657  0.1962 -0.3767 -0.1209
   82MOL    H9121313   1.538   6.206   5.659 -0.2278 -3.0472 -0.1125
   82MOL    H9221314   1.660   6.102   5.734  0.1426 -0.5832 -3.4357
   82MOL    C9321315   1.586   6.277   5.858  0.0033 -0.2772  0.2531
   82MOL    C9421316   1.509   6.411   5.839  0.3703 -0.3376  0.3165
   82MOL    C9521317   1.528   6.516   5.950  0.5541 -0.3416 -0.4281
   82MOL    C9621318   1.580   6.544   5.815 -0.2071 -1.1107  0.1249
   82MOL    C9721319   1.502   6.177   5.944  0.1111  0.0284  0.0805
   82MOL    H9821320   1.671   6.303   5.921 -0.5051 -0.2350  0.9251
   82MOL    H9921321   1.412   6.402   5.792  0.3975  0.7866  0.0294
   82MOL   H10021322   1.438   6.568   5.980  0.0608 -2.4492  1.8485
   82MOL   H10121323   1.593   6.485   6.032  2.6199  2.5455 -0.8850
   82MOL   H10221324   1.533   6.628   5.765 -1.4044 -0.8657  1.6094
   82MOL   H10321325   1.686   6.534   5.793 -0.3030  1.0361 -1.4288
   82MOL   H10421326   1.440   6.134   5.865  0.0231 -0.0302  0.1804
   82MOL   H10521327   1.436   6.230   6.013 -0.4184 -1.4015  0.7067
   82MOL   C10621328   1.581   6.068   6.016  0.0961  0.7332  0.6987
   82MOL   C10721329   1.687   6.131   6.106  1.2630 -0.1819  1.4567
   82MOL   C10821330   1.795   6.044   6.150 -0.4069  0.0104  0.0692
   82MOL   C10921331   1.824   6.166   6.060  0.2843 -0.0889 -0.5949
   82MOL   C11021332   1.499   5.968   6.103  0.4365  0.2508 -0.0263
   82MOL   H11121333   1.630   6.009   5.939 -1.0407  0.5864  0.0664
   82MOL   H11221334   1.647   6.188   6.190  0.8877  3.0805 -0.8693
   82MOL   H11321335   1.819   6.044   6.256 -0.5876  0.9693  0.1167
   82MOL   H11421336   1.815   5.959   6.085 -0.4072 -0.0710  0.1751
   82MOL   H11521337   1.862   6.134   5.963 -0.1158 -0.8463 -0.5057
   82MOL   H11621338   1.882   6.237   6.119 -0.6756 -0.0349  0.2972
   82MOL   H11721339   1.573   5.905   6.152  0.3502  0.8030  0.8308
   82MOL   H11821340   1.442   6.020   6.180  0.8585  0.5123  0.1121
   82MOL   C11921341   1.389   5.892   6.026 -0.3772  0.3091 -0.6432
   82MOL   C12021342   1.461   5.810   5.912 -0.1830 -0.1628 -0.4858
   82MOL   C12121343   1.471   5.859   5.765  0.3113  0.3461  0.2724
   82MOL   C12221344   1.389   5.734   5.806 -0.0054  0.6677  0.0627
   82MOL   C12321345   1.311   5.795   6.109 -0.1205  0.4316 -0.2766
   82MOL   H12421346   1.318   5.960   5.978  0.9643  1.8938 -0.4536
   82MOL   H12521347   1.542   5.749   5.952  0.6674  0.2049 -1.6254
   82MOL   H12621348   1.564   5.852   5.710 -1.8024 -1.2953 -3.2727
   82MOL   H12721349   1.413   5.950   5.752 -1.7648 -0.8067  1.1781
   82MOL   H12821350   1.281   5.729   5.808  0.0315  0.1680  1.8696
   82MOL   H12921351   1.439   5.642   5.778  0.8446  1.5903 -1.5494
   82MOL   H13021352   1.279   5.713   6.044 -1.3214  0.3236  0.4289
   82MOL   H13121353   1.379   5.747   6.179  0.0331  0.4227 -0.4308
   82MOL   C13221354   1.191   5.859   6.188  0.0236 -0.3598 -0.1818
   82MOL   C13321355   1.151   5.766   6.297  0.1882  0.4307  0.8068
   82MOL   C13421356   1.096   5.805   6.433  0.5158  0.0654  0.3615
   82MOL   C13521357   1.235   5.732   6.422 -0.0014 -0.1526  0.0551
   82MOL   C13621358   1.077   5.888   6.091 -0.5841  0.1640  0.2402
   82MOL   H13721359   1.235   5.948   6.235 -2.1168  0.3134  0.6081
   82MOL   H13821360   1.102   5.677   6.256 -0.7970  0.3283  2.1509
   82MOL   H13921361   1.097   5.909   6.465  2.4187 -0.4139  1.9400
   82MOL   H14021362   1.009   5.748   6.464  0.6105 -0.5980 -0.5591
   82MOL   H14121363   1.319   5.799   6.440 -0.2486 -0.0819  1.0093
   82MOL   H14221364   1.241   5.625   6.444 -0.6695 -0.2618 -0.2882
   82MOL   H14321365   1.118   5.946   6.008  2.0304  0.9269  2.0002
   82MOL   H14421366   1.030   5.806   6.036 -0.8080  0.6806 -0.3456
   82MOL   C14521367   0.968   5.972   6.144  0.5515  0.5247 -0.4330
   82MOL   C14621368   1.002   6.115   6.173 -0.1937 -1.0063  0.1361
   82MOL   C14721369   0.931   6.185   6.286 -0.0831 -0.2260 -1.0834
   82MOL   C14821370   1.084   6.160   6.291 -0.9134  0.2003  0.2292
   82MOL   C14921371   0.846   5.977   6.038 -0.4598 -0.0994  0.1764
   82MOL   H15021372   0.929   5.932   6.237  2.2514 -0.4648 -0.1274
   82MOL   H15121373   1.033   6.175   6.088  0.6400 -0.4176  0.8484
   82MOL   H15221374   0.896   6.286   6.266 -1.6140 -0.0430  2.0461
   82MOL   H15321375   0.870   6.130   6.358  1.5417 -0.7831 -0.1038
   82MOL   H15421376   1.111   6.080   6.360 -4.0906 -0.0610  1.2192
   82MOL   H15521377   1.158   6.240   6.286 -1.4621  0.5816 -2.5727
   82MOL   H15621378   0.888   6.050   5.968 -0.9330 -0.7373 -0.7666
   82MOL   H15721379   0.825   5.882   5.989  1.5964  0.0894 -1.1177
   82MOL   C15821380   0.711   6.020   6.099  0.3086 -0.2532 -0.1702
   82MOL   C15921381   0.648   5.903   6.166 -0.4281  0.0823  0.3979
   82MOL   C16021382   0.690   5.863   6.305 -0.1659 -0.3498  0.2504
   82MOL   C16121383   0.557   5.919   6.287  0.1553  0.1831 -0.2277
   82MOL   C16221384   0.602   6.073   5.999  0.6712 -0.2390  0.2560
   82MOL   H16321385   0.723   6.093   6.179  0.3987 -0.7511  0.2729
   82MOL   H16421386   0.629   5.821   6.098 -1.6680  0.7092 -0.0256
   82MOL   H16521387   0.763   5.932   6.348  0.0188 -0.2055 -0.2966
   82MOL   H16621388   0.679   5.759   6.335  2.3596 -0.6486  0.2445
   82MOL   H16721389   0.469   5.859   6.263 -0.2496 -0.1467  2.0206
   82MOL   H16821390   0.539   6.018   6.326 -1.0660 -1.3476  3.2780
   82MOL   H16921391   0.508   6.102   6.045  0.2736  0.7418 -1.1603
   82MOL   H17021392   0.570   5.990   5.936  1.1523 -2.7395  3.1667
   82MOL   C17121393   0.641   6.203   5.926 -0.1610 -0.1956  0.3371
   82MOL   C17221394   0.608   6.189   5.776  0.0804  0.1727  0.4743
   82MOL   C17321395   0.692   6.236   5.654  0.2865 -0.0976 -0.5883
   82MOL   C17421396   0.705   6.092   5.697 -0.3607 -0.1981  0.4202
   82MOL   C17521397   0.560   6.327   5.985 -1.0011  0.5149  0.2658
   82MOL   H17621398   0.749   6.221   5.926  0.1559 -1.9977  0.3757
   82MOL   H17721399   0.503   6.170   5.753  0.6807 -2.2783 -0.4091
   82MOL   H17821400   0.631   6.259   5.567  0.1615 -0.3951 -0.5793
   82MOL   H17921401   0.783   6.294   5.670  0.5001  0.0749 -2.3110
   82MOL   H18021402   0.790   6.071   5.760  0.1766  0.9774  0.1096
   82MOL   H18121403   0.659   6.018   5.632 -2.0442  0.8035  0.4208
   82MOL   H18221404   0.559   6.314   6.093 -2.0878  2.4373  0.4973
   82MOL   H18321405   0.456   6.318   5.952 -1.3397 -1.5660  1.7722
   82MOL   C18421406   0.610   6.471   5.951 -0.3196  0.2473  0.4502
   82MOL   C18521407   0.740   6.493   6.024 -0.0867 -0.4473 -0.1247
   82MOL   C18621408   0.829   6.606   5.978  0.2271 -0.0609  0.6558
   82MOL   C18721409   0.879   6.462   5.963  0.4046  0.6360  0.0574
   82MOL   C18821410   0.524   6.590   5.985  0.1830 -1.2317 -0.1609
   82MOL   H18921411   0.639   6.469   5.845 -0.4048 -1.7007  0.4378
   82MOL   H19021412   0.736   6.498   6.133  1.3388 -0.5970 -0.0561
   82MOL   H19121413   0.874   6.665   6.058  0.5943 -0.3400  0.6560
   82MOL   H19221414   0.810   6.658   5.884 -0.5825 -2.8881 -0.7919
   82MOL   H19321415   0.951   6.419   6.033 -0.5609 -0.6477  0.2904
   82MOL   H19421416   0.888   6.429   5.859 -1.6366 -1.4355  0.4784
   82MOL   H19521417   0.581   6.681   5.969 -2.8179  0.3513 -2.2491
   82MOL   H19621418   0.501   6.587   6.091 -2.3186  0.3474 -0.6182
   82MOL   C19721419   0.393   6.598   5.910 -0.1690 -0.6107 -0.4564
   82MOL   C19821420   0.409   6.587   5.759 -0.5773 -0.5464  1.0995
   82MOL   C19921421   0.290   6.549   5.684  0.2429  0.3903 -0.2826
   82MOL   C20021422   0.414   6.466   5.687 -0.3717  0.0694 -0.4961
   82MOL   C20121423   0.308   6.724   5.943  0.2479 -0.4899 -0.9748
   82MOL   H20221424   0.342   6.505   5.935 -2.6856  1.1460  1.2162
   82MOL   H20321425   0.459   6.674   5.715  0.9468 -1.4381  1.0245
   82MOL   H20421426   0.211   6.495   5.735 -0.2559 -0.9152 -2.3577
   82MOL   H20521427   0.264   6.581   5.583 -0.2174 -0.2252 -0.3614
   82MOL   H20621428   0.419   6.377   5.749 -0.7291  0.5869  0.2837
   82MOL   H20721429   0.475   6.472   5.597  1.2997 -1.1852  0.5212
   82MOL   H20821430   0.358   6.772   6.027 -1.2811  0.1054 -0.3982
   82MOL   H20921431   0.325   6.801   5.869 -0.6299 -0.9368 -1.6465
   82MOL   C21021432   0.160   6.691   5.980 -0.2251 -0.7728  0.1400
   82MOL   C21121433   0.159   6.616   6.113  0.1938 -0.0045 -0.5025
   82MOL   C21221434   0.024   6.575   6.174 -0.1653 -0.4246  0.6450
   82MOL   C21321435   0.118   6.471   6.119 -0.0484 -0.4849 -0.3962
   82MOL   C21421436   0.076   6.823   5.986  0.4672  0.5124  0.8698
   82MOL   H21521437   0.126   6.622   5.904 -1.6530 -0.5592  0.5649
   82MOL   H21621438   0.234   6.639   6.189 -0.3776  0.7699 -0.1755
   82MOL   H21721439   0.005   6.577   6.281 -0.9555 -0.5637  0.5096
   82MOL   H21821440   7.779   6.598   6.109  1.3677  0.6810 -0.9872
   82MOL   H21921441   0.157   6.404   6.196  0.8833  0.8663  0.3229
   82MOL   H22021442   0.082   6.410   6.036 -0.2511  0.5450 -1.0652
   82MOL   H22121443   0.014   6.829   6.076 -1.0425  0.4645 -0.1563
   82MOL   H22221444   0.143   6.909   5.982  0.2598  0.6365 -0.0528
   82MOL   C22321445   7.825   6.833   5.865 -0.3730 -0.0479  0.0909
   82MOL   C22421446   7.701   6.748   5.876  0.3180  0.2324  0.6132
   82MOL   C22521447   7.592   6.775   5.984  0.0135  0.7629  0.1595
   82MOL   C22621448   7.559   6.793   5.834 -0.0148 -0.4113  0.2942
   82MOL   C22721449   0.058   6.834   5.721 -0.2233 -0.2554 -0.1293
   82MOL   H22821450   7.784   6.933   5.882 -0.8759  0.3413 -3.1015
   82MOL   H22921451   7.723   6.649   5.838 -0.1868  0.1231  0.6045
   82MOL   H23021452   7.618   6.856   6.051  0.0104  0.7004  0.2361
   82MOL   H23121453   7.546   6.682   6.017 -3.4490  0.8028 -4.1328
   82MOL   H23221454   7.490   6.723   5.788  1.6971 -1.4482 -0.7489
   82MOL   H23321455   7.549   6.892   5.789  1.3762 -0.6556 -0.5614
   82MOL   H23421456   0.153   6.888   5.730  0.2007 -1.0804  0.3659
   82MOL   H23521457   0.073   6.729   5.697  3.5284 -0.1268  1.2621
   82MOL   C23621458   7.828   6.899   5.604 -0.2708  0.3814  0.0993
   82MOL   C23721459   0.060   6.837   5.481  0.5375 -0.0717 -0.8550
   82MOL   C23821460   0.024   6.697   5.423  0.6370  0.1773  0.0097
   82MOL   C23921461   0.004   6.825   5.347  0.4852 -0.5064 -0.4156
   82MOL   C24021462   7.833   7.055   5.608  0.0170  0.8529 -0.0264
   82MOL   H24121463   7.730   6.851   5.603 -0.5175  0.8864 -1.0664
   82MOL   H24221464   0.168   6.838   5.493  0.5516 -1.0172 -0.8649
   82MOL   H24321465   0.101   6.629   5.388 -2.4200 -3.1294 -0.6029
   82MOL   H24421466   7.769   6.646   5.445  1.9956 -2.3194  0.2452
   82MOL   H24521467   7.741   6.836   5.311 -0.5754 -1.5804  2.2119
   82MOL   H24621468   0.084   6.859   5.281 -0.0380 -2.0976 -1.9249
   82MOL   H24721469   7.838   7.093   5.710  0.4948  1.5270 -0.2983
   82MOL   H24821470   0.085   7.088   5.557  1.2944 -0.2260  1.5112
   82MOL   C24921471   7.715   7.131   5.533  0.0857  0.4802 -0.3947
   82MOL   C25021472   7.715   7.285   5.567  0.3140 -0.0242  0.3615
   82MOL   C25121473   7.629   7.391   5.511  0.2522  0.1196  0.2923
   82MOL   C25221474   7.600   7.342   5.652  0.0678 -0.1212 -0.0240
   82MOL   C25321475   7.577   7.049   5.521  0.0025  0.1929  0.8871
   82MOL   H25421476   7.764   7.134   5.436  0.7702 -1.2726 -0.1162
   82MOL   H25521477   7.818   7.311   5.590 -0.2147  0.6678  1.9791
   82MOL   H25621478   7.674   7.487   5.488  0.6929  0.1390  1.2247
   82MOL   H25721479   7.574   7.347   5.428  2.2796 -2.1276  0.0595
   82MOL   H25821480   7.631   7.407   5.734 -2.4017 -0.0481  0.8773
   82MOL   H25921481   7.514   7.282   5.678  0.6468  0.1157  2.5793
   82MOL   H26021482   7.542   7.018   5.620 -0.0264  1.2139  1.1999
   82MOL   H26121483   7.591   6.962   5.457 -0.7651  0.6188  0.1315
   82MOL   H26221484   7.492   7.107   5.485 -0.4902 -1.0420  0.0032
   83MOL     C121485   5.425   7.591   6.536  0.0661 -0.2526  0.0252
   83MOL     C221486   5.403   7.575   6.389 -0.5185 -0.7649  0.4088
   83MOL     C321487   5.337   7.453   6.328  0.2238 -0.5088  0.3846
   83MOL     C421488   5.487   7.471   6.307  0.1469 -0.4704 -0.0206
   83MOL     C521489   5.300   7.634   6.609  0.2130 -0.1307 -0.5137
   83MOL     H621490   5.473   7.502   6.576 -1.0606 -1.6170 -1.5950
   83MOL     H721491   5.380   7.673   6.347 -3.1150 -1.3886  0.3027
   83MOL     H821492   5.305   7.380   6.401 -1.8193 -1.6136 -1.5261
   83MOL     H921493   5.276   7.464   6.238  1.3341 -1.7348 -0.5533
   83MOL    H1021494   5.514   7.501   6.206 -1.1693 -2.7289 -1.0904
   83MOL    H1121495   5.559   7.404   6.354  0.3009  0.5402  1.2162
   83MOL    H1221496   5.211   7.605   6.553  0.3861  1.0948 -1.4530
   83MOL    H1321497   5.289   7.741   6.593 -0.2181  0.0338  0.8561
   83MOL    H1421498   5.493   7.676   6.549 -0.8860  0.5409 -0.1091
   83MOL    C1521499   5.281   7.613   6.763  1.0213 -0.3782 -0.3730
   83MOL    C1621500   5.398   7.665   6.835  0.0185  0.0929 -0.2746
   83MOL    C1721501   5.506   7.572   6.876  0.2216  0.6336 -0.0124
   83MOL    C1821502   5.419   7.633   6.980  0.2137  0.4230 -0.0435
   83MOL    C1921503   5.155   7.687   6.805  0.2969  0.1995 -0.0812
   83MOL    H2021504   5.277   7.505   6.774 -0.9331 -0.2507  0.2276
   83MOL    H2121505   5.439   7.763   6.811 -1.7853  0.5731 -1.5357
   83MOL    H2221506   5.607   7.612   6.867  0.1296  0.8182 -0.2062
   83MOL    H2321507   5.491   7.467   6.853  0.5883  0.7241 -0.6766
   83MOL    H2421508   5.345   7.565   7.023 -0.6461  0.4809 -1.3937
   83MOL    H2521509   5.461   7.713   7.041 -2.8034  0.9803  1.3864
   83MOL    H2621510   5.156   7.789   6.766  2.6319  0.8653  1.6104
   83MOL    H2721511   5.155   7.689   6.914  0.6571 -2.7309  0.0196
   83MOL    C2821512   5.021   7.611   6.765 -0.5212 -0.1278 -0.0835
   83MOL    C2921513   4.901   7.705   6.765  0.3200  0.0057  0.5090
   83MOL    C3021514   4.877   7.796   6.643  0.0691 -1.0105 -0.7589
   83MOL    C3121515   4.785   7.686   6.674  0.3243  0.6252 -0.0180
   83MOL    C3221516   5.005   7.486   6.846 -0.6151  0.5335 -0.4475
   83MOL    H3321517   5.031   7.575   6.663  3.8715 -2.1984  0.9328
   83MOL    H3421518   4.885   7.751   6.863  0.7977  3.3607 -0.9087
   83MOL    H3521519   4.939   7.787   6.554  2.5664  1.9575  0.5709
   83MOL    H3621520   4.851   0.055   6.683 -2.7099 -2.4377  1.0650
   83MOL    H3721521   4.687   7.716   6.711  0.4362 -1.3289  1.9950
   83MOL    H3821522   4.795   7.595   6.615 -2.2451  1.3137 -1.5918
   83MOL    H3921523   4.952   7.520   6.935  2.1138  3.3510  0.1627
   83MOL    H4021524   5.097   7.444   6.886 -1.3207  0.6352  1.3288
   83MOL    C4121525   4.931   7.372   6.772 -0.7591 -0.3525 -0.0846
   83MOL    C4221526   4.825   7.306   6.872 -0.5272 -0.0269  0.8224
   83MOL    C4321527   4.694   7.231   6.823 -0.2795  0.0907 -0.8811
   83MOL    C4421528   4.688   7.365   6.893 -0.8731  0.0026  0.7932
   83MOL    C4521529   5.039   7.273   6.711  0.8109  0.3387 -0.5046
   83MOL    H4621530   4.870   7.406   6.688 -1.4072 -1.9322 -0.2739
   83MOL    H4721531   4.878   7.274   6.961 -0.2969 -0.8813  0.3824
   83MOL    H4821532   4.649   7.229   6.724  0.0859 -0.5670 -1.0327
   83MOL    H4921533   4.681   7.146   6.889  2.3544 -0.3635 -0.9307
   83MOL    H5021534   4.644   7.352   6.991 -0.0099 -0.9247  1.0617
   83MOL    H5121535   4.670   7.452   6.829  2.3020 -1.3378 -2.1028
   83MOL    H5221536   5.072   7.212   6.795  1.1554  1.2488  0.0270
   83MOL    H5321537   5.128   7.328   6.679  0.7972  1.6373  1.5212
   83MOL    C5421538   4.989   7.192   6.591  0.6125  0.0934 -0.1249
   83MOL    C5521539   4.976   7.281   6.474  1.1221 -0.4961  0.1007
   83MOL    C5621540   4.832   7.326   6.439  0.1377  0.1484  0.2382
   83MOL    C5721541   4.906   7.223   6.350  0.3006  0.1566 -0.2936
   83MOL    C5821542   5.090   7.080   6.562  0.4412 -0.0817 -0.1396
   83MOL    H5921543   4.888   7.153   6.607  0.2781  1.8962  2.5633
   83MOL    H6021544   5.061   7.347   6.456 -0.6265  1.9730  0.6255
   83MOL    H6121545   4.752   7.290   6.504  0.9020 -1.5025  0.3021
   83MOL    H6221546   4.813   7.427   6.404 -0.0845  0.1794  0.4500
   83MOL    H6321547   4.946   7.249   6.252  0.6007 -2.3369 -0.8718
   83MOL    H6421548   4.866   7.122   6.359 -1.5546  0.6975 -2.0654
   83MOL    H6521549   5.086   7.058   6.456  1.3097 -1.3059  0.0779
   83MOL    H6621550   5.192   7.117   6.578  0.2956  0.0323  0.5249
   83MOL    C6721551   5.068   6.952   6.651  0.3438 -0.2558  0.1911
   83MOL    C6821552   4.933   6.889   6.611 -0.8663 -0.3391  0.5947
   83MOL    C6921553   4.868   6.784   6.694  0.6121  0.2052  0.1958
   83MOL    C7021554   4.813   6.923   6.702  0.2267  0.0178  1.0783
   83MOL    C7121555   5.183   6.857   6.648 -0.2414  0.4589 -0.3704
   83MOL    H7221556   5.052   6.979   6.756  0.2828  1.5916 -0.2930
   83MOL    H7321557   4.920   6.868   6.505  0.8238 -1.4620  0.5919
   83MOL    H7421558   4.804   6.709   6.649  0.3999  1.1553 -1.1015
   83MOL    H7521559   4.922   6.749   6.782  0.5231  3.2459  1.5441
   83MOL    H7621560   4.817   6.971   6.800 -4.2037  3.2357 -0.1576
   83MOL    H7721561   4.721   6.941   6.647  2.4530  1.6930 -2.2918
   83MOL    H7821562   5.209   6.844   6.543  1.1515  0.7285 -0.0805
   83MOL    H7921563   5.153   6.761   6.689 -0.1266  1.2928  1.7333
   83MOL    C8021564   5.313   6.892   6.725 -0.5126 -0.4802 -0.1994
   83MOL    C8121565   5.428   6.806   6.675 -0.7604 -0.0245  0.2598
   83MOL    C8221566   5.574   6.859   6.673  0.9201 -0.2443 -0.4830
   83MOL    C8321567   5.499   6.838   6.545  0.0290 -0.4179  0.1331
   83MOL    C8421568   5.291   6.876   6.874 -0.0477  0.0970 -0.1452
   83MOL    H8521569   5.340   6.996   6.704  1.4144 -0.7064  1.0224
   83MOL    H8621570   5.411   6.699   6.686  2.2881 -0.6021 -0.2896
   83MOL    H8721571   5.647   6.786   6.707  0.7115  0.4742  1.6147
   83MOL    H8821572   5.597   6.963   6.695 -0.3025  0.1825 -1.1927
   83MOL    H8921573   5.468   6.927   6.492 -0.0781 -0.8356 -0.5084
   83MOL    H9021574   5.531   6.756   6.482 -2.8748 -1.2000 -0.4219
   83MOL    H9121575   5.191   6.916   6.889  0.1572  0.5133  0.1457
   83MOL    H9221576   5.292   6.775   6.913 -1.1417  0.3653  0.6113
   83MOL    C9321577   5.386   6.956   6.965 -0.6409  0.0291 -0.6879
   83MOL    C9421578   5.364   7.109   6.947  0.2200 -0.1530  0.4402
   83MOL    C9521579   5.451   7.217   6.996 -0.1436 -0.2346 -0.2774
   83MOL    C9621580   5.449   7.192   6.851  0.0486 -0.2249  0.2067
   83MOL    C9721581   5.367   6.925   7.114 -0.2961 -0.5441 -0.6435
   83MOL    H9821582   5.490   6.934   6.941 -0.1976 -0.3913  1.4766
   83MOL    H9921583   5.257   7.130   6.941  0.2160 -0.3361 -0.1435
   83MOL   H10021584   5.400   7.307   7.027  0.5675  0.3759 -0.8451
   83MOL   H10121585   5.537   7.178   7.052 -0.3563 -0.0987  0.1396
   83MOL   H10221586   5.389   7.259   6.790  1.5097  1.9870  1.1492
   83MOL   H10321587   5.536   7.148   6.804 -0.9985 -1.6642 -0.4436
   83MOL   H10421588   5.262   6.944   7.137  0.6039  1.7332  1.7982
   83MOL   H10521589   5.428   6.995   7.170 -0.5792 -0.7512 -0.0695
   83MOL   C10621590   5.406   6.783   7.167  0.1820  0.3443 -0.0334
   83MOL   C10721591   5.556   6.766   7.173 -0.1896  0.2044  0.2426
   83MOL   C10821592   5.630   6.641   7.161  0.3622 -0.1438 -0.1589
   83MOL   C10921593   5.629   6.738   7.045 -0.4051 -0.1470  0.0813
   83MOL   C11021594   5.333   6.739   7.299  0.4161  0.9609 -0.0343
   83MOL   H11121595   5.360   6.713   7.098  1.4191  0.0994 -0.6130
   83MOL   H11221596   5.604   6.845   7.230 -0.1746  0.6583 -0.3903
   83MOL   H11321597   5.716   6.646   7.228  0.4670 -1.5782 -0.1686
   83MOL   H11421598   5.584   6.546   7.136  0.4957 -0.3492  0.3596
   83MOL   H11521599   5.571   6.707   6.959 -0.2590 -1.0120  0.2816
   83MOL   H11621600   5.714   6.801   7.018 -1.6434  0.5371 -2.3379
   83MOL   H11721601   5.228   6.764   7.284 -0.1200 -0.6351  1.0214
   83MOL   H11821602   5.349   6.632   7.311 -0.3232  0.6858 -1.3874
   83MOL   C11921603   5.369   6.804   7.424  0.1252  0.9339 -0.4873
   83MOL   C12021604   5.357   6.960   7.428  0.2570 -0.1709 -0.0050
   83MOL   C12121605   5.477   7.046   7.417 -0.3799  0.3197 -0.4991
   83MOL   C12221606   5.405   7.023   7.550  0.3068  0.1810 -0.0051
   83MOL   C12321607   5.290   6.745   7.546 -0.3257  0.5015  0.5588
   83MOL   H12421608   5.474   6.775   7.432 -0.3318 -1.5640 -2.7666
   83MOL   H12521609   5.261   6.996   7.393  0.8134  1.9067  0.5270
   83MOL   H12621610   5.470   7.151   7.390 -1.3110  0.2078 -0.7135
   83MOL   H12721611   5.572   6.998   7.391 -1.0729 -0.1758 -2.1882
   83MOL   H12821612   5.471   6.978   7.624  0.3109  1.2507  0.6670
   83MOL   H12921613   5.353   7.110   7.591  0.0225  0.3525 -0.7357
   83MOL   H13021614   5.272   6.820   7.622 -0.1219  2.0133 -0.8546
   83MOL   H13121615   5.187   6.728   7.514  0.6783 -0.3737 -2.3815
   83MOL   C13221616   5.346   6.617   7.615  0.3888  0.1655  0.0646
   83MOL   C13321617   5.236   6.544   7.687 -0.0057  0.0450  0.1304
   83MOL   C13421618   5.225   6.395   7.685 -0.0828  0.6628 -0.9169
   83MOL   C13521619   5.137   6.477   7.593  0.3781  0.0360 -0.1891
   83MOL   C13621620   5.461   6.644   7.706 -0.2145  0.7663  0.2273
   83MOL   H13721621   5.391   6.562   7.533  1.5937 -0.6714  1.2502
   83MOL   H13821622   5.184   6.603   7.763 -2.6670 -0.2839 -1.3560
   83MOL   H13921623   5.299   6.328   7.642 -1.3269 -1.7988  0.6814
   83MOL   H14021624   5.178   6.348   7.772  1.5295  2.8801  1.2468
   83MOL   H14121625   5.163   6.479   7.488 -0.7352 -0.0548 -0.4673
   83MOL   H14221626   5.035   6.492   7.627  1.7195  0.2212  4.0434
   83MOL   H14321627   5.539   6.682   7.639 -1.7306  0.3814 -1.8045
   83MOL   H14421628   5.438   6.730   7.769  0.0787  0.1285  1.2121
   83MOL   C14521629   5.520   6.535   7.797  0.4964 -0.3535  0.9624
   83MOL   C14621630   5.590   6.425   7.718 -0.2489  0.1542  0.8492
   83MOL   C14721631   5.660   6.323   7.797  0.5839 -0.2043  0.3118
   83MOL   C14821632   5.541   6.289   7.714  0.1304  0.6991 -0.5310
   83MOL   C14921633   5.613   6.594   0.067  0.3915  0.1820  0.2288
   83MOL   H15021634   5.447   6.484   0.020  1.1880 -3.1047 -0.4177
   83MOL   H15121635   5.660   6.464   7.644 -0.8682 -2.0876 -0.9758
   83MOL   H15221636   5.757   6.284   7.766  0.4669  1.1634 -1.8367
   83MOL   H15321637   5.642   6.328   0.065 -1.6917  1.9510 -0.1416
   83MOL   H15421638   5.451   6.264   7.770  0.8936  0.3947  0.5802
   83MOL   H15521639   5.556   6.253   7.613  1.1829  3.3049 -1.3375
   83MOL   H15621640   5.688   6.519   0.089 -0.0056 -0.8214 -1.7090
   83MOL   H15721641   5.667   6.674   0.015 -0.8768  0.3051 -0.9359
   83MOL   C15821642   5.558   6.648   0.199 -0.0730 -0.2655 -1.1336
   83MOL   C15921643   5.426   6.727   0.182  0.8298 -0.2164  0.6610
   83MOL   C16021644   5.288   6.662   0.169  0.4698 -0.1409 -0.5380
   83MOL   C16121645   5.328   6.738   0.296  0.0607 -0.7707 -0.0718
   83MOL   C16221646   5.649   6.732   0.297 -0.4097 -0.6568 -0.6598
   83MOL   H16321647   5.526   6.554   0.245 -1.1747  1.0422  0.8309
   83MOL   H16421648   5.449   6.815   0.123 -0.4011 -0.5380 -0.3341
   83MOL   H16521649   5.272   6.554   0.171 -0.3040 -0.0169  1.6287
   83MOL   H16621650   5.224   6.716   0.099 -0.6472  1.9646  1.9855
   83MOL   H16721651   5.278   6.832   0.316 -1.7257 -1.5324 -0.8136
   83MOL   H16821652   5.352   6.676   0.383  4.1058 -1.1328 -1.3359
   83MOL   H16921653   5.602   6.821   0.338 -1.2504 -1.7660  0.8228
   83MOL   H17021654   5.725   6.779   0.235 -2.7748  0.3384 -2.9382
   83MOL   C17121655   5.725   6.668   0.413 -0.8114  0.0634  0.0855
   83MOL   C17221656   5.624   6.604   0.511 -0.1244  0.3118  0.3758
   83MOL   C17321657   5.645   6.604   0.663 -0.2882 -1.3299  0.3213
   83MOL   C17421658   5.538   6.693   0.593 -0.1179 -0.1536  0.4367
   83MOL   C17521659   5.836   6.565   0.366  0.0997  0.6611  0.5151
   83MOL   H17621660   5.787   6.738   0.469 -0.5350 -0.8029  0.8863
   83MOL   H17721661   5.579   6.516   0.466 -1.4062  1.2917 -0.3090
   83MOL   H17821662   5.608   6.514   0.713 -1.1445 -0.4156  1.3423
   83MOL   H17921663   5.714   6.659   0.727 -0.2002 -2.6509  1.4021
   83MOL   H18021664   5.545   6.802   0.588  0.4123 -0.0886  2.2269
   83MOL   H18121665   5.434   6.660   0.594  0.4242 -1.9916 -1.3075
   83MOL   H18221666   5.784   6.484   0.316  0.1532  1.4273 -0.8209
   83MOL   H18321667   5.873   6.512   0.454  0.3739 -0.1184 -0.0681
   83MOL   C18421668   5.971   6.609   0.294 -1.0520 -0.5672 -0.2970
   83MOL   C18521669   6.056   6.486   0.260  0.3430  0.1054  0.2412
   83MOL   C18621670   6.111   6.473   0.113 -0.3297  0.2748  0.4935
   83MOL   C18721671   6.013   6.373   0.165 -0.3479 -0.1530  0.4297
   83MOL   C18821672   6.049   6.707   0.380  0.5733 -0.6573  0.5647
   83MOL   H18921673   5.945   6.656   0.199 -0.6847  1.0231  0.3674
   83MOL   H19021674   6.115   6.447   0.342  0.8389  0.1588 -0.0866
   83MOL   H19121675   6.212   6.433   0.100 -0.7337 -0.3717 -0.7013
   83MOL   H19221676   6.070   6.542   0.039  0.4391 -0.2461 -0.4409
   83MOL   H19321677   6.052   6.273   0.183  0.8753  0.0323 -1.1142
   83MOL   H19421678   5.913   6.366   0.122 -0.5189 -0.2415  0.8351
   83MOL   H19521679   6.069   6.667   0.480  1.2939  1.2998  1.2155
   83MOL   H19621680   5.983   6.788   0.408 -0.9780 -0.7012 -2.6848
   83MOL   C19721681   6.180   6.768   0.328  0.3616 -0.3018 -0.5921
   83MOL   C19821682   6.237   6.843   0.447 -0.5723  0.8191  0.3552
   83MOL   C19921683   6.385   6.858   0.469  0.2573 -0.5986  0.3316
   83MOL   C20021684   6.303   6.768   0.553 -0.2627 -0.5297 -0.3599
   83MOL   C20121685   6.164   6.870   0.208 -0.5312  0.0332  0.0365
   83MOL   H20221686   6.252   6.689   0.305  0.9047  0.4738 -1.5886
   83MOL   H20321687   6.161   6.908   0.490  1.1812  2.6138  0.8369
   83MOL   H20421688   6.452   6.803   0.403 -0.4203  0.0660 -0.9202
   83MOL   H20521689   6.432   6.943   0.518  0.5529  0.3083 -1.4703
   83MOL   H20621690   6.324   6.661   0.547  1.3668 -0.2764  0.3408
   83MOL   H20721691   6.289   6.804   0.655 -1.7604  3.2158 -1.8095
   83MOL   H20821692   6.084   6.824   0.150 -0.4700 -0.1552  0.1004
   83MOL   H20921693   6.128   6.966   0.246  1.3214 -0.0835  2.1938
   83MOL   C21021694   6.295   6.879   0.120  0.6889  0.7798 -0.8308
   83MOL   C21121695   6.324   6.751   0.047 -0.4524 -0.3176  0.3252
   83MOL   C21221696   6.458   6.742   7.814 -0.8786  0.0786  0.0437
   83MOL   C21321697   6.432   6.661   0.093 -0.9765  0.0429  0.3512
   83MOL   C21421698   6.291   6.999   0.030  0.2081  0.2700 -0.0561
   83MOL   H21521699   6.379   6.891   0.188 -0.4272 -1.8067  1.1097
   83MOL   H21621700   6.235   6.708   0.003 -0.7935  1.5870 -0.9156
   83MOL   H21721701   6.441   6.701   7.715 -1.5767  2.7493 -1.0141
   83MOL   H21821702   6.535   6.818   7.825  0.7814 -1.5915  0.2135
   83MOL   H21921703   6.441   6.554   0.075  1.2559  0.5116 -1.5702
   83MOL   H22021704   6.485   6.692   0.183 -0.3237  1.1533 -0.4162
   83MOL   H22121705   6.373   6.990   7.797  0.2434  2.4649 -0.3274
   83MOL   H22221706   6.198   7.000   7.812  0.2613  2.0288 -0.1197
   83MOL   C22321707   6.306   7.136   0.103  0.1331 -0.1528  0.8689
   83MOL   C22421708   6.274   7.257   0.013  0.0907  0.3536 -0.0268
   83MOL   C22521709   6.138   7.279   7.799  0.4235  0.2429  0.1099
   83MOL   C22621710   6.193   7.374   0.064  0.7692  0.0320  0.4157
   83MOL   C22721711   6.446   7.164   0.167  0.7360 -0.9211  0.0040
   83MOL   H22821712   6.231   7.142   0.183 -1.0671 -0.7594 -0.1986
   83MOL   H22921713   6.358   7.275   7.785 -0.7584 -4.9125 -2.7580
   83MOL   H23021714   6.054   7.215   7.822  0.9910 -0.4474  0.2824
   83MOL   H23121715   6.148   7.300   7.692 -1.3580 -0.8263 -0.2750
   83MOL   H23221716   6.239   7.471   0.047  0.4130  0.2638  0.7511
   83MOL   H23321717   6.144   7.370   0.162  1.0123  2.7799  0.6974
   83MOL   H23421718   6.486   7.079   0.223 -0.5130 -0.3173  1.8749
   83MOL   H23521719   6.510   7.171   0.080 -0.3725  2.7382 -0.5883
   83MOL   C23621720   6.455   7.292   0.255 -0.8629  0.1030 -0.4525
   83MOL   C23721721   6.601   7.345   0.260 -0.3564  0.6520 -0.1675
   83MOL   C23821722   6.644   7.434   0.153 -1.0665  0.2753  0.3099
   83MOL   C23921723   6.631   7.493   0.293 -0.3891 -0.0072  0.3272
   83MOL   C24021724   6.399   7.248   0.394  0.3102 -0.6610  0.3990
   83MOL   H24121725   6.400   7.380   0.222 -1.0094 -0.7167 -2.4583
   83MOL   H24221726   6.669   7.270   0.299 -0.1542  1.4800  1.1239
   83MOL   H24321727   6.741   7.425   0.106 -2.0768  1.0818 -2.0058
   83MOL   H24421728   6.566   7.469   0.086  0.1672  1.4823 -0.4959
   83MOL   H24521729   6.543   7.556   0.305 -0.3512  0.0188  0.4703
   83MOL   H24621730   6.716   7.504   0.360  1.4485 -0.0708 -1.9550
   83MOL   H24721731   6.291   7.250   0.378  0.6438  0.8249 -1.9975
   83MOL   H24821732   6.430   7.149   0.427  2.5820 -0.3814 -0.7943
   83MOL   C24921733   6.415   7.348   0.513  0.5288 -0.3820  1.3543
   83MOL   C25021734   6.393   7.268   0.640 -0.2712  0.2388  0.0868
   83MOL   C25121735   6.487   7.167   0.695  0.9417  0.7352 -0.4239
   83MOL   C25221736   6.465   7.301   0.762  0.0846  0.4879 -0.3463
   83MOL   C25321737   6.332   7.476   0.515 -0.4987  0.4764  0.0710
   83MOL   H25421738   6.517   7.387   0.509 -0.1742  1.3363 -0.4043
   83MOL   H25521739   6.286   7.253   0.654 -0.4237  0.5393 -0.7265
   83MOL   H25621740   6.431   7.085   0.739  0.9048  1.6039  1.1919
   83MOL   H25721741   6.575   7.151   0.634  1.1390 -0.6055  0.1991
   83MOL   H25821742   6.424   7.303   0.863  0.9021 -3.7402  0.1399
   83MOL   H25921743   6.554   7.362   0.747  0.4819 -0.5580 -2.3524
   83MOL   H26021744   6.225   7.464   0.499 -0.5774 -0.3367  1.1728
   83MOL   H26121745   6.369   7.551   0.446  0.5571  0.1424  0.2609
   83MOL   H26221746   6.348   7.530   0.609  3.2579  3.1228 -1.9833
   84MOL     C121747   5.945   2.962   0.209  0.4758 -0.3784 -0.2933
   84MOL     C221748   6.051   2.902   0.297  0.4176 -0.5966 -0.4345
   84MOL     C321749   6.101   2.768   0.264  0.4184 -0.6222 -0.3109
   84MOL     C421750   6.013   2.792   0.388 -0.6702  0.2728 -0.0924
   84MOL     C521751   5.849   3.051   0.293 -0.3151 -0.3326 -0.8424
   84MOL     H621752   5.992   3.035   0.142 -0.2898  0.6938  0.3158
   84MOL     H721753   6.141   2.960   0.316 -0.9704  1.4481 -0.0372
   84MOL     H821754   6.060   2.706   0.185 -0.9679 -0.6213  0.3810
   84MOL     H921755   6.198   2.733   0.297  0.4235  0.3046  0.6907
   84MOL    H1021756   6.054   2.778   0.488 -0.9758 -0.0294 -0.0083
   84MOL    H1121757   5.911   2.756   0.384 -0.5877  0.0313 -0.0672
   84MOL    H1221758   5.899   3.144   0.322 -2.3250  0.5535 -0.1210
   84MOL    H1321759   5.836   3.013   0.394 -0.4831  0.6751 -0.4796
   84MOL    H1421760   5.896   2.887   0.147 -0.1819 -0.1818 -0.0062
   84MOL    C1521761   5.714   3.082   0.236 -0.4449 -0.2897  0.7321
   84MOL    C1621762   5.610   2.974   0.234  0.2948 -0.5076  0.1402
   84MOL    C1721763   5.589   2.883   0.343  0.7132  0.2870  0.4634
   84MOL    C1821764   5.643   2.827   0.216 -0.1112  0.1324 -0.3066
   84MOL    C1921765   5.654   3.213   0.288  0.0899 -0.0503 -0.2697
   84MOL    H2021766   5.749   3.108   0.136 -0.2550  1.0013  1.1212
   84MOL    H2121767   5.513   3.000   0.193 -0.5168 -0.5961  2.0112
   84MOL    H2221768   5.486   2.862   0.371  1.1281 -1.3109  0.8249
   84MOL    H2321769   5.653   2.899   0.429  0.3776  1.6138  0.4740
   84MOL    H2421770   5.740   2.786   0.244  0.8640  1.2099 -2.0415
   84MOL    H2521771   5.591   2.763   0.145 -1.2709 -0.1651  0.7930
   84MOL    H2621772   5.736   3.283   0.303 -0.6681  0.7365  0.3003
   84MOL    H2721773   5.616   3.210   0.391 -0.2848  0.5420 -0.3889
   84MOL    C2821774   5.546   3.279   0.199  0.1977 -0.3026  0.3413
   84MOL    C2921775   5.582   3.424   0.176 -0.0678  1.0319 -0.7843
   84MOL    C3021776   5.694   3.472   0.082  0.1567  0.7508 -0.2273
   84MOL    C3121777   5.550   3.486   0.042  0.1711  0.5235  0.1788
   84MOL    C3221778   5.405   3.266   0.261 -0.5270 -0.1781  0.4651
   84MOL    H3321779   5.548   3.231   0.101  0.4056  0.2937  0.0530
   84MOL    H3421780   5.580   3.477   0.271 -0.3836 -0.6333  0.1696
   84MOL    H3521781   5.754   3.393   0.036 -0.5043 -1.5005  2.5999
   84MOL    H3621782   5.759   3.554   0.112  1.3695 -0.4762  0.6125
   84MOL    H3721783   5.521   3.422   7.799 -1.4044  1.4882 -0.0287
   84MOL    H3821784   5.523   3.589   0.020  0.8146  0.4003 -1.2568
   84MOL    H3921785   5.411   3.343   0.338 -0.0485  0.1495  0.0968
   84MOL    H4021786   5.393   3.165   0.302 -1.4839 -0.6555 -0.9614
   84MOL    C4121787   5.291   3.289   0.163  0.1133 -0.0226  0.4428
   84MOL    C4221788   5.175   3.327   0.247 -0.1889 -0.0005  0.4638
   84MOL    C4321789   5.048   3.401   0.202 -0.7279  0.4019  0.2521
   84MOL    C4421790   5.151   3.477   0.280 -0.6306 -0.8835  0.3128
   84MOL    C4521791   5.268   3.158   0.081  0.0792 -0.0121 -0.4487
   84MOL    H4621792   5.318   3.370   0.096  2.6579 -0.1404  1.2637
   84MOL    H4721793   5.154   3.254   0.326  0.8468  2.2200  2.8664
   84MOL    H4821794   5.042   3.434   0.099  2.7583  2.2260  0.5599
   84MOL    H4921795   4.949   3.382   0.244 -0.8751  1.2355  0.3041
   84MOL    H5021796   5.142   3.508   0.384 -2.2916 -0.8678  0.1775
   84MOL    H5121797   5.214   3.539   0.217  0.1782  0.6276  2.5575
   84MOL    H5221798   5.232   3.078   0.145 -2.9782  0.6018 -1.3361
   84MOL    H5321799   5.362   3.126   0.036  0.2039  1.1518 -1.0310
   84MOL    C5421800   5.184   3.181   7.792  0.0227  0.1040  0.3282
   84MOL    C5521801   5.243   3.266   7.678 -0.2300  0.1489  0.2493
   84MOL    C5621802   5.214   3.418   7.677 -0.1350  0.2086  0.4907
   84MOL    C5721803   5.158   3.326   7.570  1.0895  0.1442  0.1752
   84MOL    C5821804   5.136   3.044   7.731  0.6035  0.1816 -0.0760
   84MOL    H5921805   5.095   3.236   7.822  0.6144  1.1313  0.2330
   84MOL    H6021806   5.334   3.227   7.633  0.4737 -0.5209  2.2104
   84MOL    H6121807   5.143   3.460   7.748  0.3177  0.9011  0.5366
   84MOL    H6221808   5.293   3.489   7.652  0.6193 -0.2311  1.5970
   84MOL    H6321809   5.204   3.332   7.472  2.1835 -1.2772  0.5800
   84MOL    H6421810   5.049   3.316   7.566  0.9495  1.3678  0.8398
   84MOL    H6521811   5.082   3.071   7.640  0.4043 -0.1752 -0.0634
   84MOL    H6621812   5.222   2.987   7.696  0.5004  0.5063 -0.8707
   84MOL    C6721813   5.050   2.957   7.821  0.7592 -0.2022  1.1528
   84MOL    C6821814   4.910   2.925   7.774 -0.5263 -0.3029 -0.2761
   84MOL    C6921815   4.820   3.012   7.686  0.6677 -0.7888 -0.4951
   84MOL    C7021816   4.883   2.886   7.631  0.0922  0.5389 -0.1562
   84MOL    C7121817   5.125   2.825   0.008  0.4540  0.0998 -0.2531
   84MOL    H7221818   5.026   3.022   0.066 -1.7441 -1.2023  1.2611
   84MOL    H7321819   4.866   2.851   0.002  0.9046 -1.4125 -0.5333
   84MOL    H7421820   4.711   3.005   7.687  0.4544  1.5536 -2.4124
   84MOL    H7521821   4.860   3.100   7.637  0.0976  0.9420  2.0963
   84MOL    H7621822   4.957   2.904   7.554 -0.6061 -0.8019 -1.1507
   84MOL    H7721823   4.821   2.799   7.614  1.0810  0.0117 -1.0991
   84MOL    H7821824   5.231   2.845   0.024  0.1864  1.9516 -0.6767
   84MOL    H7921825   5.124   2.761   7.760  0.7907 -0.5043  0.1837
   84MOL    C8021826   5.093   2.750   0.141  0.5005 -0.7213  0.0208
   84MOL    C8121827   5.093   2.838   0.263 -0.1252  0.1227 -0.3564
   84MOL    C8221828   5.038   2.807   0.398  0.6790 -0.2301  0.5957
   84MOL    C8321829   4.965   2.904   0.312  0.3999 -0.0304  0.3568
   84MOL    C8421830   5.184   2.624   0.159 -0.0755 -0.4969 -0.0954
   84MOL    H8521831   4.993   2.707   0.136  0.6270 -0.9541 -0.5904
   84MOL    H8621832   5.187   2.892   0.262 -0.8493  1.4203 -2.9247
   84MOL    H8721833   5.102   2.836   0.480 -2.5752  1.7580  2.5584
   84MOL    H8821834   4.989   2.711   0.414  0.7701 -0.4117 -0.1745
   84MOL    H8921835   4.879   2.867   0.256  0.5333  0.0568  0.0927
   84MOL    H9021836   4.963   3.011   0.333  1.0664  0.2668 -1.0336
   84MOL    H9121837   5.280   2.674   0.160  1.1574 -2.6698 -3.5819
   84MOL    H9221838   5.172   2.584   0.260 -1.3461  0.0853 -0.0144
   84MOL    C9321839   5.157   2.509   0.055 -0.0090 -0.2153 -0.0089
   84MOL    C9421840   5.283   2.462   7.826 -0.8591 -0.6678  0.6738
   84MOL    C9521841   5.294   2.423   7.676  0.4690  0.1837  0.0832
   84MOL    C9621842   5.360   2.555   7.733  0.6587  0.2240  0.1198
   84MOL    C9721843   5.081   2.397   0.122  0.0132  0.3547  0.2003
   84MOL    H9821844   5.086   2.559   7.828 -0.7404 -1.3979 -0.1466
   84MOL    H9921845   5.347   2.395   0.043 -0.5950  1.6149  3.2111
   84MOL   H10021846   5.364   2.351   7.634  0.5172  0.7030 -0.7216
   84MOL   H10121847   5.208   2.447   7.615  0.0595 -0.0809  0.5537
   84MOL   H10221848   5.469   2.559   7.735  0.7095 -0.7555  0.0063
   84MOL   H10321849   5.317   2.647   7.695  0.1679 -0.6509 -1.5223
   84MOL   H10421850   5.026   2.435   0.209  0.3083  2.0738 -0.3446
   84MOL   H10521851   5.160   2.336   0.165 -0.3542 -1.6958 -1.9274
   84MOL   C10621852   4.998   2.298   0.042 -0.6637 -0.6759  0.1635
   84MOL   C10721853   4.985   2.172   0.118 -0.5205  0.4330 -0.1337
   84MOL   C10821854   4.958   2.035   0.063 -0.8943 -0.6474 -0.7224
   84MOL   C10921855   5.096   2.074   0.097 -0.5945 -0.2820 -0.1770
   84MOL   C11021856   4.859   2.360   0.019 -0.2166  0.0242 -0.1422
   84MOL   H11121857   5.044   2.273   7.786 -0.3950 -1.6290  0.5318
   84MOL   H11221858   4.942   2.184   0.218  1.3848  0.6350  0.6730
   84MOL   H11321859   4.899   1.964   0.120 -0.4762 -0.5115 -0.1182
   84MOL   H11421860   4.931   2.025   7.797  0.6867  0.2893 -1.2361
   84MOL   H11521861   5.168   2.075   0.015 -0.5327  1.5362 -0.1328
   84MOL   H11621862   5.142   2.045   0.191 -0.4802 -0.1633 -0.1952
   84MOL   H11721863   4.801   2.341   0.109 -0.0054  1.2723  0.2642
   84MOL   H11821864   4.860   2.467   7.837 -1.7631  0.1327  0.2696
   84MOL   C11921865   4.786   2.307   7.735  0.0705 -0.5762  0.3304
   84MOL   C12021866   4.634   2.285   7.758 -0.2523 -0.1107  0.1665
   84MOL   C12121867   4.594   2.147   7.829  0.8454 -0.3551  0.2568
   84MOL   C12221868   4.564   2.171   7.677  0.0626  0.9073 -0.1717
   84MOL   C12321869   4.822   2.403   7.616  0.1192  0.4027 -0.2398
   84MOL   H12421870   4.828   2.209   7.715  0.7062 -0.4507  1.0092
   84MOL   H12521871   4.581   2.377   7.780  0.4803  0.5315 -0.7163
   84MOL   H12621872   4.504   2.142   0.051 -1.7092  1.5529 -3.1902
   84MOL   H12721873   4.672   2.071   7.830  1.4222  0.2180  2.1982
   84MOL   H12821874   4.631   2.120   7.609  1.9592  0.7546  1.7678
   84MOL   H12921875   4.459   2.182   7.651 -0.1855  1.2828  0.9529
   84MOL   H13021876   4.749   2.483   7.623 -2.6746 -2.1736  1.6599
   84MOL   H13121877   4.920   2.447   7.634 -0.1932  1.4740 -1.1588
   84MOL   C13221878   4.816   2.341   7.476 -0.1062 -0.8659 -0.4861
   84MOL   C13321879   4.950   2.271   7.455 -0.2433 -0.1653  0.1735
   84MOL   C13421880   4.978   2.161   7.358  0.8855 -0.3552 -0.0740
   84MOL   C13521881   4.979   2.131   7.504 -0.3969  0.4391  0.1156
   84MOL   C13621882   4.799   2.453   7.376  0.3269  0.3341 -0.0081
   84MOL   H13721883   4.729   2.275   7.466  0.4439 -1.4546 -1.4669
   84MOL   H13821884   5.038   2.334   7.470  0.7739 -1.5863  0.2878
   84MOL   H13921885   4.890   2.140   7.298  1.9474 -2.1201 -1.0848
   84MOL   H14021886   5.071   2.164   7.302  1.1716 -0.2084  0.4062
   84MOL   H14121887   4.902   2.058   7.530  2.2274 -2.5879 -0.2343
   84MOL   H14221888   5.073   2.125   7.559 -1.2704 -1.8355  1.4347
   84MOL   H14321889   4.844   2.546   7.413  0.7228 -0.3867  1.3764
   84MOL   H14421890   4.854   2.440   7.283 -2.9615 -1.8799 -1.7129
   84MOL   C14521891   4.653   2.481   7.331  0.0145  0.0352 -0.0885
   84MOL   C14621892   4.640   2.614   7.260  0.0109  1.0177 -0.5025
   84MOL   C14721893   4.526   2.718   7.292 -0.4577 -0.2609  0.7145
   84MOL   C14821894   4.670   2.742   7.332  0.0443 -0.4635 -0.4986
   84MOL   C14921895   4.600   2.363   7.237  0.2757 -0.0573  0.5615
   84MOL   H15021896   4.600   2.487   7.426  4.2564 -2.8153  2.6461
   84MOL   H15121897   4.688   2.619   7.162  1.9628 -1.0749  0.2847
   84MOL   H15221898   4.485   2.772   7.207 -0.2394 -0.2774  0.5990
   84MOL   H15321899   4.466   2.712   7.383 -1.2537 -0.2751  0.1944
   84MOL   H15421900   4.700   2.740   7.437  0.5934  2.2917 -0.5527
   84MOL   H15521901   4.725   2.813   7.271 -0.3042  1.9565  1.8888
   84MOL   H15621902   4.633   2.399   7.139  0.1564 -0.2646  0.4454
   84MOL   H15721903   4.648   2.270   7.268 -2.0105 -1.2318  0.6568
   84MOL   C15821904   4.448   2.345   7.253 -0.1650 -0.9482  0.3502
   84MOL   C15921905   4.408   2.302   7.390  0.4366 -0.1432 -0.6774
   84MOL   C16021906   4.363   2.403   7.484  0.2129  0.1339  0.7462
   84MOL   C16121907   4.265   2.304   7.440 -0.8517  0.0497  0.7654
   84MOL   C16221908   4.377   2.257   7.144  0.5236 -0.2875  0.8403
   84MOL   H16321909   4.407   2.445   7.242  1.8344 -0.4948 -4.2153
   84MOL   H16421910   4.457   2.211   7.424  1.3296  0.4500 -0.3581
   84MOL   H16521911   4.353   2.507   7.452 -0.8903  0.1354  1.0949
   84MOL   H16621912   4.383   2.401   7.591 -0.1587  0.2822  0.8169
   84MOL   H16721913   4.238   2.219   7.502  1.1597 -2.4225 -1.6358
   84MOL   H16821914   4.182   2.340   7.380 -0.6424 -3.1736 -1.5338
   84MOL   H16921915   4.291   2.207   7.188  1.6878  0.1614  3.7468
   84MOL   H17021916   4.446   2.174   7.125  1.4966  0.8277 -0.5955
   84MOL   C17121917   4.345   2.329   7.012  0.4093  0.2956  0.1439
   84MOL   C17221918   4.371   2.232   6.896  0.3276 -0.0783  0.6513
   84MOL   C17321919   4.420   2.281   6.762 -0.2306  0.6174  0.6559
   84MOL   C17421920   4.515   2.204   6.858  0.2813  0.2762 -0.2039
   84MOL   C17521921   4.210   2.405   7.012  0.0511  1.1550  0.0915
   84MOL   H17621922   4.420   2.407   7.007 -0.8416  1.3897 -2.2905
   84MOL   H17721923   4.296   2.154   6.889  0.9790 -0.6028 -0.5560
   84MOL   H17821924   4.383   2.224   6.676  0.1794 -0.5241  1.2290
   84MOL   H17921925   4.456   2.383   6.754  0.1234  0.4627  0.2827
   84MOL   H18021926   4.594   2.261   6.906  0.9018 -0.1732 -0.6747
   84MOL   H18121927   4.537   2.099   6.838  0.5618  0.4084 -0.5874
   84MOL   H18221928   4.182   2.412   7.117  0.8054  0.9505  0.3058
   84MOL   H18321929   4.143   2.332   6.967 -0.7410  2.3492 -0.7137
   84MOL   C18421930   4.211   2.534   6.926  0.2631  0.2093  0.1665
   84MOL   C18521931   4.304   2.630   6.992  0.0294  0.0777 -0.2992
   84MOL   C18621932   4.331   2.765   6.934  0.2399 -0.5562 -0.3647
   84MOL   C18721933   4.444   2.663   6.928 -0.6404 -0.4198  0.5315
   84MOL   C18821934   4.069   2.587   6.921  0.3487 -0.2994 -0.3180
   84MOL   H18921935   4.243   2.517   6.823  0.3944 -0.3142  0.2945
   84MOL   H19021936   4.279   2.635   7.098 -2.5061  0.2668 -0.8760
   84MOL   H19121937   4.299   2.787   6.832 -0.2852 -0.2542 -0.1330
   84MOL   H19221938   4.333   2.849   7.004 -0.0861  0.5598 -1.6597
   84MOL   H19321939   4.538   2.683   6.978  1.0883 -3.3823 -1.3724
   84MOL   H19421940   4.464   2.630   6.826  0.3381 -0.9445  0.8863
   84MOL   H19521941   4.064   2.689   6.881  0.9415 -0.0049  0.3514
   84MOL   H19621942   4.051   2.610   7.026 -0.5705 -0.1199 -0.5118
   84MOL   C19721943   3.963   2.507   6.855  0.1740  0.2447 -0.1768
   84MOL   C19821944   3.991   2.488   6.702  1.0634  0.0394  0.9527
   84MOL   C19921945   3.919   2.377   6.627  0.3727 -0.6484 -0.5152
   84MOL   C20021946   4.065   2.374   6.646 -0.6419  0.1864 -0.1537
   84MOL   C20121947   3.822   2.577   6.887 -0.3332  0.3608 -0.4916
   84MOL   H20221948   3.963   2.411   6.906  0.2298 -0.7627 -2.0115
   84MOL   H20321949   4.004   2.582   6.649 -0.7051 -0.1291  0.1839
   84MOL   H20421950   3.866   2.300   6.683 -0.1209  0.9181  1.1977
   84MOL   H20521951   3.890   2.385   6.522  0.2302 -0.8570 -0.4925
   84MOL   H20621952   4.126   2.319   6.717 -1.1584 -0.4428 -0.1954
   84MOL   H20721953   4.119   2.400   6.556 -1.8836 -0.7497 -1.1932
   84MOL   H20821954   3.849   2.678   6.920 -0.3284  0.2790 -0.2462
   84MOL   H20921955   3.784   2.603   6.789 -0.6337 -0.9500 -0.7325
   84MOL   C21021956   3.716   2.516   6.982 -0.2349 -0.7969 -0.0573
   84MOL   C21121957   3.662   2.391   6.915  0.6620  0.5136 -0.6252
   84MOL   C21221958   3.519   2.349   6.926  0.4667 -0.4269  0.8198
   84MOL   C21321959   3.573   2.406   6.795  0.3376 -0.0684  0.2483
   84MOL   C21421960   3.775   2.479   7.116 -0.0891  0.6717 -0.3065
   84MOL   H21521961   3.634   2.588   6.986 -0.9013 -1.6017  0.8860
   84MOL   H21621962   3.727   2.304   6.914 -0.4560 -0.3310 -0.4640
   84MOL   H21721963   3.517   2.242   6.941  1.7930 -0.4882  0.6124
   84MOL   H21821964   3.452   2.410   6.986  1.2530  1.7249 -0.4007
   84MOL   H21921965   3.588   2.331   6.717  1.9415  1.3281 -0.8251
   84MOL   H22021966   3.554   2.510   6.769 -2.5131 -0.8355 -0.9160
   84MOL   H22121967   3.814   2.377   7.108  2.4786  1.5583  0.4566
   84MOL   H22221968   3.865   2.537   7.139  0.2703 -0.8003  2.1335
   84MOL   C22321969   3.678   2.491   7.239  0.1275  0.0553 -0.1404
   84MOL   C22421970   3.654   2.642   7.262 -0.3061  0.5413 -0.4188
   84MOL   C22521971   3.535   2.709   7.186  0.3521 -0.1388  0.1343
   84MOL   C22621972   3.532   2.685   7.335 -0.0395 -0.1953 -0.5366
   84MOL   C22721973   3.737   2.428   7.367  0.6547 -1.1559  0.0502
   84MOL   H22821974   3.582   2.445   7.216  0.6733 -0.5445 -1.2412
   84MOL   H22921975   3.738   2.704   7.292 -1.0552 -0.3855  3.8988
   84MOL   H23021976   3.461   2.648   7.134 -1.2503 -0.3221  2.5254
   84MOL   H23121977   3.542   2.811   7.150 -0.5325  0.2412  1.0097
   84MOL   H23221978   3.538   2.782   7.385  2.9747 -0.6690  0.1182
   84MOL   H23321979   3.464   2.609   7.375  0.1572  0.0879  0.3591
   84MOL   H23421980   3.844   2.446   7.380  0.3031  1.1084  0.0659
   84MOL   H23521981   3.697   2.481   7.454  0.8213 -0.3453 -0.3612
   84MOL   C23621982   3.713   2.282   7.392  0.4491 -0.6682 -0.2297
   84MOL   C23721983   3.565   2.258   7.397 -0.2876  0.9926  0.2552
   84MOL   C23821984   3.500   2.216   7.266 -0.4928 -0.4795  0.1140
   84MOL   C23921985   3.516   2.118   7.374  0.1256 -0.4813  0.2336
   84MOL   C24021986   3.782   2.246   7.523 -0.6119  0.0323  0.2796
   84MOL   H24121987   3.756   2.220   7.313 -0.6900 -1.8055  0.0132
   84MOL   H24221988   3.500   2.311   7.467  0.7194 -1.2410  2.9818
   84MOL   H24321989   3.398   2.245   7.239 -0.2459 -1.1244 -1.6264
   84MOL   H24421990   3.563   2.208   7.177  0.0494  2.0793  0.2380
   84MOL   H24521991   3.584   2.035   7.360 -0.7539 -1.2655  0.5935
   84MOL   H24621992   3.424   2.097   7.429 -0.4231  1.4632  0.1145
   84MOL   H24721993   3.764   2.318   7.603 -2.0256 -0.4379  0.3910
   84MOL   H24821994   3.737   2.157   7.567 -0.5210 -0.0873  0.1290
   84MOL   C24921995   3.936   2.219   7.523  0.7827  0.4460 -0.0724
   84MOL   C25021996   3.973   2.087   7.457 -0.4162 -0.7339  0.1387
   84MOL   C25121997   4.097   2.010   7.494 -0.0176 -1.0727 -0.1941
   84MOL   C25221998   3.953   1.952   7.511  0.4321  0.2631  0.2005
   84MOL   C25321999   3.985   2.231   7.668 -0.5598 -0.8794  0.1202
   84MOL   H25422000   3.985   2.303   7.475  1.1900 -1.3731 -3.0066
   84MOL   H25522001   3.951   2.098   7.351  0.2427  0.3930  0.1147
   84MOL   H25622002   4.160   1.992   7.408 -1.1349 -0.3908 -1.1655
   84MOL   H25722003   4.136   2.016   7.596 -0.2544 -0.1102 -0.1568
   84MOL   H25822004   3.932   1.877   7.436 -2.4995  0.2961  0.9256
   84MOL   H25922005   3.909   1.935   7.609 -0.1903 -0.7538 -0.2552
   84MOL   H26022006   3.959   2.330   7.704  0.8090 -1.1660  1.9826
   84MOL   H26122007   4.094   2.232   7.663 -0.5256 -1.6261  0.7035
   84MOL   H26222008   3.960   2.152   7.739 -1.0339 -0.3523  0.5399
   85MOL     C122009   3.200   7.756   6.623  0.0950 -0.3700 -0.5360
   85MOL     C222010   3.339   7.708   6.586  0.2875 -0.2139  0.0551
   85MOL     C322011   3.445   7.816   6.557 -0.4181  0.3252 -0.9905
   85MOL     C422012   3.393   7.732   6.448 -0.0970 -0.1494  0.3652
   85MOL     C522013   3.197   7.837   6.755  0.5095  0.0418 -0.2629
   85MOL     H622014   3.155   7.822   6.549 -1.4678 -0.7395  0.0610
   85MOL     H722015   3.372   7.609   6.617 -0.7218  0.2850  2.7850
   85MOL     H822016   3.421   0.081   6.576  0.3785  0.0667  1.5159
   85MOL     H922017   3.545   7.789   6.590 -0.8251  0.2125  0.1707
   85MOL    H1022018   3.458   7.656   6.406 -1.6602 -0.5576 -1.4112
   85MOL    H1122019   3.335   7.786   6.373 -1.7784 -1.3687  0.7774
   85MOL    H1222020   3.271   0.077   6.741  0.0596  0.4184 -0.5182
   85MOL    H1322021   3.223   7.784   6.847 -1.6660 -2.9039 -1.2438
   85MOL    H1422022   3.141   7.664   6.625 -2.2145  1.1062  1.3840
   85MOL    C1522023   3.061   0.070   6.786  0.3115 -0.3280 -0.0120
   85MOL    C1622024   3.040   0.182   6.683  0.3781  0.2224  0.1042
   85MOL    C1722025   3.115   0.304   6.691 -0.0264 -0.1895  0.2075
   85MOL    C1822026   2.965   0.310   6.714 -0.6785  1.0251  0.6906
   85MOL    C1922027   2.936   7.815   6.773 -0.4675  0.3374  0.2544
   85MOL    H2022028   3.062   0.118   6.884  0.7330  0.4065 -0.3745
   85MOL    H2122029   3.014   0.139   6.586  2.1933 -3.0020  0.9747
   85MOL    H2222030   3.162   0.350   6.604 -2.3915 -2.6395 -2.4913
   85MOL    H2322031   3.191   0.294   6.768 -1.9821 -1.2601  2.0354
   85MOL    H2422032   2.930   0.336   6.813  1.6740  1.1506  1.5068
   85MOL    H2522033   2.914   0.365   6.635 -1.0131 -0.3121 -0.0518
   85MOL    H2622034   2.915   7.783   6.671 -0.8146  0.2003  0.3663
   85MOL    H2722035   2.854   0.046   6.790 -0.1861  1.5331 -2.9492
   85MOL    C2822036   2.927   7.698   6.872 -0.2455  0.1308 -1.0242
   85MOL    C2922037   2.793   7.616   6.853  0.1041  0.4671 -0.8637
   85MOL    C3022038   2.774   7.534   6.724 -0.4502 -0.5948  0.6511
   85MOL    C3122039   2.790   7.470   6.859  0.0138  0.2554 -0.1087
   85MOL    C3222040   2.961   7.735   7.021  0.1053 -0.1096 -0.4200
   85MOL    H3322041   3.008   7.632   6.841  2.4609  2.4542  0.8983
   85MOL    H3422042   2.706   7.664   6.897  0.4612 -0.3962  0.8094
   85MOL    H3522043   2.856   7.516   6.655 -2.7725 -1.2252 -2.0524
   85MOL    H3622044   2.672   7.533   6.687 -0.6618  2.5377  1.0224
   85MOL    H3722045   2.885   7.417   6.862 -0.3260 -0.3588 -0.1083
   85MOL    H3822046   2.712   7.417   6.914  2.3808 -0.5726  2.5191
   85MOL    H3922047   2.889   7.807   7.059  0.0704  0.0018 -0.6939
   85MOL    H4022048   3.051   7.797   7.020  0.1219 -0.1348 -0.9346
   85MOL    C4122049   2.966   7.614   7.121 -0.1300 -0.4418  0.2237
   85MOL    C4222050   2.956   7.662   7.267 -0.5577 -0.2371  0.7822
   85MOL    C4322051   2.896   7.583   7.380  1.0110 -0.4615  0.1431
   85MOL    C4422052   2.817   7.703   7.321 -0.6678  0.3563  0.9726
   85MOL    C4522053   3.096   7.527   7.102  0.4653  0.2620 -0.3548
   85MOL    H4622054   2.876   7.554   7.107 -1.6489  2.4619 -3.3098
   85MOL    H4722055   3.027   7.741   7.292 -0.8226 -0.2725  1.6657
   85MOL    H4822056   2.858   7.484   7.354 -2.2820  0.3171  1.7087
   85MOL    H4922057   2.942   7.593   7.478  2.5038 -0.6396 -0.5285
   85MOL    H5022058   2.806   7.788   7.388  1.7378 -0.2324  2.1951
   85MOL    H5122059   2.735   7.687   7.251  0.0419 -1.0181  0.4325
   85MOL    H5222060   3.185   7.585   7.125  0.3693 -0.6681  2.4954
   85MOL    H5322061   3.107   7.507   6.996  1.7341  0.8771 -0.3490
   85MOL    C5422062   3.090   7.393   7.181  0.1960 -0.0799 -0.2963
   85MOL    C5522063   3.006   7.289   7.102 -0.4703 -0.7208 -0.1904
   85MOL    C5622064   2.857   7.276   7.118  0.4433  0.2292 -0.2602
   85MOL    C5722065   2.943   7.163   7.164  0.0007 -0.0842  0.0052
   85MOL    C5822066   3.234   7.334   7.183  0.3759  0.0347  0.1265
   85MOL    H5922067   3.056   7.396   7.285  3.5340  1.7198  0.8012
   85MOL    H6022068   3.044   7.268   7.002  0.0164 -0.2378 -0.1122
   85MOL    H6122069   2.803   7.330   7.196 -0.6748 -0.2964 -0.6617
   85MOL    H6222070   2.794   7.248   7.034 -0.8104  1.0100  0.4055
   85MOL    H6322071   2.947   7.076   7.098  2.6858 -1.8143  2.3855
   85MOL    H6422072   2.941   7.136   7.269  2.2161  1.4914  0.4797
   85MOL    H6522073   3.226   7.227   7.203  0.2549  0.3637  1.9720
   85MOL    H6622074   3.273   7.337   7.082  1.3691  1.1966  0.5251
   85MOL    C6722075   3.338   7.389   7.274 -0.0101 -0.9582 -0.7394
   85MOL    C6822076   3.302   7.394   7.418  0.1118 -0.2917 -0.3600
   85MOL    C6922077   3.400   7.446   7.520 -0.0177  0.1503 -0.2704
   85MOL    C7022078   3.269   7.515   7.503  0.2258  0.1983  0.2522
   85MOL    C7122079   3.467   7.310   7.258  0.1564 -0.8523 -0.1874
   85MOL    H7222080   3.349   7.495   7.251 -0.2585 -0.7063  0.2530
   85MOL    H7322081   3.247   7.303   7.443 -1.5976  1.1297  1.1562
   85MOL    H7422082   3.415   7.372   7.598 -0.0890 -1.0567 -1.3778
   85MOL    H7522083   3.482   7.502   7.475 -1.3108  1.9638 -0.4161
   85MOL    H7622084   3.262   7.608   7.446  1.3087  0.2172  0.1561
   85MOL    H7722085   3.201   7.511   7.588  0.0241 -1.3833  0.0165
   85MOL    H7822086   3.454   7.203   7.245 -0.8370 -1.0933  2.5968
   85MOL    H7922087   3.524   7.325   7.349 -0.2784 -3.2883  0.5013
   85MOL    C8022088   3.562   7.356   7.143  0.2360  0.0165 -0.0788
   85MOL    C8122089   3.660   7.256   7.118  0.3385  0.3000 -0.0060
   85MOL    C8222090   3.737   7.231   6.989  0.8297  0.0883  0.4374
   85MOL    C8322091   3.624   7.137   7.029 -0.4281  0.1986 -0.0772
   85MOL    C8422092   3.629   7.486   7.186 -0.0586 -0.5018  0.4315
   85MOL    H8522093   3.513   7.354   7.046  1.4360 -0.1770 -0.6949
   85MOL    H8622094   3.722   7.230   7.203  0.4054 -2.2063 -0.7973
   85MOL    H8722095   3.837   7.188   7.000  0.0134 -1.4051  2.2233
   85MOL    H8822096   3.723   7.312   6.918  1.2832  0.5199  0.8319
   85MOL    H8922097   3.531   7.143   6.972 -0.7531  1.4478  0.5660
   85MOL    H9022098   3.652   7.042   7.074 -0.2694 -0.4829 -1.5675
   85MOL    H9122099   3.587   7.545   7.268  0.1416  3.7284 -2.3133
   85MOL    H9222100   3.727   7.464   7.228 -0.0610  0.2208  0.8290
   85MOL    C9322101   3.652   7.581   7.072 -0.1219  0.1132  0.5110
   85MOL    C9422102   3.521   7.618   6.999  0.2491  0.5316  0.2123
   85MOL    C9522103   3.528   7.683   6.865 -0.7663 -0.6562 -0.0503
   85MOL    C9622104   3.479   7.541   6.882  0.1577 -1.0904 -0.3888
   85MOL    C9722105   3.720   7.703   7.126  1.2004 -0.2505  0.8313
   85MOL    H9822106   3.720   7.534   7.001  0.0313 -0.0922  0.7918
   85MOL    H9922107   3.440   7.650   7.064 -1.1072  0.4801 -1.4410
   85MOL   H10022108   3.446   7.753   6.850  0.3296  0.4988 -0.8075
   85MOL   H10122109   3.609   7.695   6.794 -0.6852  0.8448  0.2800
   85MOL   H10222110   3.375   7.523   6.855  0.2501  1.6161 -2.8496
   85MOL   H10322111   3.543   7.462   6.844  1.9071 -0.4959  1.2512
   85MOL   H10422112   3.691   7.739   7.224  0.8265 -1.7764  1.2920
   85MOL   H10522113   3.697   7.785   7.057  1.7825 -3.2435 -3.1460
   85MOL   C10622114   3.876   7.702   7.126  0.4426  0.1587  0.0251
   85MOL   C10722115   3.914   7.689   6.973  0.5048 -0.2989 -0.4004
   85MOL   C10822116   4.056   7.674   6.923 -0.1897 -0.5757 -0.0145
   85MOL   C10922117   3.959   7.561   6.907 -0.4033 -0.1486 -0.2055
   85MOL   C11022118   3.937   7.834   7.180 -0.9412 -0.5554 -0.2139
   85MOL   H11122119   3.914   7.620   7.187 -0.1988 -1.3720 -1.5877
   85MOL   H11222120   3.865   7.754   6.901  1.0728 -2.6721 -3.0206
   85MOL   H11322121   4.077   7.744   6.842  1.6826  0.9723  1.7424
   85MOL   H11422122   4.143   7.658   6.986  0.6909 -0.7052 -1.2508
   85MOL   H11522123   3.980   7.470   6.964 -0.9260  0.4277  0.9365
   85MOL   H11622124   3.914   7.524   6.815  0.4899 -0.4237 -0.5267
   85MOL   H11722125   3.938   0.066   7.098  2.0201 -0.7187 -0.3698
   85MOL   H11822126   3.864   0.041   7.246 -0.0868  0.1952  0.2126
   85MOL   C11922127   4.079   7.817   7.242 -0.3706  0.5101  0.2957
   85MOL   C12022128   4.156   0.108   7.250  0.1017  0.3730  0.5512
   85MOL   C12122129   4.095   0.245   7.274 -0.1403 -0.4273 -0.9261
   85MOL   C12222130   4.161   0.219   7.139  0.0515  0.4723  0.1639
   85MOL   C12322131   4.060   7.754   7.380  0.2639  0.0779  0.2284
   85MOL   H12422132   4.115   7.750   7.164  2.7632  3.1467 -0.6257
   85MOL   H12522133   4.246   0.095   7.309  1.3528 -0.2092 -1.4438
   85MOL   H12622134   4.143   0.307   7.348  0.3558  0.0189 -1.6175
   85MOL   H12722135   3.986   0.246   7.272 -0.2666 -2.6414  1.5200
   85MOL   H12822136   4.088   0.196   7.061  0.7769  0.0049 -0.3753
   85MOL   H12922137   4.250   0.274   7.111  1.9748 -1.9309  1.4150
   85MOL   H13022138   3.988   7.802   7.446  3.5634  0.9811  3.3000
   85MOL   H13122139   4.006   7.660   7.365 -0.2303  0.1536  1.5156
   85MOL   C13222140   4.179   7.707   7.470  0.0734 -0.0231 -0.4147
   85MOL   C13322141   4.290   7.623   7.408 -0.2929 -0.4674 -0.2405
   85MOL   C13422142   4.439   7.631   7.438 -0.0451  0.3122 -0.5847
   85MOL   C13522143   4.380   7.665   7.302 -0.2967 -0.8292  0.2930
   85MOL   C13622144   4.130   7.638   7.599  0.7405  0.2586 -0.0810
   85MOL   H13722145   4.238   7.797   7.490  0.8354 -0.9232  1.4915
   85MOL   H13822146   4.260   7.519   7.405 -1.0438 -0.1963 -2.7216
   85MOL   H13922147   4.484   7.720   7.481 -1.6156  0.4667  0.7935
   85MOL   H14022148   4.502   7.543   7.452  0.0172  0.7534  2.1328
   85MOL   H14122149   4.398   7.768   7.271 -1.1753 -0.5121  0.8377
   85MOL   H14222150   4.379   7.592   7.221 -1.3422  1.6069 -1.9404
   85MOL   H14322151   4.056   7.704   7.644 -0.1108 -0.3624 -0.5541
   85MOL   H14422152   4.067   7.553   7.572  1.6613 -1.4887  3.0048
   85MOL   C14522153   4.232   7.613   7.712  0.5603 -0.2705 -0.1218
   85MOL   C14622154   4.250   7.732   7.810 -0.4415 -0.0886 -0.5341
   85MOL   C14722155   4.371   7.738   0.054 -0.5618  0.2982  0.4781
   85MOL   C14822156   4.347   0.002   7.783 -0.1095 -0.0539  0.0690
   85MOL   C14922157   4.202   7.486   7.793 -0.5406  0.3125 -0.4922
   85MOL   H15022158   4.331   7.595   7.669  0.3853  1.3573 -1.2727
   85MOL   H15122159   4.155   7.775   0.004  0.6035  1.9088 -0.0652
   85MOL   H15222160   4.353   7.760   0.158  0.5834 -0.4864  0.8555
   85MOL   H15322161   4.449   7.667   0.028  0.2828  0.9244  1.3107
   85MOL   H15422162   4.408   7.833   7.694  0.8625  0.5434  0.6672
   85MOL   H15522163   4.320   0.103   7.813  0.6616  0.4232 -0.8210
   85MOL   H15622164   4.241   7.499   0.054 -0.8336  0.4910 -0.4021
   85MOL   H15722165   4.097   7.479   7.822  0.0382  1.9062  2.1419
   85MOL   C15822166   4.256   7.346   7.742 -0.2549  0.3882  0.3216
   85MOL   C15922167   4.405   7.349   7.705  0.3068  0.1196  0.3386
   85MOL   C16022168   4.497   7.332   7.821  0.3241  0.1662  0.1012
   85MOL   C16122169   4.493   7.227   7.713 -0.2265  0.5678  0.6042
   85MOL   C16222170   4.177   7.288   7.624 -0.2847  0.7068 -0.0502
   85MOL   H16322171   4.246   7.270   7.820 -2.7365 -0.8533 -1.1508
   85MOL   H16422172   4.423   7.409   7.616 -0.0302 -0.1297  0.0978
   85MOL   H16522173   4.451   7.310   0.078  0.7292  0.0946  0.2807
   85MOL   H16622174   4.579   7.404   7.817  1.6731 -1.3787 -0.2122
   85MOL   H16722175   4.590   7.220   7.664  0.6095  1.3125  2.1159
   85MOL   H16822176   4.450   7.131   7.741 -0.0010  0.5109  0.7564
   85MOL   H16922177   4.218   7.197   7.581  1.1128  0.0273  2.5995
   85MOL   H17022178   4.191   7.355   7.539  0.0139 -2.0153 -2.1984
   85MOL   C17122179   4.028   7.267   7.648 -0.4042  0.6068  0.3585
   85MOL   C17222180   3.964   7.217   7.524 -0.0389  0.2600  0.4303
   85MOL   C17322181   3.816   7.226   7.500 -0.2867  0.0647 -0.0764
   85MOL   C17422182   3.908   7.300   7.412 -0.5409  0.0154 -0.1249
   85MOL   C17522183   4.009   7.163   7.761  0.1134  0.2222 -0.5682
   85MOL   H17622184   3.986   7.364   7.675 -1.1996  0.0252  1.2759
   85MOL   H17722185   4.013   7.124   7.495  0.9617  0.5433  1.1920
   85MOL   H17822186   3.757   7.153   7.445 -0.2068 -1.1986  1.4537
   85MOL   H17922187   3.759   7.285   7.572 -0.3207 -1.6316  1.3346
   85MOL   H18022188   3.919   7.408   7.419 -1.1130  0.0908 -0.3447
   85MOL   H18122189   3.927   7.257   7.314  2.6011  0.1219  0.3937
   85MOL   H18222190   4.082   7.176   0.002 -1.5166 -0.3221  1.0361
   85MOL   H18322191   4.028   7.067   7.714  0.8194  0.9460 -1.7747
   85MOL   C18422192   3.876   7.154   7.826  0.3735  0.3127 -0.3429
   85MOL   C18522193   3.833   7.279   0.072  0.3630 -0.5598  0.2648
   85MOL   C18622194   3.688   7.289   0.118 -0.6228  0.2556  0.3540
   85MOL   C18722195   3.743   7.390   0.018  0.2596  0.1390 -0.3789
   85MOL   C18822196   3.852   7.027   0.070  0.0761  0.1478  0.4528
   85MOL   H18922197   3.805   7.138   7.744 -1.2043 -1.5489  1.3305
   85MOL   H19022198   3.901   7.305   0.153  1.1423  0.0318 -0.5642
   85MOL   H19122199   3.670   7.328   0.218  4.0841 -0.2141  1.4824
   85MOL   H19222200   3.622   7.208   0.088  0.7795 -0.5208 -0.6469
   85MOL   H19322201   3.769   7.491   0.049  1.0482 -0.1493 -0.0995
   85MOL   H19422202   3.690   7.386   7.762  0.1292  0.8521 -0.3411
   85MOL   H19522203   3.766   7.044   0.136  1.1375  1.3123  1.5813
   85MOL   H19622204   3.930   7.034   0.146 -0.1533 -0.5730  0.7579
   85MOL   C19722205   3.872   6.888   0.010  0.3287  0.8580  0.2617
   85MOL   C19822206   3.767   6.862   7.739  0.1432 -0.2365 -0.2580
   85MOL   C19922207   3.778   6.743   7.644 -0.0640 -0.8221  0.4934
   85MOL   C20022208   3.809   6.881   7.589 -0.3461  0.2801  0.3822
   85MOL   C20122209   3.872   6.764   0.118 -0.7852  0.9859 -0.6904
   85MOL   H20222210   3.967   6.891   7.796  0.1042  1.1183 -0.1294
   85MOL   H20322211   3.663   6.891   7.754  0.9738  2.3207  1.0004
   85MOL   H20422212   3.866   6.681   7.655 -0.3573 -2.2867 -4.1058
   85MOL   H20522213   3.684   6.705   7.603 -1.1353  2.4089 -0.1936
   85MOL   H20622214   3.909   6.900   7.550 -0.2496 -0.9681  0.0055
   85MOL   H20722215   3.741   6.920   7.513  2.5883  1.7367 -1.5806
   85MOL   H20822216   3.872   6.668   0.066 -1.2854  0.6633 -0.1034
   85MOL   H20922217   3.968   6.775   0.168 -1.1326 -1.2828  0.5297
   85MOL   C21022218   3.761   6.760   0.219 -0.2498 -0.6406  0.4725
   85MOL   C21122219   3.617   6.738   0.162 -0.4836 -0.4978 -0.0264
   85MOL   C21222220   3.543   6.608   0.118  0.0575 -0.5663 -0.0213
   85MOL   C21322221   3.495   6.693   0.236 -0.1552  0.0337 -0.5039
   85MOL   C21422222   3.798   6.650   0.331  0.2640 -0.7677  0.0358
   85MOL   H21522223   3.763   6.856   0.269  1.3904 -0.6382  0.4519
   85MOL   H21622224   3.586   6.818   0.095 -0.3867 -0.2521  0.2181
   85MOL   H21722225   3.477   6.609   0.031  0.1338 -1.1126 -0.0912
   85MOL   H21822226   3.595   6.517   0.149  1.1071  0.5568  1.5794
   85MOL   H21922227   3.395   6.733   0.224 -1.0133 -1.5237  1.2732
   85MOL   H22022228   3.499   6.645   0.333 -2.2622  2.1174  0.6677
   85MOL   H22122229   3.712   6.606   0.381  1.2695 -0.8768  1.7173
   85MOL   H22222230   3.843   6.563   0.283  2.1506  0.1844  0.0156
   85MOL   C22322231   3.890   6.695   0.444  0.0892  0.0497  0.3897
   85MOL   C22422232   3.925   6.574   0.524 -0.1765 -0.2112 -0.6318
   85MOL   C22522233   4.053   6.508   0.497  0.4305  0.1203 -0.5587
   85MOL   C22622234   4.033   6.580   0.628  0.1131 -0.0776  0.9112
   85MOL   C22722235   3.846   6.807   0.543  0.5803  1.4634 -0.4498
   85MOL   H22822236   3.985   6.721   0.397 -0.0031 -0.3742 -0.0424
   85MOL   H22922237   3.842   6.507   0.546  0.6889 -1.1346 -0.0756
   85MOL   H23022238   4.113   6.558   0.422  2.0054 -2.9053 -1.3782
   85MOL   H23122239   4.061   6.401   0.515 -1.8676  0.0360  0.1443
   85MOL   H23222240   4.025   6.510   0.711 -0.0079  0.2471  1.1752
   85MOL   H23322241   4.109   6.658   0.629 -1.0878  1.1568 -0.2232
   85MOL   H23422242   3.740   6.798   0.565  1.2884  0.4518  2.9235
   85MOL   H23522243   3.892   6.782   0.639 -2.0439  1.5741  0.8911
   85MOL   C23622244   3.876   6.960   0.507  0.0274  0.0850 -0.4925
   85MOL   C23722245   4.033   6.979   0.492  0.0695  0.0870  0.2149
   85MOL   C23822246   4.103   7.105   0.540  0.1209 -0.7271 -0.6663
   85MOL   C23922247   4.105   6.980   0.625 -0.5656 -1.1721 -0.0169
   85MOL   C24022248   3.804   7.053   0.602  0.2083 -0.2988  0.2988
   85MOL   H24122249   3.836   6.984   0.409 -1.3537  0.6405  0.2022
   85MOL   H24222250   4.089   6.917   0.423  0.3517 -0.5746  1.0147
   85MOL   H24322251   4.203   7.134   0.508 -0.4136  3.4209  1.0861
   85MOL   H24422252   4.051   7.195   0.572  1.5040  0.3146 -1.2454
   85MOL   H24522253   4.045   6.976   0.716  1.4154 -0.1731  1.3850
   85MOL   H24622254   4.207   6.949   0.643 -0.6863 -1.6162 -0.1062
   85MOL   H24722255   3.839   7.055   0.705 -1.2948  1.1017  0.8084
   85MOL   H24822256   3.840   7.151   0.571 -0.0387 -0.0264  0.8720
   85MOL   C24922257   3.650   7.062   0.598  0.3760 -0.1367 -0.0983
   85MOL   C25022258   3.590   7.121   0.473 -0.1629 -0.1683 -0.0719
   85MOL   C25122259   3.554   7.029   0.365  0.1888 -0.4514  0.1017
   85MOL   C25222260   3.450   7.113   0.437 -0.0068 -0.4345 -0.0141
   85MOL   C25322261   3.592   7.147   0.709  0.0665 -0.1649 -0.3973
   85MOL   H25422262   3.613   6.961   0.619 -1.4884  0.4711 -0.3674
   85MOL   H25522263   3.638   7.211   0.435  0.0299 -0.0783  0.3812
   85MOL   H25622264   3.563   7.054   0.260  0.6741  0.1127  0.2755
   85MOL   H25722265   3.546   6.924   0.392  0.0286 -0.0468  1.6908
   85MOL   H25822266   3.414   7.206   0.394 -0.6457 -0.2506  0.9027
   85MOL   H25922267   3.384   7.076   0.515  0.0070  0.5986  0.5024
   85MOL   H26022268   3.647   7.114   0.797 -0.4796  2.0984  0.8471
   85MOL   H26122269   3.490   7.124   0.737  0.2553 -0.0174  0.4028
   85MOL   H26222270   3.603   7.255   0.694 -1.4973 -0.3189 -3.0132
   86MOL     C122271   7.024   2.233   1.103 -0.0547 -0.0194  0.0894
   86MOL     C222272   7.092   2.102   1.067 -0.7821 -1.0502  0.1981
   86MOL     C322273   7.161   2.078   0.933  0.4201 -0.0960 -0.5119
   86MOL     C422274   7.035   2.000   0.974  0.1192 -0.2367 -0.3078
   86MOL     C522275   6.929   2.212   1.222 -0.6897 -0.1034  0.2284
   86MOL     H622276   7.088   2.319   1.125  1.2283 -0.7237 -0.7736
   86MOL     H722277   7.143   2.055   1.151  0.6933  2.6936  1.4700
   86MOL     H822278   7.152   2.160   0.862 -0.6153 -1.2426 -1.7120
   86MOL     H922279   7.260   2.033   0.931 -0.0997 -1.2973  0.3255
   86MOL    H1022280   7.045   1.894   0.996 -2.7655 -0.1721  1.6145
   86MOL    H1122281   6.940   2.012   0.922 -0.5263 -1.6214  0.5194
   86MOL    H1222282   6.989   2.193   1.310 -1.5373  1.4007  1.1499
   86MOL    H1322283   6.875   2.118   1.215 -0.2762 -0.4045  1.1085
   86MOL    H1422284   6.964   2.255   1.015 -2.8805 -2.9241  1.1912
   86MOL    C1522285   6.829   2.325   1.242  0.0260 -0.2003 -0.2853
   86MOL    C1622286   6.713   2.313   1.147 -0.5446 -0.4741 -0.3860
   86MOL    C1722287   6.737   2.369   1.004 -1.6434  0.2274  0.2423
   86MOL    C1822288   6.640   2.432   1.099  0.0060 -0.5428  0.0056
   86MOL    C1922289   6.766   2.340   1.378  0.0741 -0.0747 -0.4493
   86MOL    H2022290   6.871   2.423   1.215  1.6650 -1.3912 -2.2499
   86MOL    H2122291   6.665   2.216   1.149  3.2170 -2.4784 -2.1075
   86MOL    H2222292   6.713   2.289   0.934 -0.5202 -0.2139  0.3634
   86MOL    H2322293   6.825   2.428   0.984 -1.3381 -0.8620 -1.7768
   86MOL    H2422294   6.678   2.532   1.119 -0.5773 -0.5274  1.0457
   86MOL    H2522295   6.534   2.419   1.079 -0.3967 -0.7788  2.1882
   86MOL    H2622296   6.714   2.251   1.413  1.8671 -0.4336  1.3822
   86MOL    H2722297   6.681   2.407   1.362 -1.5356 -2.0436 -0.4434
   86MOL    C2822298   6.869   2.381   1.486 -0.4443 -0.8022 -0.4181
   86MOL    C2922299   6.810   2.358   1.621 -0.4796 -0.4803  0.4215
   86MOL    C3022300   6.836   2.216   1.675  0.0081  0.3886  0.1902
   86MOL    C3122301   6.886   2.338   1.753  0.2949  0.0875  1.3745
   86MOL    C3222302   6.914   2.525   1.480  0.4129 -0.1639  0.3047
   86MOL    H3322303   6.958   2.319   1.478  0.6009  0.6326 -0.0453
   86MOL    H3422304   6.709   2.396   1.637 -0.3923  0.0583 -0.2815
   86MOL    H3522305   6.916   2.154   1.636  0.5195  0.3619  1.2509
   86MOL    H3622306   6.746   2.173   1.718  0.6989  1.0363  2.3732
   86MOL    H3722307   6.993   2.357   1.754  0.8486 -2.3459 -2.8673
   86MOL    H3822308   6.832   2.374   1.841 -1.0287 -0.4165  0.7808
   86MOL    H3922309   6.862   2.580   1.559 -1.4898 -0.3866 -0.7666
   86MOL    H4022310   6.898   2.582   1.388  0.3441  0.1174  0.4916
   86MOL    C4122311   7.070   2.539   1.515 -0.4164 -0.0478  0.2172
   86MOL    C4222312   7.117   2.684   1.545 -0.1392  0.7514 -0.2853
   86MOL    C4322313   7.231   2.701   1.648  0.8695 -0.5133 -0.6370
   86MOL    C4422314   7.097   2.749   1.678 -0.4411 -0.1835  0.1495
   86MOL    C4522315   7.156   2.483   1.396 -0.5914  0.0399  0.0029
   86MOL    H4622316   7.097   2.493   1.610  2.3780  0.9762 -0.0122
   86MOL    H4722317   7.113   2.746   1.456  1.2076  1.6942  0.2968
   86MOL    H4822318   7.265   2.615   1.704  1.5606 -0.4616 -0.9749
   86MOL    H4922319   7.310   2.769   1.616  0.2271  0.4440 -0.2371
   86MOL    H5022320   7.100   2.858   1.683  0.7431 -0.2485  1.1867
   86MOL    H5122321   7.045   2.701   1.760 -2.9613  0.3150 -1.0983
   86MOL    H5222322   7.178   2.559   1.321  0.6567  0.8856  1.2144
   86MOL    H5322323   7.083   2.422   1.342 -0.5852  0.7026 -0.7690
   86MOL    C5422324   7.289   2.411   1.435 -0.2987  0.5263  1.2017
   86MOL    C5522325   7.263   2.261   1.467  0.0026  0.1524 -0.1422
   86MOL    C5622326   7.202   2.217   1.595 -0.0699 -0.0207 -0.1466
   86MOL    C5722327   7.350   2.193   1.576 -0.1670  0.9225  0.1293
   86MOL    C5822328   7.399   2.420   1.332  0.0493 -0.2026  0.0053
   86MOL    H5922329   7.330   2.449   1.528 -1.8056 -0.3878  2.2694
   86MOL    H6022330   7.240   2.200   1.380 -0.4398 -2.6913  1.8891
   86MOL    H6122331   7.167   2.299   1.657 -0.4685 -0.4496  0.2001
   86MOL    H6222332   7.141   2.128   1.587  0.4797 -0.2177 -2.6067
   86MOL    H6322333   7.400   2.258   1.646 -0.5846  1.8324 -0.4024
   86MOL    H6422334   7.385   2.090   1.582 -0.4071  0.9451  2.2176
   86MOL    H6522335   7.467   2.342   1.366 -2.8586 -2.5987  0.5186
   86MOL    H6622336   7.372   2.386   1.232  0.6196 -1.4694  0.2765
   86MOL    C6722337   7.469   2.559   1.323 -0.4777 -0.1157  0.3552
   86MOL    C6822338   7.587   2.563   1.420 -0.4824 -0.5118  0.2804
   86MOL    C6922339   7.656   2.685   1.480  0.1458 -0.0159  0.7994
   86MOL    C7022340   7.572   2.604   1.568  0.0050 -0.1985  0.4009
   86MOL    C7122341   7.523   2.579   1.180 -0.2921 -0.2224  0.3069
   86MOL    H7222342   7.398   2.635   1.354 -0.7106  0.4748 -1.5740
   86MOL    H7322343   7.667   2.494   1.395  0.8878  0.5562  1.5942
   86MOL    H7422344   7.764   2.692   1.495  0.4286 -1.2030 -0.5397
   86MOL    H7522345   7.624   2.784   1.446  0.6716 -0.5565 -1.3495
   86MOL    H7622346   7.472   2.643   1.586  0.9697  2.0026  1.1775
   86MOL    H7722347   7.606   2.528   1.638 -0.1252  0.5876  1.3289
   86MOL    H7822348   7.556   2.479   1.153  0.0525 -0.3722  1.2626
   86MOL    H7922349   7.616   2.636   1.176 -1.1279  1.2663  1.3368
   86MOL    C8022350   7.419   2.645   1.088 -0.1920  0.8953  0.0887
   86MOL    C8122351   7.438   2.599   0.939 -0.1399 -0.0616 -0.4728
   86MOL    C8222352   7.332   2.572   0.848 -0.1269 -0.0405 -0.5828
   86MOL    C8322353   7.425   2.459   0.894  0.4731  0.4245 -0.3957
   86MOL    C8422354   7.424   2.799   1.103 -0.4474 -0.8719  0.0222
   86MOL    H8522355   7.326   2.601   1.124  0.9997 -1.2264  0.6429
   86MOL    H8622356   7.515   2.661   0.892 -0.6370  0.0976 -1.0774
   86MOL    H8722357   7.343   2.621   0.752  0.3712 -1.6524 -1.3721
   86MOL    H8822358   7.230   2.560   0.885 -0.1345 -5.2618 -1.8152
   86MOL    H8922359   7.384   2.399   0.976  0.2998  0.0227 -0.7761
   86MOL    H9022360   7.494   2.413   0.824  0.9473  4.6288 -2.8128
   86MOL    H9122361   7.445   2.819   1.208  0.3680  0.2722 -0.3470
   86MOL    H9222362   7.499   2.832   1.032 -1.2452 -1.1390 -0.9660
   86MOL    C9322363   7.290   2.871   1.061 -0.2790 -0.3150 -0.6299
   86MOL    C9422364   7.165   2.830   1.149  0.2176 -0.0536  0.4679
   86MOL    C9522365   7.029   2.884   1.109  0.8977 -0.0673 -0.0980
   86MOL    C9622366   7.052   2.737   1.103  0.6433 -0.0371 -0.0285
   86MOL    C9722367   7.310   3.023   1.061 -0.6069  0.1728 -0.3268
   86MOL    H9822368   7.262   2.841   0.960  1.1513 -1.8629 -0.5946
   86MOL    H9922369   7.187   2.837   1.255 -0.5923 -1.0329  0.7087
   86MOL   H10022370   6.966   2.918   1.191  1.3229 -1.9735  1.0351
   86MOL   H10122371   7.026   2.932   1.011  0.9321 -0.1178 -0.1238
   86MOL   H10222372   7.013   2.677   1.185 -2.9378  1.2210 -0.7175
   86MOL   H10322373   7.088   2.676   1.020  2.0528 -1.4560  1.5765
   86MOL   H10422374   7.347   3.044   1.161 -1.4323  3.0049 -0.5861
   86MOL   H10522375   7.213   3.070   1.044 -1.3508 -1.6010 -1.1014
   86MOL   C10622376   7.403   3.074   0.946 -0.5401  0.2918  0.1335
   86MOL   C10722377   7.352   3.058   0.798 -0.7045  0.6002 -0.6815
   86MOL   C10822378   7.444   3.051   0.680 -0.6245  0.3801 -0.0285
   86MOL   C10922379   7.365   2.934   0.718  0.3001 -0.4775  0.3925
   86MOL   C11022380   7.432   3.224   0.953 -1.2406 -0.0237 -0.3800
   86MOL   H11122381   7.499   3.024   0.954 -0.8031 -0.2465 -0.0148
   86MOL   H11222382   7.279   3.135   0.774 -0.2169  1.2874  0.0131
   86MOL   H11322383   7.410   3.098   0.588 -0.1354 -0.0853 -0.4479
   86MOL   H11422384   7.552   3.056   0.691 -0.7103  0.6701  0.7788
   86MOL   H11522385   7.426   2.854   0.760 -1.1291 -1.0503  1.3897
   86MOL   H11622386   7.284   2.893   0.658 -1.7804  0.0103  2.7909
   86MOL   H11722387   7.474   3.277   0.867 -1.6301 -0.7388 -1.0169
   86MOL   H11822388   7.337   3.271   0.977 -1.0748  0.7593 -1.1959
   86MOL   C11922389   7.527   3.256   1.075 -0.6033 -0.0198 -0.2825
   86MOL   C12022390   7.664   3.209   1.039 -0.3994  0.7687  0.2912
   86MOL   C12122391   7.717   3.084   1.091  0.6291 -0.1867  0.3286
   86MOL   C12222392   7.768   3.213   1.146 -0.5318 -0.3119 -0.2087
   86MOL   C12322393   7.522   3.405   1.109  1.0531  0.3757 -0.2043
   86MOL   H12422394   7.504   3.193   1.161  1.4107 -0.8978 -0.3522
   86MOL   H12522395   7.699   3.233   0.939 -0.6587 -0.5930 -0.1257
   86MOL   H12622396   7.809   3.047   1.046  0.5050 -0.5715  0.3895
   86MOL   H12722397   7.659   3.012   1.148  0.1636 -0.9040 -1.0178
   86MOL   H12822398   7.748   3.245   1.248  2.6582 -0.2289  0.4403
   86MOL   H12922399   0.032   3.236   1.121 -0.2726 -1.3749 -0.1372
   86MOL   H13022400   7.615   3.431   1.160 -0.2688 -0.8572  2.9210
   86MOL   H13122401   7.516   3.462   1.017  1.9731  0.9795  0.1015
   86MOL   C13222402   7.406   3.453   1.208 -0.3998 -0.1409  0.1037
   86MOL   C13322403   7.389   3.598   1.198 -0.6095  0.5295  0.1666
   86MOL   C13422404   7.269   3.674   1.227 -0.5160  1.1874 -0.2042
   86MOL   C13522405   7.306   3.647   1.083 -0.4470  0.6123 -0.7045
   86MOL   C13622406   7.447   3.413   1.351 -0.2374 -0.5903  0.0636
   86MOL   H13722407   7.310   3.406   1.187 -1.4351  1.7361  0.5528
   86MOL   H13822408   7.475   3.655   1.232  0.7016 -0.9835 -0.5324
   86MOL   H13922409   7.182   3.616   1.258  0.2941 -0.4057 -0.8365
   86MOL   H14022410   7.290   3.763   1.286 -1.3312  0.1501  1.7149
   86MOL   H14122411   7.246   3.577   1.025 -2.6212 -0.1832  2.3966
   86MOL   H14222412   7.317   3.740   1.028  0.3264 -0.2233 -1.9916
   86MOL   H14322413   7.543   3.360   1.354 -0.2770 -0.6000  1.9408
   86MOL   H14422414   7.462   3.501   1.413 -3.1638  0.7078 -0.9964
   86MOL   C14522415   7.346   3.307   1.406  0.0548  0.2701 -0.5002
   86MOL   C14622416   7.420   3.229   1.515  0.4921 -0.1429  0.4403
   86MOL   C14722417   7.399   3.075   1.522  0.2222  0.7504 -0.9113
   86MOL   C14822418   7.527   3.134   1.472 -0.1994  0.6312 -0.2582
   86MOL   C14922419   7.223   3.373   1.472 -0.0491  0.4810 -0.3799
   86MOL   H15022420   7.305   3.241   1.330 -1.5720 -0.4029  0.9138
   86MOL   H15122421   7.442   3.279   1.610 -1.1060 -1.2566  1.4368
   86MOL   H15222422   7.407   3.031   1.621  1.7674  0.5548 -1.1076
   86MOL   H15322423   7.311   3.051   1.462 -0.5319  0.4298  0.3215
   86MOL   H15422424   7.559   3.125   1.368  2.2893 -0.8990  0.6196
   86MOL   H15522425   7.610   3.139   1.542 -0.6725 -0.6569  0.4064
   86MOL   H15622426   7.272   3.435   1.547  0.7113  1.2765 -1.5284
   86MOL   H15722427   7.168   3.440   1.406  0.4112  0.0575 -1.1957
   86MOL   C15822428   7.116   3.278   1.542  0.3519  0.0121  0.2060
   86MOL   C15922429   7.007   3.241   1.438 -0.1153  0.2149  0.2786
   86MOL   C16022430   7.025   3.124   1.351  0.3543  0.7973 -0.2036
   86MOL   C16122431   6.917   3.124   1.456 -0.7575  0.8409  0.6212
   86MOL   C16222432   7.059   3.355   1.663 -0.0753 -0.3273 -0.0441
   86MOL   H16322433   7.174   3.187   1.561  0.1100 -0.3185 -0.6169
   86MOL   H16422434   6.952   3.326   1.397  0.7335 -0.3844 -2.2246
   86MOL   H16522435   7.118   3.068   1.359 -0.6256 -1.3472 -2.8057
   86MOL   H16622436   6.996   3.125   1.246  1.1320 -0.0984 -0.4340
   86MOL   H16722437   6.815   3.124   1.418 -0.5064  1.0311 -0.0411
   86MOL   H16822438   6.935   3.058   1.541 -2.8958 -1.4987 -0.6636
   86MOL   H16922439   6.955   3.330   1.682  0.1875 -1.1503  0.3522
   86MOL   H17022440   7.061   3.464   1.655 -0.0592 -0.0858  2.7233
   86MOL   C17122441   7.141   3.308   1.793 -0.2961 -0.2618  0.2258
   86MOL   C17222442   7.130   3.403   1.915  0.0838  0.2538 -0.9283
   86MOL   C17322443   7.239   3.427   2.018 -0.3224  0.0808  0.5999
   86MOL   C17422444   7.203   3.540   1.922  0.7867  0.0667 -0.5896
   86MOL   C17522445   7.095   3.166   1.832 -0.8351 -0.2342 -0.4866
   86MOL   H17622446   7.247   3.305   1.769 -0.4860 -1.6958 -0.4815
   86MOL   H17722447   7.027   3.405   1.950  0.3200 -2.0008 -0.0250
   86MOL   H17822448   7.210   3.441   2.122 -2.5260 -1.4661  0.2360
   86MOL   H17922449   7.339   3.393   1.994 -0.1172 -0.6514  2.4649
   86MOL   H18022450   7.288   3.567   1.859  2.3638 -1.5877  0.7865
   86MOL   H18122451   7.164   3.627   1.975  0.4134 -1.1911  1.2310
   86MOL   H18222452   7.112   3.111   1.739  0.9809  0.2238 -0.4551
   86MOL   H18322453   6.988   3.169   1.852 -0.5563 -3.7261  2.0650
   86MOL   C18422454   7.176   3.091   1.938  0.5209  0.2212 -0.4269
   86MOL   C18522455   7.306   3.034   1.887  0.0133 -0.1408  0.0344
   86MOL   C18622456   7.423   3.007   1.985 -0.0037 -0.0584  0.0087
   86MOL   C18722457   7.429   3.111   1.879 -0.6777  1.2404 -0.2791
   86MOL   C18822458   7.095   2.967   1.991  0.5942  0.0847  0.1770
   86MOL   H18922459   7.202   3.157   2.022 -2.0565 -1.0153  1.3910
   86MOL   H19022460   7.290   2.971   1.800 -0.3109  0.1876 -0.1477
   86MOL   H19122461   7.490   2.923   1.969  1.0163  1.0006 -1.4225
   86MOL   H19222462   7.401   3.040   2.086 -0.0983  0.8207 -0.2983
   86MOL   H19322463   7.500   3.091   1.800  1.1756  0.9994  1.4010
   86MOL   H19422464   7.425   3.213   1.918 -3.0705  0.0257  2.8645
   86MOL   H19522465   7.153   2.895   2.048 -0.0466  0.3014  1.1351
   86MOL   H19622466   7.072   2.923   1.895  2.9252  0.2140 -0.4557
   86MOL   C19722467   6.967   2.999   2.069 -0.4184  0.0469 -0.7761
   86MOL   C19822468   6.998   3.073   2.201 -0.2834 -0.0485 -0.1145
   86MOL   C19922469   6.893   3.141   2.295 -0.0933  0.0857  0.4660
   86MOL   C20022470   6.989   3.226   2.214  0.2577 -0.8484  0.7223
   86MOL   C20122471   6.887   2.875   2.099  0.3893  0.5709 -0.2283
   86MOL   H20222472   6.909   3.063   2.003  0.6162  3.0909  1.1641
   86MOL   H20322473   7.069   3.017   2.261  0.4657  1.0076 -0.0029
   86MOL   H20422474   6.786   3.138   2.279  0.1654  2.1635 -1.9046
   86MOL   H20522475   6.916   3.136   2.401  0.4424  3.1887  0.5428
   86MOL   H20622476   6.956   3.279   2.125  0.8664  0.6164  1.3497
   86MOL   H20722477   7.075   3.264   2.269  1.6045 -0.3187 -1.6861
   86MOL   H20822478   6.946   2.784   2.102 -1.0628 -0.3669  0.1612
   86MOL   H20922479   6.870   2.863   2.206  1.1315 -0.6704 -0.2465
   86MOL   C21022480   6.751   2.866   2.029  0.6551  0.2848  0.5379
   86MOL   C21122481   6.654   2.973   2.069  0.6468  0.0524 -0.5297
   86MOL   C21222482   6.505   2.958   2.065 -0.4567  0.3082 -0.0621
   86MOL   C21322483   6.580   2.966   2.200  0.0882 -0.2888 -0.3446
   86MOL   C21422484   6.768   2.868   1.877 -0.8581 -0.1608 -0.1342
   86MOL   H21522485   6.709   2.770   2.062 -0.0074 -0.3900 -2.1851
   86MOL   H21622486   6.679   3.068   2.022  2.3958  0.2756  0.7941
   86MOL   H21722487   6.450   3.046   2.034 -0.1766  0.4280 -0.2237
   86MOL   H21822488   6.462   2.866   2.025  1.8550 -0.8543  0.0212
   86MOL   H21922489   6.565   3.060   2.253  1.1225  1.5027 -3.1232
   86MOL   H22022490   6.598   2.876   2.259 -1.8734 -1.0923 -0.9223
   86MOL   H22122491   6.794   2.971   1.853  0.6147 -0.1295  1.5228
   86MOL   H22222492   6.852   2.804   1.848 -0.1942  0.7043 -0.1392
   86MOL   C22322493   6.650   2.822   1.789 -0.3933  0.2163  0.5066
   86MOL   C22422494   6.637   2.673   1.797 -0.4822  0.0509  0.2683
   86MOL   C22522495   6.586   2.603   1.917  0.2363  0.1337 -0.6528
   86MOL   C22622496   6.505   2.606   1.788 -0.4414 -0.7737  0.2453
   86MOL   C22722497   6.655   2.882   1.649  0.3044  0.2523  0.2202
   86MOL   H22822498   6.557   2.858   1.833 -1.9881 -1.4932 -1.3344
   86MOL   H22922499   6.721   2.620   1.751 -2.1394 -3.2746  0.9127
   86MOL   H23022500   6.544   2.653   2.004  3.8726 -1.5066  2.1731
   86MOL   H23122501   6.648   2.518   1.945  1.6272  1.1912 -0.4211
   86MOL   H23222502   6.494   2.518   1.723 -2.2526 -1.0590  0.9182
   86MOL   H23322503   6.409   2.657   1.795  0.2462  0.4672  0.6245
   86MOL   H23422504   6.674   2.989   1.655 -2.4488  0.7421  0.8110
   86MOL   H23522505   6.745   2.842   1.602 -0.3846 -2.1712  0.8626
   86MOL   C23622506   6.537   2.847   1.557  0.6734 -0.8015  0.2744
   86MOL   C23722507   6.575   2.874   1.411 -0.4415  0.1636 -0.2729
   86MOL   C23822508   6.650   2.763   1.336 -0.5695 -0.2234  0.4984
   86MOL   C23922509   6.510   2.814   1.293 -0.1733  0.0210  0.0294
   86MOL   C24022510   6.419   2.940   1.603 -0.0194 -0.2213  0.0718
   86MOL   H24122511   6.509   2.743   1.572 -1.4369 -0.1181  1.3312
   86MOL   H24222512   6.621   2.969   1.388  1.8785 -0.3290  2.0455
   86MOL   H24322513   6.716   2.784   1.252  0.7434  1.5270  1.9120
   86MOL   H24422514   6.650   2.659   1.368 -0.7932 -0.0204  1.1762
   86MOL   H24522515   6.427   2.746   1.310 -0.4670 -0.0037 -1.4052
   86MOL   H24622516   6.493   2.887   1.214 -0.8665  0.1237  0.2767
   86MOL   H24722517   6.395   2.930   1.709  1.1397  1.2802  0.5038
   86MOL   H24822518   6.461   3.039   1.589 -0.9326  0.3401  1.2620
   86MOL   C24922519   6.286   2.938   1.525 -0.0473 -0.3522  0.4684
   86MOL   C25022520   6.209   3.064   1.550  0.6723 -0.5366  0.5419
   86MOL   C25122521   6.232   3.185   1.461  0.7628 -0.1685  0.7877
   86MOL   C25222522   6.097   3.107   1.465  0.4395 -0.0483 -0.3793
   86MOL   C25322523   6.206   2.810   1.562  0.9835  0.5740 -0.1772
   86MOL   H25422524   6.315   2.950   1.421  1.1390  2.0577  1.0353
   86MOL   H25522525   6.180   3.090   1.651  0.5578  1.6965 -0.0460
   86MOL   H25622526   6.246   3.275   1.521  0.6564  0.1290  0.3716
   86MOL   H25722527   6.302   3.165   1.380 -0.2206  0.1938 -0.1640
   86MOL   H25822528   6.021   3.154   1.528  0.8864  0.7552 -0.4317
   86MOL   H25922529   6.064   3.034   1.392  0.6114  0.0089 -0.5157
   86MOL   H26022530   6.124   2.791   1.493  0.1643 -0.0732  0.9476
   86MOL   H26122531   6.155   2.818   1.658  1.5231 -1.4130  0.2950
   86MOL   H26222532   6.267   2.719   1.561 -1.5232 -1.1510 -1.8140
   87MOL     C122533   6.963   2.664   3.321 -0.6132  0.1499 -0.1106
   87MOL     C222534   6.943   2.670   3.472 -0.2989 -1.5183 -0.2031
   87MOL     C322535   7.037   2.747   3.554 -0.1996 -0.7456  0.0846
   87MOL     C422536   7.041   2.600   3.559  0.3840 -0.1346 -0.4139
   87MOL     C522537   6.896   2.535   3.275  0.3778 -0.4664  0.3469
   87MOL     H622538   6.920   2.756   3.283  0.2296  0.7375  0.3438
   87MOL     H722539   6.843   2.653   3.509 -1.4662  1.8219 -1.6109
   87MOL     H822540   7.124   2.780   3.498  0.0736 -1.3675  0.1394
   87MOL     H922541   7.004   2.799   3.644  0.2209 -1.3346  0.5834
   87MOL    H1022542   7.003   2.548   3.647 -1.4973 -0.9344 -1.6636
   87MOL    H1122543   7.139   2.581   3.518  0.7082  0.6104 -0.0094
   87MOL    H1222544   6.788   2.545   3.291  0.2870 -0.0920 -0.4860
   87MOL    H1322545   6.938   2.455   3.336  1.6508  0.4128  0.6430
   87MOL    H1422546   7.071   2.660   3.311 -0.6038 -0.2815  0.1417
   87MOL    C1522547   6.922   2.495   3.126 -0.4344  0.0469  0.1049
   87MOL    C1622548   6.889   2.610   3.028 -0.5906 -0.2861  0.7475
   87MOL    C1722549   6.748   2.635   2.972 -1.2381  0.1772 -0.3838
   87MOL    C1822550   6.855   2.586   2.881  0.9280 -0.1383  0.0660
   87MOL    C1922551   7.065   2.449   3.097  0.1868  0.0633 -0.1276
   87MOL    H2022552   6.854   2.416   3.096 -0.7619  0.2691  0.2632
   87MOL    H2122553   6.954   2.697   3.036 -0.3042 -0.2401 -1.6672
   87MOL    H2222554   6.719   2.739   2.973  0.3397  0.6578 -1.9082
   87MOL    H2322555   6.662   2.573   2.995 -0.5633  0.3860  2.9911
   87MOL    H2422556   6.852   2.480   2.857 -0.7178 -0.0352 -0.2378
   87MOL    H2522557   6.908   2.660   2.821 -1.7336  1.2400 -0.6339
   87MOL    H2622558   7.131   2.536   3.091  0.5837 -0.2171  0.1160
   87MOL    H2722559   7.070   2.423   2.992  0.1482  2.0709 -0.6542
   87MOL    C2822560   7.129   2.338   3.177  0.2844  0.9002 -0.2804
   87MOL    C2922561   7.274   2.300   3.141 -0.4057 -0.9274 -0.0371
   87MOL    C3022562   7.388   2.399   3.172 -0.5276  0.2652 -0.0376
   87MOL    C3122563   7.374   2.272   3.254 -0.3439  0.0137  0.5114
   87MOL    C3222564   7.037   2.217   3.175  0.1778  0.4842  0.7896
   87MOL    H3322565   7.124   2.375   3.279 -1.6607  1.1350 -0.4415
   87MOL    H3422566   7.286   2.249   3.046  0.0236 -0.2032 -0.3729
   87MOL    H3522567   7.356   2.497   3.208  0.2229  0.9180 -1.1315
   87MOL    H3622568   7.464   2.403   3.094 -0.4923  1.4058  0.0414
   87MOL    H3722569   7.323   2.284   3.350 -0.6837 -1.3480  0.5088
   87MOL    H3822570   7.428   2.178   3.243  0.1520  0.1181  1.9055
   87MOL    H3922571   7.034   2.191   3.069  0.3453 -0.2219  0.9508
   87MOL    H4022572   6.936   2.245   3.203  0.6911  1.0115  2.1583
   87MOL    C4122573   7.066   2.093   3.259  0.0556 -0.3369 -0.4996
   87MOL    C4222574   6.998   1.976   3.189 -0.0408  0.0749  0.4593
   87MOL    C4322575   7.066   1.838   3.195  0.6909 -0.1419 -0.2655
   87MOL    C4422576   7.048   1.913   3.065 -0.2527 -0.1321 -0.1440
   87MOL    C4522577   6.998   2.113   3.396  0.0265 -0.0986 -0.0775
   87MOL    H4622578   7.174   2.077   3.261  0.3311  1.5616  0.6642
   87MOL    H4722579   6.892   1.975   3.213  0.3381  0.7790  2.2935
   87MOL    H4822580   7.165   1.831   3.240  0.9516 -3.1426 -1.1923
   87MOL    H4922581   7.024   1.738   3.185  1.4489 -0.4018 -0.8707
   87MOL    H5022582   6.985   1.858   2.994 -0.4742 -1.0056  0.7163
   87MOL    H5122583   7.136   1.959   3.020  0.1174 -0.0189  0.6820
   87MOL    H5222584   6.890   2.101   3.385  0.0939 -0.0126 -0.8904
   87MOL    H5322585   7.017   2.213   3.435  2.4788 -0.1415 -1.0943
   87MOL    C5422586   7.060   2.026   3.507  0.5818  0.4309  0.0136
   87MOL    C5522587   7.202   2.073   3.546  0.0386 -0.2949 -0.1882
   87MOL    C5622588   7.327   1.999   3.492  0.4213  0.2105 -1.0004
   87MOL    C5722589   7.292   1.985   3.640  0.3006  0.0564  0.2271
   87MOL    C5822590   6.972   2.032   3.639  0.0925 -0.0992 -0.1449
   87MOL    H5922591   7.061   1.922   3.474  0.8216  0.4550 -0.0570
   87MOL    H6022592   7.208   2.177   3.575 -1.1257 -0.6018  1.1982
   87MOL    H6122593   7.315   1.915   3.424  0.6730 -2.1285  1.7076
   87MOL    H6222594   7.411   2.066   3.481  1.6460 -0.8653  1.3799
   87MOL    H6322595   7.351   2.047   3.707  0.0383  0.4807  0.0719
   87MOL    H6422596   7.254   1.892   3.682 -2.9716 -0.0696 -2.7862
   87MOL    H6522597   7.022   1.980   3.721  0.3573  0.7398  0.2245
   87MOL    H6622598   6.966   2.136   3.668  1.1012  0.0489 -0.4287
   87MOL    C6722599   6.828   1.975   3.637  0.2806  0.1010  0.4857
   87MOL    C6822600   6.825   1.825   3.634  0.6715 -0.3163 -0.0706
   87MOL    C6922601   6.701   1.740   3.593  0.0761  0.0333 -0.1449
   87MOL    C7022602   6.822   1.753   3.505  0.1970 -0.0011  0.3617
   87MOL    C7122603   6.750   2.022   3.758  0.3678 -0.4030 -0.6381
   87MOL    H7222604   6.784   2.005   3.541  1.4881 -0.6169 -0.3095
   87MOL    H7322605   6.902   1.790   3.702  1.2244  1.0753  0.0474
   87MOL    H7422606   6.685   1.643   3.639  0.6611 -0.6747 -1.4162
   87MOL    H7522607   6.609   1.787   3.559  0.4756  0.6367 -0.3939
   87MOL    H7622608   6.797   1.820   3.423 -1.5650  0.2617  1.0925
   87MOL    H7722609   6.892   1.671   3.489  0.4455  0.0128  1.3026
   87MOL    H7822610   6.816   2.048   3.840  1.9924 -1.0839 -1.7070
   87MOL    H7922611   6.689   1.939   3.793 -1.3979  2.0527  2.3953
   87MOL    C8022612   6.654   2.142   3.734  0.2346  1.1960 -0.4449
   87MOL    C8122613   6.722   2.255   3.671 -0.2832 -0.2385 -0.0424
   87MOL    C8222614   6.642   2.372   3.619 -0.5362 -0.1180  0.1367
   87MOL    C8322615   6.721   2.280   3.518 -0.0693 -0.5730 -0.3920
   87MOL    C8422616   6.592   2.192   3.866  0.5986  0.6868 -0.5258
   87MOL    H8522617   6.579   2.105   3.664  0.3711 -0.1363  0.1080
   87MOL    H8622618   6.810   2.275   3.732 -0.8597 -0.2400  0.8059
   87MOL    H8722619   6.675   2.473   3.639  1.6563 -0.3892 -1.9438
   87MOL    H8822620   6.534   2.362   3.627 -0.4405 -0.0904  1.5765
   87MOL    H8922621   6.671   2.206   3.456  0.6029 -1.6979  0.3788
   87MOL    H9022622   6.797   2.339   3.467  0.3797 -2.2783 -1.7387
   87MOL    H9122623   6.678   2.220   3.926  1.0037 -1.6036  0.0113
   87MOL    H9222624   6.540   2.286   3.846  1.3670  1.1936 -0.1367
   87MOL    C9322625   6.499   2.089   3.936  0.5135  0.0082 -0.6040
   87MOL    C9422626   6.452   2.153   4.071  0.4072 -0.6912  0.1995
   87MOL    C9522627   6.420   2.063   4.189  0.2225  0.6100 -0.5473
   87MOL    C9622628   6.542   2.157   4.191 -0.6258 -0.0154 -0.4053
   87MOL    C9722629   6.378   2.051   3.847  0.2568  0.4969  0.2391
   87MOL    H9822630   6.560   2.002   3.960 -2.4258 -1.8061  0.5545
   87MOL    H9922631   6.384   2.236   4.058  0.9612 -0.5449 -2.1618
   87MOL   H10022632   6.333   2.083   4.251 -2.1375 -0.5711 -3.3695
   87MOL   H10122633   6.444   1.957   4.188 -1.0022  0.3086  0.6786
   87MOL   H10222634   6.533   2.247   4.252  1.9610  1.3571 -1.9407
   87MOL   H10322635   6.644   2.124   4.171 -0.8547  0.6124 -2.8082
   87MOL   H10422636   6.416   1.995   3.762 -0.7413 -1.3808  0.9983
   87MOL   H10522637   6.328   2.142   3.813  0.8946  1.2787  1.3824
   87MOL   C10622638   6.271   1.960   3.898 -0.2136 -0.0437  0.1679
   87MOL   C10722639   6.148   1.944   3.813  0.1179  0.3788 -0.6340
   87MOL   C10822640   6.012   1.957   3.885  0.5997  0.1629 -0.2828
   87MOL   C10922641   6.062   2.067   3.800 -0.7445  0.4496  0.4573
   87MOL   C11022642   6.338   1.821   3.925 -0.1784 -0.0242 -0.1708
   87MOL   H11122643   6.232   2.011   3.985 -3.0064  1.3596 -1.8345
   87MOL   H11222644   6.153   1.864   3.740  2.5049 -2.3104  2.2918
   87MOL   H11322645   5.925   1.908   3.841  1.6590 -0.0844 -2.1558
   87MOL   H11422646   6.017   1.943   3.993  0.2533 -0.4572 -0.3397
   87MOL   H11522647   6.087   2.155   3.860  0.1347 -1.0176  2.3248
   87MOL   H11622648   6.025   2.080   3.699 -1.0861  1.2777  0.6817
   87MOL   H11722649   6.405   1.778   3.851 -0.9841  1.0261 -1.5308
   87MOL   H11822650   6.405   1.846   4.007 -0.2075 -3.0301  0.8163
   87MOL   C11922651   6.244   1.720   3.992 -0.5631  0.8682  0.0997
   87MOL   C12022652   6.316   1.579   3.988  0.2423 -0.0134 -0.3262
   87MOL   C12122653   6.350   1.502   3.864 -0.2005  0.4432  0.2248
   87MOL   C12222654   6.239   1.459   3.944  0.6405 -0.0636 -0.5772
   87MOL   C12322655   6.222   1.753   4.138  0.5168 -0.7178  0.3286
   87MOL   H12422656   6.148   1.698   3.945 -0.7695  1.2854  0.3198
   87MOL   H12522657   6.399   1.571   4.058 -0.0627 -1.0032 -0.0675
   87MOL   H12622658   6.450   1.459   3.871 -0.3772 -0.2567 -1.2264
   87MOL   H12722659   6.328   1.550   3.769  0.8827  2.8481  1.1691
   87MOL   H12822660   6.148   1.469   3.884  0.6880 -1.5849 -0.9316
   87MOL   H12922661   6.237   1.365   3.998  1.4244  0.1121 -0.2390
   87MOL   H13022662   6.314   1.746   4.196 -1.4399  0.3761  3.7310
   87MOL   H13122663   6.206   1.861   4.144  0.0665 -0.8844  2.5406
   87MOL   C13222664   6.111   1.679   4.215 -0.0596  1.0523 -0.1168
   87MOL   C13322665   5.965   1.724   4.192  1.1229  0.1635 -0.1378
   87MOL   C13422666   5.850   1.633   4.233  0.0549 -0.7050 -0.0813
   87MOL   C13522667   5.883   1.664   4.084 -0.6049 -0.4518  0.6922
   87MOL   C13622668   6.135   1.698   4.373 -0.3896 -0.2374  0.0432
   87MOL   H13722669   6.104   1.575   4.185  0.3202  1.2559 -0.8989
   87MOL   H13822670   5.951   1.829   4.214 -0.1096 -0.2872  1.3177
   87MOL   H13922671   5.875   1.549   4.298 -0.6405 -0.5452  0.4013
   87MOL   H14022672   5.760   1.680   4.273 -1.7753 -3.9064 -0.1740
   87MOL   H14122673   5.937   1.593   4.021 -0.6229  0.5055 -0.4365
   87MOL   H14222674   5.808   1.728   4.037  0.3528 -0.8219 -1.4147
   87MOL   H14322675   6.148   1.805   4.388 -1.8754 -0.2165  1.2836
   87MOL   H14422676   6.034   1.677   4.409 -0.0641 -1.5235  0.2413
   87MOL   C14522677   6.244   1.601   4.432  0.2089 -0.9244  0.5350
   87MOL   C14622678   6.300   1.657   4.563 -0.0902  0.1989 -0.1292
   87MOL   C14722679   6.446   1.651   4.603  0.3247  0.0873 -0.3223
   87MOL   C14822680   6.386   1.779   4.563 -0.3709  0.0502 -0.3271
   87MOL   C14922681   6.176   1.456   4.456  0.0449  0.1201  0.2591
   87MOL   H15022682   6.319   1.581   4.356 -0.5670  2.2038 -1.1173
   87MOL   H15122683   6.234   1.657   4.649 -1.3811 -0.3834 -1.1082
   87MOL   H15222684   6.475   1.653   4.708 -0.4052 -1.3693 -0.0871
   87MOL   H15322685   6.518   1.592   4.546  2.7053  1.6867  0.9433
   87MOL   H15422686   6.410   1.827   4.468 -1.0896  0.6943 -0.1910
   87MOL   H15522687   6.353   1.850   4.640  0.0089  0.2090 -0.3106
   87MOL   H15622688   6.106   1.463   4.539  0.3145  2.9937  0.3008
   87MOL   H15722689   6.114   1.445   4.366 -1.2687 -1.4671  1.3323
   87MOL   C15822690   6.272   1.342   4.474  0.8284  0.8068  0.5921
   87MOL   C15922691   6.254   1.226   4.374  0.2475  0.1219  0.1768
   87MOL   C16022692   6.304   1.243   4.234  0.0569  0.4606  0.0871
   87MOL   C16122693   6.359   1.135   4.328 -0.0593 -0.5202  0.5811
   87MOL   C16222694   6.284   1.278   4.622 -0.5964 -0.3935 -0.6345
   87MOL   H16322695   6.372   1.382   4.457  1.1956 -0.6097 -0.6750
   87MOL   H16422696   6.153   1.185   4.366 -0.5060  2.0159 -0.2156
   87MOL   H16522697   6.352   1.338   4.209  1.5095 -1.0091 -2.9302
   87MOL   H16622698   6.233   1.206   4.161  0.6073  3.0838 -1.8591
   87MOL   H16722699   6.324   1.032   4.315  1.2946 -0.8176 -0.8982
   87MOL   H16822700   6.464   1.148   4.353  0.0343  1.7335 -0.8486
   87MOL   H16922701   6.270   1.357   4.696 -1.5615 -1.3803  0.2657
   87MOL   H17022702   6.390   1.259   4.634 -0.7375 -1.4357 -0.9881
   87MOL   C17122703   6.202   1.154   4.649 -0.0907  0.1893  0.2379
   87MOL   C17222704   6.240   1.109   4.788  0.1043  0.1189  0.2615
   87MOL   C17322705   6.261   0.960   4.814 -0.0789 -0.1971 -0.1154
   87MOL   C17422706   6.376   1.053   4.838  0.4305  0.4133  0.7469
   87MOL   C17522707   6.045   1.181   4.634 -0.5053  0.2152 -0.2318
   87MOL   H17622708   6.241   1.080   4.579  2.5570  1.6954  0.0509
   87MOL   H17722709   6.188   1.167   4.864  1.3169  0.2062  1.0251
   87MOL   H17822710   6.187   0.919   4.883 -0.8395 -0.0792 -0.8423
   87MOL   H17922711   6.275   0.894   4.728  1.8912 -0.3917  0.3401
   87MOL   H18022712   6.446   1.062   4.755 -0.8853  1.1394 -0.2918
   87MOL   H18122713   6.410   1.081   4.938  0.7072 -0.0555  0.7866
   87MOL   H18222714   6.026   1.235   4.541  0.6095  0.7198 -0.1730
   87MOL   H18322715   6.017   1.245   4.717  0.0675 -0.7731  0.7520
   87MOL   C18422716   5.948   1.047   4.634 -0.7071 -0.0242 -0.6620
   87MOL   C18522717   5.940   0.971   4.500  1.2179  0.1482 -0.2978
   87MOL   C18622718   5.909   0.822   4.493 -0.1948  0.0172 -0.3096
   87MOL   C18722719   6.044   0.866   4.470 -0.0059 -0.2496 -0.1073
   87MOL   C18822720   5.804   1.085   4.673  0.2656 -1.0086 -0.0042
   87MOL   H18922721   5.983   0.972   4.705 -3.3753 -1.6246 -0.9894
   87MOL   H19022722   5.921   1.031   4.412 -2.4936 -1.4258 -0.6468
   87MOL   H19122723   5.846   0.781   4.415 -1.1226  1.0339 -0.1120
   87MOL   H19222724   5.875   0.776   4.586 -1.1106  0.6952 -0.2966
   87MOL   H19322725   6.086   0.859   4.370  0.6933 -1.2689  0.2502
   87MOL   H19422726   6.113   0.839   4.549  1.2220  0.3349 -0.9714
   87MOL   H19522727   5.734   1.037   4.605  1.1952  0.1870 -1.8530
   87MOL   H19622728   5.790   1.191   4.653  1.9466 -0.7351  0.1555
   87MOL   C19722729   5.768   1.059   4.815  0.0150 -0.4169  0.1822
   87MOL   C19822730   5.725   0.912   4.820  0.3506  0.0633  0.5121
   87MOL   C19922731   5.732   0.834   4.947  0.3107 -0.1268 -0.0181
   87MOL   C20022732   5.826   0.801   4.834  0.2175 -0.3362 -0.9301
   87MOL   C20122733   5.655   1.159   4.867 -0.3856 -0.6512  0.1602
   87MOL   H20222734   5.864   1.068   4.867  1.2063  0.6788 -2.1043
   87MOL   H20322735   5.639   0.902   4.755 -0.9707  1.1782  2.0762
   87MOL   H20422736   5.787   0.862   5.037  0.0605 -0.1196  0.1322
   87MOL   H20522737   5.652   0.764   4.970  1.8265 -1.8207  0.2612
   87MOL   H20622738   5.926   0.831   4.862  0.0077  0.2769 -0.8189
   87MOL   H20722739   5.812   0.717   4.767  0.3101 -1.0638 -0.0443
   87MOL   H20822740   5.586   1.190   4.789  0.3056  0.0278 -0.1836
   87MOL   H20922741   5.609   1.108   4.952 -0.7980  1.0637  0.9725
   87MOL   C21022742   5.717   1.291   4.919 -0.3682 -0.3852 -0.1346
   87MOL   C21122743   5.650   1.415   4.847 -0.5776  0.2215 -0.0496
   87MOL   C21222744   5.727   1.549   4.841  0.0298 -0.2962 -0.7812
   87MOL   C21322745   5.706   1.460   4.719  0.5957 -0.1339 -0.8012
   87MOL   C21422746   5.685   1.305   5.065  0.1559  0.0848 -0.1264
   87MOL   H21522747   5.825   1.305   4.906 -0.3764  0.4046  0.6414
   87MOL   H21622748   5.542   1.425   4.857 -0.5901  1.9107 -1.5767
   87MOL   H21722749   5.670   1.641   4.846 -1.9160 -1.4318 -1.5876
   87MOL   H21822750   5.827   1.559   4.883 -0.0936  0.8663 -0.7441
   87MOL   H21922751   5.644   1.509   4.644  0.8881  0.9239 -0.3569
   87MOL   H22022752   5.805   1.428   4.687  0.4140 -0.1489 -1.3624
   87MOL   H22122753   5.718   1.406   5.091 -0.5562  0.1365  0.5696
   87MOL   H22222754   5.579   1.303   5.089 -0.0667 -0.4982 -1.1219
   87MOL   C22322755   5.761   1.213   5.163 -0.2237 -0.2104  1.0490
   87MOL   C22422756   5.689   1.204   5.298  0.3416  0.0952 -0.5626
   87MOL   C22522757   5.562   1.120   5.306  0.3350 -0.4172 -0.2775
   87MOL   C22622758   5.681   1.077   5.384  0.0925  0.0711 -0.0662
   87MOL   C22722759   5.901   1.268   5.182  0.3643  0.1364 -0.0031
   87MOL   H22822760   5.764   1.110   5.127 -0.5466 -0.4198  1.5991
   87MOL   H22922761   5.687   1.297   5.355  0.5488 -1.4314  2.0194
   87MOL   H23022762   5.535   1.056   5.222  5.2229 -1.8547 -0.8699
   87MOL   H23122763   5.474   1.151   5.362  1.2376  0.2048  0.8011
   87MOL   H23222764   5.679   1.086   5.493  1.1869 -2.9593  0.2445
   87MOL   H23322765   5.738   0.996   5.339 -0.6808  0.4417 -1.7219
   87MOL   H23422766   5.947   1.306   5.091  0.6329  0.3826  0.2308
   87MOL   H23522767   5.891   1.359   5.242 -0.2451  0.9943 -1.3936
   87MOL   C23622768   6.001   1.182   5.254 -0.4707 -0.0587  0.4737
   87MOL   C23722769   6.117   1.269   5.315 -0.4192  0.9291 -0.5351
   87MOL   C23822770   6.078   1.347   5.445  0.3351  0.6507  0.5508
   87MOL   C23922771   6.192   1.241   5.445 -0.3432  0.0314 -0.5852
   87MOL   C24022772   6.054   1.068   5.169 -0.4045  0.0430 -0.1140
   87MOL   H24122773   5.939   1.133   5.328 -0.2446 -2.3241 -0.7976
   87MOL   H24222774   6.177   1.327   5.244 -0.7166  0.8076 -0.8891
   87MOL   H24322775   6.080   1.455   5.431  0.8300  0.2400 -2.9820
   87MOL   H24422776   5.985   1.301   5.478 -0.1413 -0.3636 -2.1256
   87MOL   H24522777   6.164   1.149   5.497 -0.7370  1.1743  1.2625
   87MOL   H24622778   6.296   1.271   5.439 -0.2862 -0.0932 -0.2119
   87MOL   H24722779   5.978   1.022   5.106 -0.1523 -1.0250  0.3462
   87MOL   H24822780   6.131   1.105   5.102 -0.0465  1.4706  1.0721
   87MOL   C24922781   6.119   0.956   5.247 -0.2787 -0.1865 -0.2030
   87MOL   C25022782   6.181   0.838   5.170  0.4171 -0.0284 -0.3407
   87MOL   C25122783   6.328   0.840   5.130  0.1865 -0.4072  0.1944
   87MOL   C25222784   6.280   0.746   5.237  0.5310 -0.0084  0.3941
   87MOL   C25322785   6.023   0.889   5.349  0.0992 -0.2639  0.7972
   87MOL   H25422786   6.200   0.994   5.310  1.6371 -0.7782 -2.2791
   87MOL   H25522787   6.121   0.787   5.095  0.4508 -0.9313  0.2324
   87MOL   H25622788   6.360   0.794   5.037  1.3426 -0.3905  0.5714
   87MOL   H25722789   6.379   0.933   5.154 -0.7013  0.7916 -2.3813
   87MOL   H25822790   6.266   0.639   5.223  3.6093 -0.3210 -0.5695
   87MOL   H25922791   6.295   0.775   5.341 -0.1398  0.3161  0.4020
   87MOL   H26022792   6.072   0.799   5.386 -1.1522 -0.6615  1.5131
   87MOL   H26122793   5.946   0.857   5.279  1.6492 -1.0438 -0.5944
   87MOL   H26222794   6.003   0.950   5.436  0.1536  2.9789 -1.4012
   88MOL     C122795   1.694   5.572   1.749 -0.2380 -0.4538 -0.1006
   88MOL     C222796   1.718   5.460   1.647 -0.5221 -0.0610  0.8510
   88MOL     C322797   1.591   5.390   1.601 -0.0652  0.1105 -0.9754
   88MOL     C422798   1.684   5.323   1.693 -0.7997 -0.3737  0.0607
   88MOL     C522799   1.835   5.629   1.792 -0.7366  0.9224  0.7102
   88MOL     H622800   1.634   5.650   1.702 -1.2254 -1.8443 -1.1823
   88MOL     H722801   1.782   5.475   1.560 -0.8148 -0.8424  0.4922
   88MOL     H822802   1.497   5.431   1.637 -0.2468 -0.8231 -0.3410
   88MOL     H922803   1.586   5.346   1.501  1.4491 -0.7509 -0.6923
   88MOL    H1022804   1.736   5.237   1.653  2.0218  1.2047  0.2104
   88MOL    H1122805   1.654   5.314   1.798 -0.0912  1.2119  0.4174
   88MOL    H1222806   1.898   5.662   1.710 -0.3128 -1.4940  0.0520
   88MOL    H1322807   1.879   5.538   1.832  1.3986  2.3095  1.6010
   88MOL    H1422808   1.637   5.534   1.834  0.6392 -1.0956  0.2069
   88MOL    C1522809   1.820   5.737   1.901 -0.5459  0.1161  0.1742
   88MOL    C1622810   1.951   5.778   1.964  0.3482  0.5004  0.1752
   88MOL    C1722811   2.023   5.704   2.083 -0.3065 -0.0195  0.3596
   88MOL    C1822812   1.949   5.829   2.110  0.5646  0.6272 -0.0561
   88MOL    C1922813   1.740   5.864   1.859  0.1010  0.3522  0.1759
   88MOL    H2022814   1.765   5.695   1.986 -0.3492  0.0184  0.2545
   88MOL    H2122815   2.019   5.826   1.893 -1.1033  0.5390 -1.2251
   88MOL    H2222816   2.129   5.717   2.101 -0.2503 -0.8733  0.6467
   88MOL    H2322817   1.976   5.618   2.130  0.5223 -1.6943 -1.7509
   88MOL    H2422818   1.856   5.815   2.166  1.0586 -1.0415  0.3754
   88MOL    H2522819   1.999   5.924   2.126 -1.3069  1.8787 -1.3580
   88MOL    H2622820   1.681   5.848   1.769 -0.3240  0.9759  0.3376
   88MOL    H2722821   1.811   5.939   1.825 -0.9709  2.4479  2.3672
   88MOL    C2822822   1.633   5.919   1.961  0.0655  1.3582  0.6433
   88MOL    C2922823   1.495   5.855   1.946 -0.7765 -0.3751 -0.4102
   88MOL    C3022824   1.470   5.721   2.003 -0.1110  0.0159 -0.8573
   88MOL    C3122825   1.398   5.841   2.054 -0.3784 -0.2199 -0.0638
   88MOL    C3222826   1.619   6.075   1.932 -0.0929  0.3286 -0.3805
   88MOL    H3322827   1.667   5.899   2.063 -3.5413 -0.5159  1.5662
   88MOL    H3422828   1.448   5.861   1.848  0.5076  0.5974 -0.9983
   88MOL    H3522829   1.553   5.695   2.069 -1.3192 -0.4412  0.4940
   88MOL    H3622830   1.424   5.646   1.940  0.3020 -1.3681  0.4594
   88MOL    H3722831   1.431   5.867   2.154 -1.9753 -1.0139  0.6816
   88MOL    H3822832   1.293   5.860   2.034 -0.2038 -0.1779 -0.9437
   88MOL    H3922833   1.606   6.072   1.824  0.3569  0.3524 -0.4365
   88MOL    H4022834   1.717   6.121   1.944 -0.4063  1.1337 -0.9316
   88MOL    C4122835   1.511   6.164   2.000 -0.0265 -0.4854  0.2509
   88MOL    C4222836   1.497   6.289   1.911  0.0675  0.5028 -0.1801
   88MOL    C4322837   1.381   6.377   1.895  0.2835  0.2034  0.3764
   88MOL    C4422838   1.419   6.296   1.776 -0.3430 -0.2049  0.0104
   88MOL    C4522839   1.547   6.212   2.135  0.1123  0.1595  0.2342
   88MOL    H4622840   1.419   6.106   1.990  0.0439 -0.8469  1.5878
   88MOL    H4722841   1.580   6.359   1.919  1.4633 -0.9220 -1.7405
   88MOL    H4822842   1.285   6.350   1.938  0.2262 -0.3980 -0.1242
   88MOL    H4922843   1.398   6.484   1.889  3.5990 -0.3296 -0.5220
   88MOL    H5022844   1.456   6.358   1.695 -1.3300 -1.8661 -1.7341
   88MOL    H5122845   1.348   6.217   1.753 -0.0006 -0.2823 -0.7865
   88MOL    H5222846   1.633   6.279   2.128  1.7026 -1.9453 -1.0769
   88MOL    H5322847   1.600   6.135   2.192 -1.3625 -0.2219  1.1129
   88MOL    C5422848   1.434   6.272   2.231 -0.0447  0.0968 -0.8319
   88MOL    C5522849   1.345   6.151   2.280 -0.1431  0.3393 -0.2129
   88MOL    C5622850   1.205   6.130   2.221  0.0113  0.5908  0.0773
   88MOL    C5722851   1.212   6.197   2.357  0.2356  0.0237 -0.9254
   88MOL    C5822852   1.504   6.352   2.339  0.1810 -0.5252 -0.5041
   88MOL    H5922853   1.366   6.333   2.170 -2.4909 -0.6879  1.0454
   88MOL    H6022854   1.397   6.064   2.321 -0.5502  0.1791 -0.0308
   88MOL    H6122855   1.174   6.187   2.134 -0.4672 -0.4297 -0.4335
   88MOL    H6222856   1.176   6.026   2.206 -2.4709  0.8385  2.6435
   88MOL    H6322857   1.183   6.140   2.445 -0.3230 -1.1636 -1.8637
   88MOL    H6422858   1.182   6.301   2.365  0.2465  0.0924 -1.7323
   88MOL    H6522859   1.423   6.388   2.402  0.1349  1.3784 -1.6270
   88MOL    H6622860   1.558   6.294   2.415  1.9764 -1.8499 -2.7185
   88MOL    C6722861   1.571   6.487   2.304 -0.5367  0.1874  0.2927
   88MOL    C6822862   1.468   6.589   2.259  0.6863 -0.0441 -0.1907
   88MOL    C6922863   1.522   6.726   2.211  0.6578  0.8256  0.3331
   88MOL    C7022864   1.451   6.634   2.114 -0.2173  0.7082 -0.0981
   88MOL    C7122865   1.652   6.536   2.427  0.2332 -0.7938  0.5212
   88MOL    H7222866   1.647   6.478   2.227 -0.0180 -2.2572  1.0322
   88MOL    H7322867   1.386   6.602   2.328 -0.9579  3.4074 -2.6206
   88MOL    H7422868   1.465   6.819   2.222 -1.6972 -0.3438 -1.5905
   88MOL    H7522869   1.630   6.731   2.218  0.7422 -0.3689 -0.1376
   88MOL    H7622870   1.519   6.591   2.041  0.1874 -0.9228  1.2072
   88MOL    H7722871   1.349   6.642   2.076 -0.4256 -2.3423 -0.3155
   88MOL    H7822872   1.585   6.538   2.513 -1.8583 -1.3376 -1.0422
   88MOL    H7922873   1.696   6.635   2.418 -1.8652  0.1689  0.6755
   88MOL    C8022874   1.774   6.450   2.466  0.5204 -0.2238 -0.2810
   88MOL    C8122875   1.829   6.491   2.606 -0.2958 -0.4428  0.4669
   88MOL    C8222876   1.904   6.391   2.695  0.4790  0.1589  0.0294
   88MOL    C8322877   1.762   6.427   2.728  0.2247  0.1293 -0.1492
   88MOL    C8422878   1.884   6.435   2.360 -0.1439 -1.0157  0.0034
   88MOL    H8522879   1.740   6.347   2.479 -1.9424  0.6713  0.6788
   88MOL    H8622880   1.853   6.594   2.629  1.1620 -0.4030 -1.1313
   88MOL    H8722881   1.993   6.419   2.751 -0.7428  2.5532  0.8296
   88MOL    H8822882   1.916   6.293   2.650 -0.2527 -0.5080  1.2483
   88MOL    H8922883   1.690   6.346   2.714  2.5774 -2.3413  1.5385
   88MOL    H9022884   1.747   6.498   2.808  1.9638  0.5277 -0.1554
   88MOL    H9122885   1.975   6.392   2.401 -0.5660  0.2908  2.4214
   88MOL    H9222886   1.844   6.370   2.283 -4.0675  1.0393  0.1537
   88MOL    C9322887   1.937   6.563   2.292  0.0612 -0.2291 -0.6584
   88MOL    C9422888   2.021   6.659   2.374 -0.1179 -0.2827  0.0270
   88MOL    C9522889   2.025   6.803   2.355 -0.1051 -0.4937 -0.1035
   88MOL    C9622890   1.981   6.755   2.486 -0.1090  0.4725  0.1515
   88MOL    C9722891   2.017   6.524   2.162  0.4580 -0.3040 -0.7263
   88MOL    H9822892   1.849   6.620   2.262  0.2148 -0.3744 -1.4093
   88MOL    H9922893   2.107   6.608   2.415  0.7259  0.7079 -0.4857
   88MOL   H10022894   2.125   6.845   2.342  0.3079 -1.7161 -0.9729
   88MOL   H10122895   1.952   6.838   2.282 -0.4099  0.4940  0.6677
   88MOL   H10222896   2.035   6.789   2.574 -2.8243  1.2629  1.5706
   88MOL   H10322897   1.873   6.757   2.499  0.1533 -0.0379  2.6433
   88MOL   H10422898   1.961   6.448   2.108 -1.1855  1.4966 -1.6633
   88MOL   H10522899   2.118   6.484   2.168  0.0229 -1.2170  0.6443
   88MOL   C10622900   2.031   6.636   2.054 -0.3385 -0.0722 -0.2512
   88MOL   C10722901   2.169   6.642   1.995  1.0220 -0.4957 -0.2683
   88MOL   C10822902   2.228   6.781   1.955 -0.8675 -0.3245 -0.1455
   88MOL   C10922903   2.294   6.696   2.063 -0.7092 -0.0737  0.4411
   88MOL   C11022904   1.921   6.620   1.947  0.1771  0.4699  0.3145
   88MOL   H11122905   2.019   6.732   2.102  0.4813  1.0220 -2.1796
   88MOL   H11222906   2.190   6.548   1.945 -0.1553 -0.7906 -0.2078
   88MOL   H11322907   2.283   6.789   1.862  0.2732 -0.3137  0.5181
   88MOL   H11422908   2.204   6.880   1.991  1.7020  1.3936 -2.9744
   88MOL   H11522909   2.283   6.728   2.167  2.3485 -0.6104  0.9654
   88MOL   H11622910   2.389   6.652   2.035 -0.6537 -1.5313  2.8159
   88MOL   H11722911   1.932   6.524   1.898 -1.7958  0.0126  0.7291
   88MOL   H11822912   1.822   6.622   1.992 -0.8683  0.0727 -1.9037
   88MOL   C11922913   1.916   6.726   1.835 -0.0547 -0.3659 -0.0107
   88MOL   C12022914   1.814   6.692   1.730  0.3143  0.1381 -0.6911
   88MOL   C12122915   1.830   6.561   1.648  0.0672 -0.2184 -0.2257
   88MOL   C12222916   1.842   6.699   1.579 -0.0203  0.7535 -0.0779
   88MOL   C12322917   1.899   6.874   1.884 -0.0985 -0.2075 -0.1455
   88MOL   H12422918   2.011   6.709   1.786 -0.3004 -0.9129 -0.3073
   88MOL   H12522919   1.715   6.723   1.763  0.5137 -0.1451  0.1614
   88MOL   H12622920   1.748   6.495   1.620 -0.9049  0.5259  0.8204
   88MOL   H12722921   1.929   6.518   1.659 -0.7166 -1.8695  0.5652
   88MOL   H12822922   1.941   6.714   1.536 -0.4145 -0.6663 -1.5429
   88MOL   H12922923   1.760   6.731   1.515 -0.3301  1.1971  0.5297
   88MOL   H13022924   1.795   6.878   1.918 -0.2682 -0.0918 -0.6741
   88MOL   H13122925   1.958   6.887   1.975 -0.1650  0.0325 -0.1370
   88MOL   C13222926   1.929   6.981   1.768 -0.0072  0.2644  0.5551
   88MOL   C13322927   2.076   6.998   1.743  0.3346 -0.4009 -0.2279
   88MOL   C13422928   2.128   7.058   1.617 -0.0772 -0.0504  0.2390
   88MOL   C13522929   2.148   6.913   1.646 -0.2693  0.5888 -0.1656
   88MOL   C13622930   1.868   7.109   1.826  0.4207 -0.1471  0.3691
   88MOL   H13722931   1.872   6.944   1.683 -1.5069  2.0320  0.7543
   88MOL   H13822932   2.125   7.033   1.834  0.2522 -0.3143 -0.2161
   88MOL   H13922933   2.057   7.105   1.549 -0.8490  0.1208  1.1687
   88MOL   H14022934   2.219   7.113   1.640 -0.9099  0.6933  1.7724
   88MOL   H14122935   2.095   6.852   1.573 -1.3168  1.4676 -0.1488
   88MOL   H14222936   2.253   6.892   1.666 -0.0613  2.3230  0.6112
   88MOL   H14322937   1.778   7.085   1.884  0.8203  0.5471  1.2959
   88MOL   H14422938   1.930   7.148   1.907  0.9009  0.0864 -0.1097
   88MOL   C14522939   1.822   7.219   1.731 -0.0278  0.4881 -0.1627
   88MOL   C14622940   1.718   7.175   1.626 -0.5963 -0.2847 -0.0627
   88MOL   C14722941   1.678   7.242   1.494  0.1677 -0.5635  0.5440
   88MOL   C14822942   1.763   7.120   1.498  0.2668 -0.1822 -0.2014
   88MOL   C14922943   1.782   7.345   1.803  0.6981 -0.1372  0.1069
   88MOL   H15022944   1.915   7.238   1.676 -0.5247  0.0934 -1.1465
   88MOL   H15122945   1.636   7.118   1.670  1.1289 -1.7313  1.3474
   88MOL   H15222946   1.576   7.223   1.464 -0.1487  3.1378 -0.9511
   88MOL   H15322947   1.726   7.328   1.447 -3.7662  1.1350 -0.5670
   88MOL   H15422948   1.866   7.139   1.471  0.8342 -0.5612  1.6434
   88MOL   H15522949   1.715   7.024   1.476 -0.8950  0.3578 -0.0848
   88MOL   H15622950   1.673   7.345   1.814  0.8162 -1.7333  1.5276
   88MOL   H15722951   1.818   7.338   1.906 -1.6626  2.2292  1.1672
   88MOL   C15822952   1.831   7.467   1.731  0.3912  0.8804 -0.1303
   88MOL   C15922953   1.977   7.495   1.741 -0.4374  0.5532  0.5062
   88MOL   C16022954   2.067   7.430   1.635  0.1019  0.1182  0.3478
   88MOL   C16122955   2.068   7.581   1.652  0.1165 -0.0172 -0.3482
   88MOL   C16222956   1.745   7.591   1.791 -0.0036 -0.0563  0.1370
   88MOL   H16322957   1.806   7.453   1.626 -1.6747 -0.2525  0.4647
   88MOL   H16422958   2.013   7.482   1.843 -1.2329 -0.6166  0.6383
   88MOL   H16522959   2.011   7.393   1.550  0.6663  0.1630 -0.0441
   88MOL   H16622960   2.152   7.370   1.668  0.1228 -0.8465 -1.3823
   88MOL   H16722961   2.151   7.632   1.699 -0.6414  0.2583  0.7227
   88MOL   H16822962   2.013   7.645   1.583  1.1555 -0.1725 -1.3316
   88MOL   H16922963   1.819   7.661   1.829  3.3909 -2.4948 -1.8042
   88MOL   H17022964   1.688   7.558   1.878 -0.4648 -0.5010 -0.3289
   88MOL   C17122965   1.644   7.659   1.691  0.1733  0.0580  0.0742
   88MOL   C17222966   1.713   7.693   1.558  0.2573 -0.9722  0.2887
   88MOL   C17322967   1.679   7.821   1.493  0.6321 -0.2911  0.6375
   88MOL   C17422968   1.820   7.800   1.553 -0.5836 -0.0989 -0.5512
   88MOL   C17522969   1.512   7.590   1.675 -0.0309 -0.4986 -0.8065
   88MOL   H17622970   1.627   7.760   1.728 -1.3474 -0.8992  2.0567
   88MOL   H17722971   1.732   7.615   1.486  0.0535 -0.7205 -0.0377
   88MOL   H17822972   1.667   7.815   1.385  1.1079 -3.7036  0.7320
   88MOL   H17922973   1.605   0.040   1.548 -0.6209 -2.0438  0.8437
   88MOL   H18022974   1.853   7.822   1.655 -0.8458 -2.6863  0.1252
   88MOL   H18122975   1.900   7.781   1.482  1.3603 -0.2074  1.6225
   88MOL   H18222976   1.518   7.489   1.717 -1.7387 -0.8773 -1.4291
   88MOL   H18322977   1.482   7.569   1.573 -1.8770 -0.5096 -0.2680
   88MOL   C18422978   1.393   7.662   1.744 -0.0397  0.1666 -0.3497
   88MOL   C18522979   1.302   7.548   1.811 -0.2596  0.0857 -0.7799
   88MOL   C18622980   1.254   7.566   1.957  0.2901 -0.0909 -0.1345
   88MOL   C18722981   1.361   7.468   1.926 -0.1263 -0.0505  1.0280
   88MOL   C18822982   1.309   7.737   1.643 -0.3036  0.5017 -0.5636
   88MOL   H18922983   1.440   7.723   1.821  2.1567 -0.6052 -1.0631
   88MOL   H19022984   1.240   7.488   1.744  0.0322  0.5296 -1.4555
   88MOL   H19122985   1.160   7.522   1.989  0.7314 -1.3092 -0.4453
   88MOL   H19222986   1.281   7.657   2.010 -0.0912 -0.6675  1.0676
   88MOL   H19322987   1.328   7.365   1.938 -4.8868  1.2533  0.3242
   88MOL   H19422988   1.453   7.494   1.976 -0.0905  0.3885  0.7332
   88MOL   H19522989   1.261   7.663   1.580  1.5743 -2.1742  1.0133
   88MOL   H19622990   1.370   7.806   1.584  1.1848  2.6286  3.2651
   88MOL   C19722991   1.204   7.825   1.698 -0.8850 -0.3892 -0.2738
   88MOL   C19822992   1.110   0.033   1.581 -0.1872 -0.0267 -0.2309
   88MOL   C19922993   0.960   0.072   1.606  0.3160 -0.2365 -0.1772
   88MOL   C20022994   0.997   7.778   1.552 -0.1084 -0.2915  0.6747
   88MOL   C20122995   1.267   0.110   1.767 -0.2022 -0.5846  0.4560
   88MOL   H20222996   1.151   7.770   1.776 -2.4112 -1.3822 -1.9545
   88MOL   H20322997   1.160   0.078   1.496  0.2467  1.9359  1.0304
   88MOL   H20422998   0.943   0.091   1.712  0.8299  2.1855 -0.5016
   88MOL   H20522999   0.927   0.158   1.548  0.2115  0.2096  0.5290
   88MOL   H20623000   0.984   7.695   1.620 -0.4414  0.1580  1.1595
   88MOL   H20723001   0.963   7.760   1.450  3.3920  0.8408 -0.7708
   88MOL   H20823002   1.366   0.083   1.802  0.3402  1.4419  0.5676
   88MOL   H20923003   1.297   0.186   1.695  1.3269 -0.9194  0.7175
   88MOL   C21023004   1.187   0.175   1.892 -0.0863  0.2787 -0.5086
   88MOL   C21123005   1.158   0.067   2.004  0.5925 -0.5212  0.0288
   88MOL   C21223006   1.059   0.109   2.109 -0.2197  0.2753  0.4722
   88MOL   C21323007   1.030   7.823   2.017 -0.0518  0.2011 -0.2916
   88MOL   C21423008   1.270   0.295   1.947 -0.3972 -0.4633  0.1866
   88MOL   H21523009   1.092   0.219   1.863  0.1798  0.6572 -0.8134
   88MOL   H21623010   1.254   0.031   2.038  0.1407 -1.2039  0.6005
   88MOL   H21723011   1.083   0.086   2.213  0.2848 -1.2008  0.0398
   88MOL   H21823012   1.004   0.198   2.080  0.2557  0.0717 -1.1280
   88MOL   H21923013   1.037   7.724   2.062 -1.1436  1.4336  2.7423
   88MOL   H22023014   0.952   0.007   1.945  0.4781 -0.2798 -1.0205
   88MOL   H22123015   1.297   0.278   2.051  1.8519 -1.0598 -0.4823
   88MOL   H22223016   1.367   0.302   1.897  0.3319  2.0700  1.8370
   88MOL   C22323017   1.191   0.428   1.938  0.0512  0.3487 -0.1943
   88MOL   C22423018   1.184   0.479   1.793  0.1699  0.0177  0.1563
   88MOL   C22523019   1.087   0.429   1.690 -0.3198 -0.4059  0.0198
   88MOL   C22623020   1.081   0.573   1.739 -0.5119 -0.3085  0.5604
   88MOL   C22723021   1.255   0.544   2.027  0.7485  0.2853  0.2483
   88MOL   H22823022   1.089   0.414   1.974 -0.3760 -0.1814 -1.6053
   88MOL   H22923023   1.285   0.499   1.756  0.4317 -0.6702  0.4945
   88MOL   H23023024   1.014   0.354   1.719  0.7185 -1.0117  1.1232
   88MOL   H23123025   1.128   0.413   1.591 -1.0370 -2.1568 -0.0095
   88MOL   H23223026   1.116   0.651   1.672 -0.2366 -0.0686  0.9767
   88MOL   H23323027   0.992   0.592   1.799  0.0654  1.1582  0.9733
   88MOL   H23423028   1.352   0.570   1.985  0.8389  1.0309  0.9148
   88MOL   H23523029   1.184   0.626   2.018 -0.2156 -0.5413  0.2621
   88MOL   C23623030   1.274   0.504   2.178  0.3876 -0.0321  0.1378
   88MOL   C23723031   1.145   0.446   2.236  0.3158  0.5688  0.0953
   88MOL   C23823032   1.091   0.470   2.368  0.6610  0.5232  0.0817
   88MOL   C23923033   1.027   0.542   2.253  0.2739  0.4161  0.0477
   88MOL   C24023034   1.328   0.618   2.262  0.6809  0.7600 -0.8024
   88MOL   H24123035   1.348   0.425   2.185 -0.5809 -1.0990 -1.2486
   88MOL   H24223036   1.113   0.353   2.189  0.3553  1.3223 -1.4732
   88MOL   H24323037   1.039   0.388   2.418  0.6082  2.6369  3.6570
   88MOL   H24423038   1.142   0.537   2.436 -0.1731  0.6766  0.5663
   88MOL   H24523039   1.034   0.650   2.253 -2.2693  0.6282  1.1805
   88MOL   H24623040   0.934   0.513   2.203  0.9168  1.1336 -1.6014
   88MOL   H24723041   1.267   0.707   2.270 -0.1704  0.2595 -1.6512
   88MOL   H24823042   1.330   0.581   2.364  0.4044  0.5162 -0.8845
   88MOL   C24923043   1.464   0.682   2.221  0.0190  0.2156 -0.8788
   88MOL   C25023044   1.579   0.583   2.240 -0.0304  0.3977 -0.5372
   88MOL   C25123045   1.619   0.472   2.150 -0.0707 -0.5254 -0.4463
   88MOL   C25223046   1.709   0.594   2.164  0.4607 -0.0232  0.0985
   88MOL   C25323047   1.493   0.809   2.293 -0.5017  0.4501  0.3585
   88MOL   H25423048   1.451   0.703   2.115  0.9795 -0.9145 -1.2356
   88MOL   H25523049   1.590   0.550   2.343  1.4028  1.7832 -0.2189
   88MOL   H25623050   1.667   0.377   2.174  1.4055 -0.6591 -3.6396
   88MOL   H25723051   1.563   0.470   2.057  1.3339  3.8983 -1.5512
   88MOL   H25823052   1.801   0.577   2.219  0.9159  2.4768  0.2028
   88MOL   H25923053   1.718   0.652   2.072  1.1754 -1.5590 -0.8190
   88MOL   H26023054   1.402   0.863   2.320  0.9530  2.6485  0.9913
   88MOL   H26123055   1.554   0.881   2.239  2.8226 -0.5899  2.6015
   88MOL   H26223056   1.540   0.784   2.388 -0.4053  0.6957  0.3734
   89MOL     C123057   7.155   5.158   2.376  0.3062  0.6717 -0.3087
   89MOL     C223058   7.017   5.173   2.428  0.4785 -0.3671  0.4446
   89MOL     C323059   6.885   5.172   2.357 -0.1392  0.2770  0.3102
   89MOL     C423060   6.937   5.300   2.416 -0.3918 -0.1940  0.2088
   89MOL     C523061   7.260   5.224   2.468 -0.0047  0.0788  0.3527
   89MOL     H623062   7.181   5.052   2.380  2.5384  1.2277  0.3046
   89MOL     H723063   7.008   5.148   2.533 -1.7094  0.2540  0.4241
   89MOL     H823064   6.881   5.159   2.249  0.0684 -0.1172  0.3489
   89MOL     H923065   6.811   5.113   2.410  1.5667 -1.2162  1.0793
   89MOL    H1023066   6.887   5.332   2.507  1.0297 -1.7777  1.5827
   89MOL    H1123067   6.967   5.372   2.339 -0.6025 -0.4008 -0.0648
   89MOL    H1223068   7.255   5.173   2.564  1.4465 -2.7380 -1.0177
   89MOL    H1323069   7.231   5.329   2.480 -1.5659 -0.3498  0.4188
   89MOL    H1423070   7.166   5.193   2.273  1.7967 -1.0207 -0.7619
   89MOL    C1523071   7.406   5.233   2.416  0.3956 -0.0632 -0.5196
   89MOL    C1623072   7.470   5.335   2.507 -0.0647  0.1753 -0.0263
   89MOL    C1723073   7.464   5.480   2.485  0.0364 -0.3003 -0.2634
   89MOL    C1823074   7.588   5.405   2.457 -0.6205  0.2999  0.4218
   89MOL    C1923075   7.470   5.091   2.426  0.2922 -0.2178 -0.3795
   89MOL    H2023076   7.406   5.272   2.315  1.6451  0.4382 -0.3393
   89MOL    H2123077   7.465   5.310   2.612 -2.3377 -0.1177 -0.1739
   89MOL    H2223078   7.476   5.543   2.573 -0.5951 -1.8968  0.9837
   89MOL    H2323079   7.410   5.526   2.402 -0.0666  0.5343  0.2549
   89MOL    H2423080   7.628   5.400   2.356 -0.4315  0.7282  0.4744
   89MOL    H2523081   7.666   5.423   2.531  0.0543  0.5292 -0.3316
   89MOL    H2623082   7.408   5.019   2.373  0.1345 -0.8965  0.7069
   89MOL    H2723083   7.464   5.056   2.529  0.9659 -2.7185 -1.1581
   89MOL    C2823084   7.610   5.074   2.369  0.3895  0.2546 -0.2236
   89MOL    C2923085   7.621   5.070   2.221 -0.0928  0.3979 -0.3058
   89MOL    C3023086   7.622   5.192   2.139 -0.1600 -0.4203 -0.4952
   89MOL    C3123087   7.752   5.111   2.155  0.8545  0.8864  0.1798
   89MOL    C3223088   7.675   4.943   2.417  0.8470 -0.0372 -0.0095
   89MOL    H3323089   7.671   5.158   2.404 -0.5765  0.6485  0.5331
   89MOL    H3423090   7.577   4.984   2.171  2.8814 -0.2807 -1.8778
   89MOL    H3523091   7.648   5.291   2.176 -2.6355 -0.6457  1.9981
   89MOL    H3623092   7.563   5.192   2.047 -0.7661 -3.0546 -0.1461
   89MOL    H3723093   7.830   5.141   2.225  0.1647  0.8574  0.9681
   89MOL    H3823094   7.774   5.051   2.068  0.0050 -0.8592  1.1361
   89MOL    H3923095   7.749   4.891   2.355  2.1929  0.4395  1.1727
   89MOL    H4023096   7.595   4.868   2.419  0.2932  0.5023 -1.3129
   89MOL    C4123097   7.730   4.937   2.563 -0.4010 -0.1634  1.1172
   89MOL    C4223098   0.001   5.041   2.595 -0.1320  0.0015  0.1618
   89MOL    C4323099   0.022   5.088   2.743  0.2301 -0.3478  0.4230
   89MOL    C4423100   7.793   5.177   2.637  0.1694 -0.2850 -1.0592
   89MOL    C4523101   7.774   4.799   2.623 -0.1661 -0.7915 -0.7530
   89MOL    H4623102   7.649   4.975   2.625 -1.2082  1.1262 -0.6795
   89MOL    H4723103   0.092   5.025   2.537 -0.5466 -0.5842 -0.3337
   89MOL    H4823104   7.799   5.068   2.829  0.7472  0.3386  0.9744
   89MOL    H4923105   0.126   5.104   2.771  0.1838  1.4130 -0.3489
   89MOL    H5023106   0.008   5.259   2.590 -0.9344  1.6119  0.8696
   89MOL    H5123107   7.686   5.188   2.652  0.0526  0.0125 -2.0223
   89MOL    H5223108   7.819   4.812   2.722  0.0420 -0.5001 -0.8843
   89MOL    H5323109   0.020   4.753   2.573  0.3270 -1.1722  0.4154
   89MOL    C5423110   7.649   4.705   2.625  0.2262  0.1796 -0.0671
   89MOL    C5523111   7.644   4.610   2.498  0.4596  0.3527  0.5845
   89MOL    C5623112   7.533   4.615   2.394 -0.4397 -0.4667  0.1651
   89MOL    C5723113   7.536   4.500   2.483  0.0960 -0.0922  0.0638
   89MOL    C5823114   7.644   4.610   2.748 -0.1931  0.5516  0.2095
   89MOL    H5923115   7.555   4.760   2.616  0.0701 -0.1798 -0.6562
   89MOL    H6023116   7.744   4.594   2.459 -0.1832 -3.8142  0.4747
   89MOL    H6123117   7.462   4.693   2.418 -0.8991 -0.0625 -2.3527
   89MOL    H6223118   7.560   4.593   2.291  0.4979  1.4146 -0.0042
   89MOL    H6323119   7.593   4.412   2.454  1.4807  0.2443  1.6387
   89MOL    H6423120   7.449   4.498   2.549  0.5472 -1.0357  0.6469
   89MOL    H6523121   7.565   4.537   2.730  0.4884  0.3903 -2.4202
   89MOL    H6623122   7.739   4.556   2.749 -2.0086 -2.8634 -1.4174
   89MOL    C6723123   7.619   4.672   2.891 -0.1432 -0.3637 -0.1195
   89MOL    C6823124   7.486   4.753   2.885 -0.0772 -0.6454  0.1020
   89MOL    C6923125   7.422   4.823   3.003 -0.1036 -0.7638 -0.1478
   89MOL    C7023126   7.488   4.903   2.883  0.0492  0.0349 -0.9018
   89MOL    C7123127   7.606   4.562   3.002 -0.8673  0.1494  0.0550
   89MOL    H7223128   7.694   4.745   2.923 -1.1080 -0.3599  2.2664
   89MOL    H7323129   7.419   4.706   2.813  0.3219 -2.8054  1.0913
   89MOL    H7423130   7.313   4.821   3.007 -0.0837 -1.6819 -0.1563
   89MOL    H7523131   7.477   4.813   3.096  2.1295 -1.0349 -1.4638
   89MOL    H7623132   7.583   4.953   2.898  0.3289  0.1789 -3.0280
   89MOL    H7723133   7.427   4.948   2.805 -0.8291  4.2892  2.0560
   89MOL    H7823134   7.506   4.522   2.984 -1.0035  0.4438  0.1500
   89MOL    H7923135   7.605   4.612   3.099  2.8759 -1.3112  0.9022
   89MOL    C8023136   7.711   4.453   3.015  0.3402  0.0762 -0.0061
   89MOL    C8123137   7.688   4.370   3.135 -0.1180  0.1917  0.1393
   89MOL    C8223138   7.721   4.224   3.137 -0.9621 -0.5594 -0.8451
   89MOL    C8323139   7.579   4.278   3.146  0.2222 -0.0693  0.9974
   89MOL    C8423140   0.021   4.513   3.004 -1.0347 -0.0918 -0.8082
   89MOL    H8523141   7.703   4.391   2.926 -0.2280 -0.4489  0.4063
   89MOL    H8623142   7.724   4.423   3.223  0.8564 -0.8583  0.3850
   89MOL    H8723143   7.746   4.168   3.227 -0.0853 -0.3329 -0.9367
   89MOL    H8823144   7.733   4.161   3.049 -1.3787  0.8318 -1.9116
   89MOL    H8923145   7.515   4.270   3.058  0.4319  0.2931  0.8143
   89MOL    H9023146   7.541   4.287   3.248  0.3838 -2.2247  1.2678
   89MOL    H9123147   0.037   4.603   2.946 -1.0440  1.2426  1.2291
   89MOL    H9223148   0.055   4.539   3.104 -0.6690  1.0420 -1.2216
   89MOL    C9323149   0.128   4.403   2.954 -0.4538  0.3778 -0.6299
   89MOL    C9423150   0.129   4.390   2.806 -0.1317  0.1591 -0.1327
   89MOL    C9523151   0.192   4.274   2.735  0.2206  0.4780  0.1304
   89MOL    C9623152   0.040   4.288   2.735  0.1529  0.8270  0.3927
   89MOL    C9723153   0.277   4.431   3.000  0.2468 -0.0452 -0.3251
   89MOL    H9823154   0.106   4.307   3.000  1.0026  0.8299  1.0915
   89MOL    H9923155   0.134   4.484   2.752  1.3599  0.4451  0.4612
   89MOL   H10023156   0.250   4.301   2.647 -2.0112  0.9784 -1.2253
   89MOL   H10123157   0.238   4.201   2.802 -0.6709 -0.1799  0.0380
   89MOL   H10223158   7.827   4.321   2.646  0.1127  0.2606  0.2070
   89MOL   H10323159   7.820   4.228   2.804  0.2099 -0.9940 -1.0953
   89MOL   H10423160   0.273   4.538   3.025  1.5187  0.4936 -2.3465
   89MOL   H10523161   0.347   4.420   2.918  0.8207  0.0753  0.1457
   89MOL   C10623162   0.325   4.350   3.120 -0.3460 -0.5060  0.3589
   89MOL   C10723163   0.476   4.364   3.135 -0.2912 -0.5036  0.9162
   89MOL   C10823164   0.553   4.229   3.157  1.0320 -0.7052  0.4190
   89MOL   C10923165   0.573   4.310   3.034 -0.5052 -0.3016 -0.4126
   89MOL   C11023166   0.251   4.384   3.250 -0.1286 -0.1479  0.0577
   89MOL   H11123167   0.293   4.248   3.097 -0.9946 -0.5153  1.2974
   89MOL   H11223168   0.519   4.443   3.195 -1.9199 -1.2813  3.1655
   89MOL   H11323169   0.630   4.228   3.234  0.8140 -0.5138  0.6411
   89MOL   H11423170   0.494   4.139   3.149  0.5568 -0.3511 -0.1381
   89MOL   H11523171   0.543   4.265   2.940  1.0128  0.1079 -1.1039
   89MOL   H11623172   0.672   4.353   3.029 -1.1869  1.0107 -3.0190
   89MOL   H11723173   0.261   4.491   3.265  3.1325 -0.5786  1.1734
   89MOL   H11823174   0.146   4.363   3.228 -0.2190 -1.1276  1.3613
   89MOL   C11923175   0.276   4.302   3.375  0.1779  0.6589 -0.1721
   89MOL   C12023176   0.232   4.390   3.488 -0.4361 -0.2832  0.4211
   89MOL   C12123177   0.313   4.496   3.550  0.0148  0.5140  0.8880
   89MOL   C12223178   0.287   4.372   3.628  0.0719 -0.1380 -0.7797
   89MOL   C12323179   0.210   4.161   3.367  0.1080  0.1830  0.3498
   89MOL   H12423180   0.384   4.292   3.386  0.1813  1.5198  0.6968
   89MOL   H12523181   0.126   4.415   3.483 -0.5826 -0.1150  3.4875
   89MOL   H12623182   0.262   4.590   3.567 -0.1238  0.4705  0.7089
   89MOL   H12723183   0.410   4.514   3.504  0.1074  0.5089  1.0761
   89MOL   H12823184   0.374   4.310   3.648  0.3565  0.9248  1.3869
   89MOL   H12923185   0.218   4.391   3.710 -1.6931  0.0054 -2.2357
   89MOL   H13023186   0.104   4.176   3.386  0.3098  1.5510  0.4106
   89MOL   H13123187   0.216   4.113   3.269  0.8395  0.6711  0.1575
   89MOL   C13223188   0.269   4.058   3.469 -0.4943  0.4907 -0.2415
   89MOL   C13323189   0.410   4.010   3.423 -0.4638  0.1909  0.1993
   89MOL   C13423190   0.507   3.952   3.524 -0.3368 -0.3941 -0.1496
   89MOL   C13523191   0.531   4.085   3.458 -0.4864 -0.4967 -0.3063
   89MOL   C13623192   0.194   3.929   3.496 -0.2792 -0.3852 -0.1341
   89MOL   H13723193   0.287   4.113   3.561  1.9644 -0.3013 -0.2060
   89MOL   H13823194   0.405   3.981   3.319 -0.8975 -1.9243  0.7748
   89MOL   H13923195   0.473   3.942   3.627  0.9868  1.9337  0.5582
   89MOL   H14023196   0.551   3.858   3.492  1.1927 -0.0983  1.0293
   89MOL   H14123197   0.523   4.176   3.516  1.1064  0.2697 -1.2554
   89MOL   H14223198   0.601   4.089   3.374  0.4782  1.8183  0.5549
   89MOL   H14323199   0.195   3.871   3.404  0.6007 -1.2712  0.4193
   89MOL   H14423200   0.254   3.868   3.564 -0.1886  0.9357  0.9905
   89MOL   C14523201   0.050   3.945   3.549  0.0075 -0.2341  0.2560
   89MOL   C14623202   7.830   3.808   3.557  0.8705  0.2893  0.2590
   89MOL   C14723203   7.685   3.789   3.563  0.6239 -0.3885  0.0426
   89MOL   C14823204   7.765   3.741   3.439 -0.0919 -0.1080  0.8137
   89MOL   C14923205   0.050   4.017   3.685 -0.0101 -0.4089  0.6364
   89MOL   H15023206   0.001   4.005   3.473  0.9866 -0.0004 -0.2064
   89MOL   H15123207   0.056   3.737   3.608 -0.4978 -0.7265  0.6287
   89MOL   H15223208   7.655   3.705   3.625  1.5604 -1.1167 -0.4749
   89MOL   H15323209   7.607   3.864   3.548  2.2493  1.2060 -0.5718
   89MOL   H15423210   7.737   3.805   3.356  0.7293  1.6342  1.8224
   89MOL   H15523211   7.790   3.637   3.420  0.6990  0.8035 -3.5565
   89MOL   H15623212   0.063   3.946   3.767  0.4928 -2.1850 -0.9713
   89MOL   H15723213   0.131   4.090   3.688 -0.7560  0.5082 -1.0098
   89MOL   C15823214   7.760   4.094   3.721  0.0158 -0.1761  0.9580
   89MOL   C15923215   7.744   4.213   3.627 -0.0956  0.0271 -0.6843
   89MOL   C16023216   7.648   4.209   3.510  0.1208  0.1558  0.1336
   89MOL   C16123217   7.611   4.295   3.628  0.4803  0.2186  0.6864
   89MOL   C16223218   7.743   4.135   3.865  0.6015  0.6507 -0.7868
   89MOL   H16323219   7.674   4.030   3.704 -1.4832  1.6626  1.4519
   89MOL   H16423220   7.836   4.265   3.599 -0.8447  1.7533 -0.0335
   89MOL   H16523221   7.587   4.123   3.486  0.4621 -0.5257  1.6792
   89MOL   H16623222   7.679   4.274   3.427 -0.6318  0.9833  0.4898
   89MOL   H16723223   7.601   4.402   3.617 -4.4300 -0.2055 -0.0474
   89MOL   H16823224   7.525   4.249   3.676 -1.2702 -0.0548 -2.6022
   89MOL   H16923225   7.670   4.215   3.878  0.1870 -0.1210  1.8459
   89MOL   H17023226   7.835   4.174   3.907 -0.8057  0.0301  3.0474
   89MOL   C17123227   7.723   4.024   3.974  0.1823  0.7750 -0.1662
   89MOL   C17223228   7.733   4.080   4.117 -0.2793  0.4820 -0.7554
   89MOL   C17323229   7.802   4.003   4.227  0.2302  0.2165  0.1302
   89MOL   C17423230   0.033   4.117   4.159  0.9925  0.5855  0.1717
   89MOL   C17523231   7.594   3.951   3.947 -0.8696 -0.3346 -0.3396
   89MOL   H17623232   7.801   3.949   3.961  0.2948  0.9228 -0.3315
   89MOL   H17723233   7.655   4.150   4.147  1.3423  0.9954  2.5137
   89MOL   H17823234   7.757   4.016   4.325  0.7953  0.7365  0.3161
   89MOL   H17923235   0.003   3.903   4.212 -1.1230 -0.5719  1.5446
   89MOL   H18023236   0.112   4.083   4.093  0.7407  0.9810 -0.3431
   89MOL   H18123237   0.050   4.213   4.208 -1.1208  1.3233 -0.4747
   89MOL   H18223238   7.606   3.907   3.848 -0.4041 -0.4992 -0.2104
   89MOL   H18323239   7.521   4.033   3.950  1.1134  1.4410  0.1975
   89MOL   C18423240   7.556   3.832   4.047 -0.7215 -0.1455  0.4515
   89MOL   C18523241   7.517   3.704   3.975  0.1459  0.0275  0.1469
   89MOL   C18623242   7.572   3.574   4.022 -0.3767  0.4116  0.3336
   89MOL   C18723243   7.610   3.625   3.888 -0.0265  0.1153  1.0269
   89MOL   C18823244   7.461   3.885   4.152  0.1453  0.1913  0.1788
   89MOL   H18923245   7.647   3.808   4.102 -0.5947  1.4732  0.9820
   89MOL   H19023246   7.415   3.717   3.938 -0.3617  0.5803  1.6741
   89MOL   H19123247   7.503   3.490   4.032  0.7248 -0.5385  0.0249
   89MOL   H19223248   7.638   3.584   4.108  2.9653 -2.2473 -1.7958
   89MOL   H19323249   7.556   3.583   3.804 -2.0205  0.3666  2.1569
   89MOL   H19423250   7.705   3.665   3.852 -1.1293  1.0898 -0.8740
   89MOL   H19523251   7.363   3.903   4.108 -0.3477  1.9473  1.9261
   89MOL   H19623252   7.502   3.975   4.197 -0.1771  0.3693  0.1155
   89MOL   C19723253   7.442   3.784   4.272 -0.4348  0.2179 -0.4588
   89MOL   C19823254   7.319   3.824   4.354 -0.3245 -0.3904  0.1555
   89MOL   C19923255   7.239   3.713   4.416  0.4761  0.0606 -0.2292
   89MOL   C20023256   7.188   3.781   4.294  0.6486  0.1016 -0.2700
   89MOL   C20123257   7.570   3.783   4.360  0.6837  0.1507 -0.0120
   89MOL   H20223258   7.421   3.684   4.234  0.0267  0.2606 -0.8283
   89MOL   H20323259   7.330   3.920   4.403  0.4691  0.2285 -1.2097
   89MOL   H20423260   7.184   3.733   4.508  0.6844  0.8937 -0.2853
   89MOL   H20523261   7.279   3.613   4.400 -1.3823 -1.4439  3.8592
   89MOL   H20623262   7.175   3.725   4.201 -1.5997 -0.9640  0.6388
   89MOL   H20723263   7.103   3.846   4.313 -0.0915 -0.8240 -0.3056
   89MOL   H20823264   7.662   3.778   4.301 -0.5744  0.8179 -2.0687
   89MOL   H20923265   7.572   3.879   4.412 -1.0674  0.1905  0.0150
   89MOL   C21023266   7.581   3.670   4.467  0.2383  0.6465  0.3591
   89MOL   C21123267   7.627   3.543   4.403  0.2905  0.1029 -0.0309
   89MOL   C21223268   7.594   3.414   4.470  0.1928 -0.1226 -0.2608
   89MOL   C21323269   7.524   3.440   4.341 -0.4451  0.4416 -0.0211
   89MOL   C21423270   7.688   3.712   4.572 -0.1896  0.4551  0.0199
   89MOL   H21523271   7.481   3.659   4.508 -0.2046  2.7707 -0.0570
   89MOL   H21623272   7.732   3.545   4.372  1.0586 -0.8835  2.3300
   89MOL   H21723273   7.678   3.345   4.480  0.1908 -0.0585  0.1895
   89MOL   H21823274   7.532   3.402   4.558 -1.7601  0.1554 -1.5651
   89MOL   H21923275   7.564   3.373   4.266 -0.1903  0.0476  0.4598
   89MOL   H22023276   7.417   3.461   4.349 -0.6130 -0.3591 -0.1678
   89MOL   H22123277   7.789   3.707   4.530 -0.1809 -1.7574  0.2487
   89MOL   H22223278   7.669   3.815   4.604  1.2914  0.5556  0.6271
   89MOL   C22323279   7.693   3.624   4.699 -0.5492  0.2796 -0.3235
   89MOL   C22423280   7.593   3.663   4.813 -0.6813  0.1897 -0.0315
   89MOL   C22523281   7.453   3.611   4.823  0.3128  0.1715 -0.2379
   89MOL   C22623282   7.559   3.561   4.925 -0.0742  0.4711  0.1156
   89MOL   C22723283   7.836   3.603   4.764  0.5687  0.0819  0.3599
   89MOL   H22823284   7.660   3.522   4.676  2.9213 -0.8489 -0.5288
   89MOL   H22923285   7.605   3.766   4.846  1.9155 -0.1003  0.0466
   89MOL   H23023286   7.418   3.542   4.747  0.7911 -1.2288  0.7919
   89MOL   H23123287   7.382   3.692   4.839  2.5436  1.9244  1.1962
   89MOL   H23223288   7.557   3.603   5.025  1.6203 -0.4490  0.5636
   89MOL   H23323289   7.591   3.457   4.920 -0.1327  0.4351  0.5535
   89MOL   H23423290   0.057   3.693   4.750 -0.1848  0.5129 -0.1019
   89MOL   H23523291   7.825   3.588   4.871 -0.7566 -1.4496  0.0257
   89MOL   C23623292   0.087   3.494   4.709 -0.7557  0.4305  0.4585
   89MOL   C23723293   0.087   3.379   4.804 -0.4834 -0.0730  0.3912
   89MOL   C23823294   7.807   3.294   4.819 -0.7021 -0.7766 -0.7292
   89MOL   C23923295   0.094   3.231   4.752 -0.5054  0.3958 -0.0535
   89MOL   C24023296   0.237   3.531   4.689  0.0463  0.7136  0.2738
   89MOL   H24123297   0.052   3.457   4.613  2.5019 -0.1118 -0.5846
   89MOL   H24223298   0.154   3.376   4.889 -0.9949 -1.2953  0.7591
   89MOL   H24323299   7.783   3.265   4.921  1.0500 -0.1766 -0.1381
   89MOL   H24423300   7.721   3.324   4.759 -1.3113 -2.1428 -0.5777
   89MOL   H24523301   0.109   3.235   4.645  0.2386 -1.4746 -0.0490
   89MOL   H24623302   0.168   3.165   4.796 -0.1300 -0.0863 -1.3834
   89MOL   H24723303   0.261   3.569   4.789 -2.1813  1.8143  0.4122
   89MOL   H24823304   0.301   3.445   4.670 -1.3204 -0.1661 -0.3634
   89MOL   C24923305   0.267   3.618   4.566 -0.2652  0.0824 -0.4494
   89MOL   C25023306   0.317   3.535   4.447  0.1934  0.1334 -0.1679
   89MOL   C25123307   0.217   3.468   4.350  0.2040  0.4489 -0.3216
   89MOL   C25223308   0.307   3.579   4.301  0.2907  0.0664 -0.2648
   89MOL   C25323309   0.376   3.726   4.595 -0.3282  0.7541 -0.2838
   89MOL   H25423310   0.180   3.669   4.527 -0.8442 -0.2080  0.4640
   89MOL   H25523311   0.406   3.474   4.463 -0.1895 -0.2348  0.5794
   89MOL   H25623312   0.239   3.362   4.339  2.2530  0.9897 -1.9771
   89MOL   H25723313   0.114   3.491   4.373  0.7630  1.3298  1.3630
   89MOL   H25823314   0.378   3.546   4.225  2.5888  1.5834  1.1581
   89MOL   H25923315   0.272   3.681   4.287  0.6023  0.1702 -0.3033
   89MOL   H26023316   0.383   3.794   4.511  0.6149  1.2458  0.1871
   89MOL   H26123317   0.475   3.680   4.606  0.0391  1.0987 -2.0626
   89MOL   H26223318   0.359   3.796   4.676  0.4494  0.5810  0.0335
   90MOL     C123319   1.238   1.067   5.717  0.2052 -0.3728 -0.1058
   90MOL     C223320   1.315   1.065   5.593 -0.0455  0.7658  0.8030
   90MOL     C323321   1.315   1.179   5.495 -0.5023  0.1463  0.5291
   90MOL     C423322   1.250   1.039   5.462  0.0526 -0.2075 -0.1779
   90MOL     C523323   1.246   0.924   5.789 -0.3120 -0.4259 -0.1308
   90MOL     H623324   1.275   1.142   5.787  0.9065  1.8440 -2.7941
   90MOL     H723325   1.400   0.997   5.596 -0.4700  0.2905  2.2296
   90MOL     H823326   1.249   1.263   5.511  0.6119  1.5112 -1.7373
   90MOL     H923327   1.408   1.199   5.443  0.3805 -2.2182  1.1538
   90MOL    H1023328   1.288   0.971   5.385  1.3562 -0.2084  0.4666
   90MOL    H1123329   1.141   1.046   5.471  0.1335 -0.6132  1.2538
   90MOL    H1223330   1.340   0.872   5.772 -0.4075 -0.9971  1.0473
   90MOL    H1323331   1.174   0.851   5.753 -2.0913  1.3662 -0.2979
   90MOL    H1423332   1.133   1.082   5.694 -0.7308 -3.6332  1.6962
   90MOL    C1523333   1.231   0.922   5.944  0.1217  0.0057 -0.6880
   90MOL    C1623334   1.353   0.973   6.012 -0.2103 -0.4419 -0.9788
   90MOL    C1723335   1.480   0.893   6.030 -0.1076  0.0283 -0.7136
   90MOL    C1823336   1.397   0.929   6.153  0.6988 -0.4789  1.1557
   90MOL    C1923337   1.108   0.997   5.998 -0.0403 -0.3237 -0.3208
   90MOL    H2023338   1.217   0.820   5.979  0.0385 -0.0449 -0.8689
   90MOL    H2123339   1.362   1.081   6.014  0.4450 -0.5173  0.6420
   90MOL    H2223340   1.569   0.953   6.012 -1.7877  2.5946 -0.5786
   90MOL    H2323341   1.484   0.787   6.004  1.2682 -0.1036 -0.0403
   90MOL    H2423342   1.353   0.840   6.195  0.1440 -1.0912 -0.6704
   90MOL    H2523343   1.450   1.001   6.215  2.2676  1.0636 -1.8146
   90MOL    H2623344   1.118   1.096   5.954 -1.1853 -0.1454 -0.1935
   90MOL    H2723345   1.118   1.022   6.104 -0.4678 -0.8464 -0.1555
   90MOL    C2823346   0.975   0.917   5.974 -0.3855  0.1282 -0.0336
   90MOL    C2923347   0.855   1.021   5.949 -0.8736  0.2609  0.3532
   90MOL    C3023348   0.840   1.084   5.813  0.2439 -0.1049 -0.0113
   90MOL    C3123349   0.730   0.996   5.870  0.8468  0.0008  0.0723
   90MOL    C3223350   0.945   0.827   6.098 -0.3250  0.0907  0.3990
   90MOL    H3323351   0.980   0.855   5.884 -0.5541 -0.2077  0.1860
   90MOL    H3423352   0.842   1.085   6.036  1.1881 -1.1755  1.7608
   90MOL    H3523353   0.905   1.035   5.741  1.5178 -0.4391  1.3415
   90MOL    H3623354   0.827   1.192   5.809  1.8719  0.2310  2.5749
   90MOL    H3723355   0.723   0.906   5.809  0.0809 -1.0226  1.6437
   90MOL    H3823356   0.637   1.049   5.888  2.0129  2.0549  0.2476
   90MOL    H3923357   0.892   0.889   6.171 -0.3358 -0.4715  0.8772
   90MOL    H4023358   1.043   0.801   6.137  0.4104  2.0985 -0.0674
   90MOL    C4123359   0.859   0.704   6.072 -0.2984  0.1958 -0.0006
   90MOL    C4223360   0.812   0.644   6.202  0.5035 -0.5569 -0.1848
   90MOL    C4323361   0.663   0.628   6.237  0.3197 -0.5423  0.3593
   90MOL    C4423362   0.756   0.714   6.324 -0.0894 -0.0996  0.0707
   90MOL    C4523363   0.926   0.593   5.980  0.5030  0.0787  0.7535
   90MOL    H4623364   0.775   0.739   6.012  1.3618  0.5591 -2.1814
   90MOL    H4723365   0.875   0.559   6.228 -0.2628 -0.3762  2.4203
   90MOL    H4823366   0.595   0.675   6.167 -1.8273 -0.9977  2.1107
   90MOL    H4923367   0.637   0.524   6.253 -0.0845 -1.1759 -3.8303
   90MOL    H5023368   0.772   0.675   6.424  0.3125  0.9604  0.4251
   90MOL    H5123369   0.744   0.822   6.321 -0.8334 -0.2089 -1.1099
   90MOL    H5223370   1.012   0.548   6.030  1.0113  0.0815 -0.0994
   90MOL    H5323371   0.969   0.633   5.888  0.0930 -1.7359 -0.2569
   90MOL    C5423372   0.837   0.474   5.933  0.1429 -0.7759 -0.4939
   90MOL    C5523373   0.741   0.522   5.833  0.3524 -0.1060 -0.3007
   90MOL    C5623374   0.608   0.581   5.880  0.5134  0.5337  0.8891
   90MOL    C5723375   0.620   0.450   5.803 -0.5096 -0.0804 -0.6294
   90MOL    C5823376   0.928   0.364   5.862  0.8853  0.0359 -0.3981
   90MOL    H5923377   0.790   0.419   6.014 -0.5560 -0.0161 -0.3832
   90MOL    H6023378   0.786   0.573   5.749 -0.6454  0.2861 -0.5989
   90MOL    H6123379   0.552   0.557   5.970  0.6410  2.2661  1.4409
   90MOL    H6223380   0.578   0.668   5.822 -0.4713  0.9328  1.9937
   90MOL    H6323381   0.600   0.450   5.696  0.9210 -1.3052 -0.9187
   90MOL    H6423382   0.602   0.359   5.860  1.3424  0.1056  0.2965
   90MOL    H6523383   0.869   0.310   5.789  0.1689  1.0207 -0.5515
   90MOL    H6623384   1.000   0.415   5.798  0.9254 -0.2713 -0.5999
   90MOL    C6723385   0.981   0.258   5.959 -0.2194 -0.0010  0.1704
   90MOL    C6823386   0.877   0.184   6.042  0.3208 -0.5044 -0.3298
   90MOL    C6923387   0.908   0.101   6.166  0.4452 -0.3447 -0.9388
   90MOL    C7023388   0.840   0.235   6.182  0.0440  0.1370  0.2522
   90MOL    C7123389   1.075   0.159   5.879 -0.5446 -0.2066 -0.1047
   90MOL    H7223390   1.036   0.314   6.034  2.3918 -0.9049 -0.9880
   90MOL    H7323391   0.787   0.154   5.989  0.1083 -2.0349  0.8782
   90MOL    H7423392   0.847   0.013   6.187  0.2322  0.0591  0.2162
   90MOL    H7523393   1.011   0.083   6.196  0.4662  1.1278 -0.1003
   90MOL    H7623394   0.904   0.309   6.231  3.8890 -2.9434  0.1473
   90MOL    H7723395   0.738   0.220   6.217 -0.0459  1.4512  0.5688
   90MOL    H7823396   1.027   0.127   5.787  0.6050 -1.0728 -0.4239
   90MOL    H7923397   1.093   0.062   5.926  5.0934 -0.9499 -3.2757
   90MOL    C8023398   1.217   0.218   5.843 -0.8294  0.0601 -0.0648
   90MOL    C8123399   1.253   0.197   5.699 -0.3423 -0.2429 -0.5182
   90MOL    C8223400   1.345   0.282   5.621  0.1831  0.2333  0.3302
   90MOL    C8323401   1.197   0.292   5.593 -0.0092  0.0611 -0.5216
   90MOL    C8423402   1.316   0.164   5.949 -0.8200  0.4045  0.4128
   90MOL    H8523403   1.215   0.324   5.866  1.3029  0.3020 -0.9071
   90MOL    H8623404   1.237   0.096   5.662  1.4387 -0.1861 -1.4675
   90MOL    H8723405   1.412   0.231   5.552 -0.7011  1.5162 -1.5234
   90MOL    H8823406   1.397   0.363   5.671  2.4876 -1.6310  1.0456
   90MOL    H8923407   1.153   0.384   5.632 -0.6743 -0.7149  0.6191
   90MOL    H9023408   1.177   0.265   5.490  0.2879  0.9259 -0.8057
   90MOL    H9123409   1.277   0.154   6.051 -0.7171 -0.6736  0.3591
   90MOL    H9223410   1.335   0.062   5.914 -2.1663 -0.2998  1.6601
   90MOL    C9323411   1.449   0.242   5.970 -0.2340  0.4330 -0.3715
   90MOL    C9423412   1.419   0.378   6.038  0.5110  0.2242 -0.2330
   90MOL    C9523413   1.507   0.495   6.039  0.0580  0.1534 -0.5125
   90MOL    C9623414   1.389   0.493   5.949 -0.1623  0.2065 -0.5864
   90MOL    C9723415   1.545   0.159   6.064  0.3309  0.7498 -0.6402
   90MOL    H9823416   1.489   0.267   5.872  0.0107  0.5790 -0.2333
   90MOL    H9923417   1.369   0.367   6.134  2.1305  0.8342  0.7151
   90MOL   H10023418   1.517   0.556   6.129 -0.1489  2.3572 -1.9367
   90MOL   H10123419   1.604   0.466   5.998  1.0203 -0.3098  2.0351
   90MOL   H10223420   1.313   0.563   5.981  0.7545  1.3022 -0.7944
   90MOL   H10323421   1.418   0.496   5.844  1.4080  0.9728 -0.1454
   90MOL   H10423422   1.485   0.130   6.150  0.2465  1.8961 -0.3023
   90MOL   H10523423   1.626   0.225   6.095 -0.6515  1.8068 -0.2700
   90MOL   C10623424   1.606   0.025   6.002 -0.0447 -0.1059 -0.4380
   90MOL   C10723425   1.684   0.042   5.878 -0.3524 -0.8083 -0.2547
   90MOL   C10823426   1.702   7.769   5.780  0.2993 -0.0853 -0.3699
   90MOL   C10923427   1.605   0.042   5.752  0.6327 -0.9868 -0.3645
   90MOL   C11023428   1.697   7.795   6.108  0.5361 -0.4282  0.4521
   90MOL   H11123429   1.522   7.796   5.983 -1.5381  1.1938  1.3188
   90MOL   H11223430   1.758   0.122   5.889 -0.1652 -1.1451  1.0329
   90MOL   H11323431   1.804   7.768   5.740  0.1067 -2.0187 -0.8757
   90MOL   H11423432   1.657   7.674   5.808 -1.2583  0.2128 -1.7991
   90MOL   H11523433   1.498   0.024   5.755  0.4810 -0.1306 -0.5433
   90MOL   H11623434   1.632   0.107   5.669  0.4604  1.5132  1.4590
   90MOL   H11723435   1.759   7.718   6.061  1.0901  0.2888 -0.0001
   90MOL   H11823436   1.766   0.034   6.140 -0.3830  1.0271 -1.0759
   90MOL   C11923437   1.635   7.730   6.235  0.4441 -0.8669 -0.1203
   90MOL   C12023438   1.589   7.588   6.205 -0.3843 -0.5138 -0.3762
   90MOL   C12123439   1.454   7.563   6.153  0.4741  0.1809 -0.3801
   90MOL   C12223440   1.492   7.517   6.297 -0.1009 -0.1420 -0.8134
   90MOL   C12323441   1.726   7.720   6.355 -0.2415  0.4398 -0.3686
   90MOL   H12423442   1.551   7.785   6.277  0.2181 -1.4674  0.2315
   90MOL   H12523443   1.671   7.524   6.173  0.7730  0.8872 -0.2582
   90MOL   H12623444   1.426   7.473   6.100  0.9975 -0.5614  0.5895
   90MOL   H12723445   1.392   7.647   6.121 -1.9752 -1.2472  0.4484
   90MOL   H12823446   1.476   7.569   6.392 -0.9388  0.3453 -1.2198
   90MOL   H12923447   1.527   7.416   6.313  0.4890  0.4814  2.3243
   90MOL   H13023448   1.702   7.645   6.430  1.1608  1.6097  1.2836
   90MOL   H13123449   1.821   7.679   6.319 -0.7122  0.3841 -1.5737
   90MOL   C13223450   1.743   0.006   6.435 -0.2747 -1.2149 -0.6629
   90MOL   C13323451   1.854   7.824   6.542 -0.0240 -0.2133 -0.0295
   90MOL   C13423452   1.940   0.098   6.593  0.6468 -0.7788  0.0756
   90MOL   C13523453   2.000   7.832   6.512  0.3862  0.3590 -0.1060
   90MOL   C13623454   1.612   0.050   6.514  0.0185 -0.9026 -0.0130
   90MOL   H13723455   1.774   0.079   6.360  0.1149  0.7502  1.3580
   90MOL   H13823456   1.821   7.761   6.624 -0.7281 -0.7208 -0.6932
   90MOL   H13923457   1.947   0.190   6.535  0.8948 -0.1710  1.0615
   90MOL   H14023458   1.971   0.115   6.696 -0.7104  0.0968  0.3470
   90MOL   H14123459   2.018   0.003   6.405  1.2471  2.3187  0.1980
   90MOL   H14223460   2.064   7.764   6.568  0.9654  0.9456 -0.0410
   90MOL   H14323461   1.517   0.054   6.462 -0.2103  1.9587  0.4982
   90MOL   H14423462   1.589   7.816   6.591 -0.5116 -0.6587  0.0633
   90MOL   C14523463   1.612   0.196   6.565 -0.7799 -0.4518  0.0293
   90MOL   C14623464   1.569   0.295   6.455  0.4659 -0.9315  0.2554
   90MOL   C14723465   1.624   0.439   6.449  0.3452 -0.2711 -0.0591
   90MOL   C14823466   1.660   0.341   6.344  0.2866  0.0991 -0.4302
   90MOL   C14923467   1.521   0.220   6.691 -0.0439 -0.0092  0.6022
   90MOL   H15023468   1.715   0.228   6.580 -0.9233 -0.8385  1.9457
   90MOL   H15123469   1.468   0.279   6.416  1.0883  0.4408 -2.0032
   90MOL   H15223470   1.553   0.519   6.433  0.7699 -0.4779 -3.3811
   90MOL   H15323471   1.711   0.456   6.512  0.2116 -0.7768  0.2686
   90MOL   H15423472   1.766   0.316   6.341  0.1186 -0.5272 -1.5653
   90MOL   H15523473   1.608   0.352   6.249  3.5938  1.0650 -2.1960
   90MOL   H15623474   1.492   0.324   6.703  0.0369 -0.0439  1.1162
   90MOL   H15723475   1.430   0.168   6.661 -1.1907  1.4047  1.5600
   90MOL   C15823476   1.578   0.161   6.826 -0.4682  0.0480  0.9723
   90MOL   C15923477   1.463   0.121   6.932 -0.3616 -0.6789 -0.3380
   90MOL   C16023478   1.373   7.834   6.921 -0.0119  0.2010 -0.1969
   90MOL   C16123479   1.488   0.002   7.024 -0.1504  0.2629 -0.0579
   90MOL   C16223480   1.698   0.227   6.895 -0.1094 -0.1382  0.4940
   90MOL   H16323481   1.619   0.063   6.798 -1.4607  0.6423 -2.9621
   90MOL   H16423482   1.424   0.206   6.988 -1.3154  0.1776 -2.2800
   90MOL   H16523483   1.391   7.772   6.833 -1.7283 -0.9207  0.2016
   90MOL   H16623484   1.270   0.012   6.954  0.6298  3.5183  0.1595
   90MOL   H16723485   1.467   0.001   7.131 -0.2333 -0.5573 -0.0775
   90MOL   H16823486   1.568   7.771   7.000 -0.1675  0.0322  0.5474
   90MOL   H16923487   1.783   0.231   6.827 -0.0527 -0.2093  0.5601
   90MOL   H17023488   1.727   0.162   6.977  0.3422  1.3417  1.5281
   90MOL   C17123489   1.673   0.371   6.948  1.1123  0.0473 -0.7446
   90MOL   C17223490   1.778   0.386   7.062  0.0011 -0.1016  0.3193
   90MOL   C17323491   1.760   0.478   7.175  0.7491  0.0664 -0.4720
   90MOL   C17423492   1.753   0.325   7.196 -0.0735 -0.0507 -0.5367
   90MOL   C17523493   1.698   0.480   6.845 -0.0987  0.3376  0.1162
   90MOL   H17623494   1.574   0.383   6.992  1.0705  1.8985 -1.3152
   90MOL   H17723495   1.883   0.395   7.034  0.7285 -1.3403  2.5373
   90MOL   H17823496   1.851   0.525   7.211  1.2336  0.0063 -1.5892
   90MOL   H17923497   1.663   0.527   7.178  0.5417 -0.2872 -1.3033
   90MOL   H18023498   1.654   0.281   7.202 -0.7461  1.2346 -1.7796
   90MOL   H18123499   1.834   0.269   7.242  0.2915  0.4168 -0.6058
   90MOL   H18223500   1.659   0.450   6.747  1.7746  0.7441 -0.7686
   90MOL   H18323501   1.806   0.471   6.835 -0.1356 -0.4686  0.4493
   90MOL   C18423502   1.667   0.622   6.878  0.0158 -0.9147  0.1647
   90MOL   C18523503   1.513   0.645   6.877  0.0806 -0.7784 -0.1956
   90MOL   C18623504   1.455   0.766   6.928  0.4315 -0.2147  0.5069
   90MOL   C18723505   1.426   0.637   6.999 -0.8300 -0.5219 -0.2153
   90MOL   C18823506   1.749   0.707   6.775  0.2947  0.1428 -0.3419
   90MOL   H18923507   1.712   0.645   6.974  1.9633 -1.0389 -0.6858
   90MOL   H19023508   1.462   0.602   6.791  0.5434  0.9362 -1.3554
   90MOL   H19123509   1.386   0.823   6.865 -1.8634 -0.6626  2.5752
   90MOL   H19223510   1.507   0.823   7.004  0.2337 -0.1716  0.6108
   90MOL   H19323511   1.335   0.581   6.979 -1.5430  0.8058 -0.8103
   90MOL   H19423512   1.452   0.636   7.105 -1.0225  0.4682 -0.1520
   90MOL   H19523513   1.700   0.676   6.683 -1.2754  0.3919  0.3856
   90MOL   H19623514   1.856   0.685   6.768  0.1906 -0.6029  0.3877
   90MOL   C19723515   1.751   0.858   6.792 -0.1205  0.4798 -0.3088
   90MOL   C19823516   1.813   0.933   6.676 -0.5385 -0.1983  0.3498
   90MOL   C19923517   1.786   1.077   6.652 -0.2194 -0.7518 -0.1066
   90MOL   C20023518   1.745   0.969   6.551  0.2550  0.5201  0.9507
   90MOL   C20123519   1.815   0.900   6.929  0.0350 -0.3190  0.3234
   90MOL   H20223520   1.645   0.880   6.788 -0.4907 -1.0645  0.4320
   90MOL   H20323521   1.920   0.911   6.671 -0.1480  1.5075  0.8384
   90MOL   H20423522   1.704   1.127   6.703  1.9715  0.2250  2.5900
   90MOL   H20523523   1.867   1.144   6.625 -1.4092  0.9320  0.4111
   90MOL   H20623524   1.641   0.943   6.534  0.8491 -1.5170  0.3880
   90MOL   H20723525   1.805   0.962   6.461 -0.8599  3.2679 -0.0894
   90MOL   H20823526   1.789   1.006   6.935 -1.6413 -0.5967 -1.8563
   90MOL   H20923527   1.753   0.861   7.010 -1.8380  0.8455 -0.5208
   90MOL   C21023528   1.956   0.879   6.981 -0.4062  0.1297  0.6285
   90MOL   C21123529   1.978   0.981   7.093  0.7405 -0.1079 -0.2839
   90MOL   C21223530   2.116   1.040   7.118 -0.4270 -0.1964  0.2466
   90MOL   C21323531   2.006   1.129   7.060  0.5563 -0.1405 -0.7224
   90MOL   C21423532   1.993   0.739   7.030 -0.3186  0.0398 -0.0284
   90MOL   H21523533   2.026   0.903   6.901 -0.4333 -1.6480  0.0497
   90MOL   H21623534   1.923   0.961   7.184  0.8991 -0.0419 -0.1732
   90MOL   H21723535   2.151   1.073   7.215  0.2767 -0.5241  0.1105
   90MOL   H21823536   2.189   0.992   7.052  1.1984  1.0726  1.0837
   90MOL   H21923537   1.968   1.202   7.130 -0.1335 -0.7576 -0.4412
   90MOL   H22023538   2.023   1.156   6.956  0.9456 -0.2357 -0.6853
   90MOL   H22123539   1.961   0.729   7.134 -2.4409 -1.1468 -0.7750
   90MOL   H22223540   1.930   0.661   6.988  1.0494 -0.1419 -1.8336
   90MOL   C22323541   2.147   0.702   7.017  0.4807  0.3642 -0.1915
   90MOL   C22423542   2.175   0.690   6.866 -0.5195  0.5575 -0.9052
   90MOL   C22523543   2.248   0.799   6.794 -0.2733 -0.6703 -0.3540
   90MOL   C22623544   2.322   0.672   6.817 -0.3012  0.6977 -0.6748
   90MOL   C22723545   2.175   0.570   7.095  0.0679  0.4775 -0.3562
   90MOL   H22823546   2.209   0.786   7.050 -1.4144  0.7087  2.6951
   90MOL   H22923547   2.108   0.619   6.818  1.3399 -1.5511 -0.4745
   90MOL   H23023548   2.277   0.886   6.853 -0.8394 -1.1121  0.5949
   90MOL   H23123549   2.199   0.813   6.698 -2.9220  0.1269  1.0528
   90MOL   H23223550   2.343   0.611   6.729 -0.3424  1.1399 -0.9971
   90MOL   H23323551   2.393   0.687   6.897 -0.7818  2.8205 -0.6101
   90MOL   H23423552   2.103   0.496   7.060 -1.9354  1.5135  1.4457
   90MOL   H23523553   2.282   0.555   7.080  0.0986  0.3686 -0.0253
   90MOL   C23623554   2.151   0.562   7.246 -0.3672  0.1929 -0.0659
   90MOL   C23723555   2.241   0.651   7.323 -0.0108  0.0094  0.0972
   90MOL   C23823556   2.215   0.800   7.342 -0.1398 -0.2711 -0.9456
   90MOL   C23923557   2.205   0.707   7.458 -0.2165 -0.1877 -0.0561
   90MOL   C24023558   2.171   0.419   7.289 -0.1202 -0.8899  0.2714
   90MOL   H24123559   2.050   0.599   7.266  0.1449  1.5278  0.1234
   90MOL   H24223560   2.346   0.621   7.319  0.0802  0.3741 -0.2728
   90MOL   H24323561   2.301   0.867   7.342  1.0641 -1.7240  1.9812
   90MOL   H24423562   2.116   0.838   7.320  0.0662 -1.1759 -3.5714
   90MOL   H24523563   2.104   0.685   7.491 -0.3262 -0.7304 -0.7529
   90MOL   H24623564   2.279   0.730   7.535 -0.6395 -3.1511  1.2746
   90MOL   H24723565   2.081   0.373   7.249  0.9744 -0.3527 -2.9690
   90MOL   H24823566   2.259   0.382   7.237 -1.0843 -2.0924 -0.5322
   90MOL   C24923567   2.166   0.375   7.440 -0.3649 -0.3897  0.8759
   90MOL   C25023568   2.230   0.235   7.468  0.2155  0.9931  0.4461
   90MOL   C25123569   2.383   0.234   7.459  0.1155 -0.0186 -0.7774
   90MOL   C25223570   2.308   0.200   7.591  0.0812 -0.8543  0.2686
   90MOL   C25323571   2.039   0.399   7.516  0.8049 -0.2049 -0.4656
   90MOL   H25423572   2.234   0.448   7.484 -1.8132  1.9482 -0.6431
   90MOL   H25523573   2.180   0.152   7.419  0.3993  0.9248  0.3742
   90MOL   H25623574   2.438   0.150   7.419  0.7470  0.0707 -0.1213
   90MOL   H25723575   2.441   0.325   7.477 -1.4213  0.8800 -0.2493
   90MOL   H25823576   2.329   0.103   7.634  1.0669 -0.8502 -0.1975
   90MOL   H25923577   2.303   0.271   7.674  0.1747 -0.9072  0.3180
   90MOL   H26023578   2.054   0.372   7.620 -1.8670 -0.6203 -0.1549
   90MOL   H26123579   1.967   0.322   7.488  0.6901  0.4712 -2.0824
   90MOL   H26223580   2.001   0.501   7.508 -0.4021 -0.4888  1.4016
   91MOL     C123581   5.813   4.962   2.261 -0.1610  0.3013  0.4550
   91MOL     C223582   5.696   5.032   2.193  0.0709 -0.2811 -0.2876
   91MOL     C323583   5.687   5.179   2.153  0.5926  0.8050 -0.1769
   91MOL     C423584   5.606   5.120   2.268  0.0691 -0.0950 -0.2324
   91MOL     C523585   5.930   4.918   2.166  0.2553  0.4932 -0.2798
   91MOL     H623586   5.849   5.031   2.337  0.3545 -0.9304  1.3385
   91MOL     H723587   5.659   4.970   2.111 -0.6557 -1.8841  1.2347
   91MOL     H823588   5.757   5.252   2.194  0.7063  0.8011 -0.3608
   91MOL     H923589   5.633   5.210   2.063  0.3363 -2.5786 -1.2614
   91MOL    H1023590   5.502   5.097   2.244 -0.0363  1.0879 -0.9280
   91MOL    H1123591   5.634   5.156   2.367 -0.0649  0.0996 -0.2654
   91MOL    H1223592   5.973   5.015   2.140  0.2033  0.4687 -0.4545
   91MOL    H1323593   5.896   4.864   2.078  1.2224 -1.2382  0.3697
   91MOL    H1423594   5.773   4.874   2.312  0.9009 -0.8515 -0.6645
   91MOL    C1523595   6.046   4.829   2.231 -0.3448  0.4406  0.5804
   91MOL    C1623596   6.009   4.681   2.232  0.0906 -0.2953 -0.2228
   91MOL    C1723597   5.920   4.614   2.336 -0.1610 -0.4057 -0.0078
   91MOL    C1823598   6.069   4.588   2.345 -0.1432 -0.0596 -0.0696
   91MOL    C1923599   6.169   4.857   2.139 -0.0841  0.6730  0.3715
   91MOL    H2023600   6.069   4.870   2.329  2.0854 -0.9896  0.6528
   91MOL    H2123601   6.005   4.639   2.132 -0.8534  1.5908 -1.0097
   91MOL    H2223602   5.849   4.542   2.296  0.2781 -1.0890  0.4331
   91MOL    H2323603   5.888   4.683   2.413 -1.4672  0.6119 -1.4359
   91MOL    H2423604   6.119   4.629   2.432  0.5642  2.4973 -1.6472
   91MOL    H2523605   6.102   4.496   2.297  0.6380  0.0304  0.2838
   91MOL    H2623606   6.187   4.963   2.120  0.7266  0.3385 -0.7938
   91MOL    H2723607   6.148   4.821   2.038  3.8235  0.8433 -0.5666
   91MOL    C2823608   6.310   4.793   2.179  0.0724 -0.5301 -0.1522
   91MOL    C2923609   6.417   4.906   2.179  0.0330  0.0594 -0.1136
   91MOL    C3023610   6.424   4.979   2.312 -0.4532 -0.1395  0.1491
   91MOL    C3123611   6.540   4.898   2.254  0.0982  0.1861 -0.1715
   91MOL    C3223612   6.352   4.674   2.083 -0.3645  0.2260 -0.3202
   91MOL    H3323613   6.298   4.757   2.281  0.4895  1.0537  0.4720
   91MOL    H3423614   6.437   4.960   2.087 -0.1325  1.6760  0.7848
   91MOL    H3523615   6.367   4.941   2.397  0.1718 -2.3293 -0.3847
   91MOL    H3623616   6.442   5.087   2.315 -0.6503  0.0196 -3.0300
   91MOL    H3723617   6.558   4.815   2.322  0.9503 -0.9569 -1.7490
   91MOL    H3823618   6.626   4.963   2.239  0.9498 -0.8184  0.2808
   91MOL    H3923619   6.398   4.729   2.000 -1.9211  1.6764 -0.2508
   91MOL    H4023620   6.261   4.623   2.052  0.4909 -1.1147 -0.6747
   91MOL    C4123621   6.452   4.577   2.144  0.1610  0.0900 -0.2964
   91MOL    C4223622   6.509   4.494   2.027  0.1751  0.1547  0.5456
   91MOL    C4323623   6.661   4.462   2.021  0.5143 -0.2423  0.1149
   91MOL    C4423624   6.600   4.553   1.919 -0.2567  0.2641  0.7614
   91MOL    C4523625   6.387   4.487   2.252 -1.3139 -0.6557  0.1680
   91MOL    H4623626   6.536   4.631   2.188  0.5714 -1.1638  0.4928
   91MOL    H4723627   6.442   4.415   1.993 -1.0362  0.7580  1.5158
   91MOL    H4823628   6.712   4.497   2.111  0.0861 -0.1453  0.3168
   91MOL    H4923629   6.699   4.367   1.984  2.7010  1.3796 -1.9918
   91MOL    H5023630   6.583   4.523   1.816  0.6664  1.7155  0.1653
   91MOL    H5123631   6.620   4.660   1.929 -0.1196  0.4243 -0.9875
   91MOL    H5223632   6.315   4.418   2.210  0.6983 -1.9525 -1.2389
   91MOL    H5323633   6.338   4.552   2.325 -1.5143  1.5453 -1.8713
   91MOL    C5423634   6.481   4.400   2.333 -0.2502 -0.0433 -0.5225
   91MOL    C5523635   6.535   4.477   2.449 -0.3859 -0.5450 -0.3050
   91MOL    C5623636   6.667   4.563   2.440 -0.2804 -0.0846 -0.2472
   91MOL    C5723637   6.660   4.424   2.510  0.4698 -0.6246  0.6482
   91MOL    C5823638   6.414   4.265   2.381  0.1895  0.1135  0.1591
   91MOL    H5923639   6.568   4.367   2.277 -0.0587 -0.3167 -0.0684
   91MOL    H6023640   6.464   4.520   2.520 -0.2087 -1.2179  0.2776
   91MOL    H6123641   6.731   4.574   2.353 -0.2902  0.1488 -0.2244
   91MOL    H6223642   6.680   4.651   2.503  2.4622 -0.1391 -0.6792
   91MOL    H6323643   6.660   4.424   2.619 -0.6917 -0.3556  0.6555
   91MOL    H6423644   6.720   4.344   2.466  1.0604  0.7076 -1.0186
   91MOL    H6523645   6.489   4.231   2.452 -0.4730 -2.3501 -0.2678
   91MOL    H6623646   6.335   4.284   2.453  1.2969  1.9262  0.9313
   91MOL    C6723647   6.396   4.155   2.280 -0.0491  0.3559 -0.0436
   91MOL    C6823648   6.504   4.045   2.290  0.7435  0.2136 -0.2297
   91MOL    C6923649   6.565   3.976   2.165 -0.7695 -0.4983  0.3532
   91MOL    C7023650   6.644   4.071   2.253  0.2302 -0.1360 -0.1452
   91MOL    C7123651   6.256   4.095   2.286  0.6966 -0.1998 -0.0014
   91MOL    H7223652   6.416   4.199   2.182  0.1195  0.5804  0.0902
   91MOL    H7323653   6.485   4.000   2.387 -2.2374 -0.1833 -0.9623
   91MOL    H7423654   6.560   3.867   2.157  1.5317 -0.4953 -1.8284
   91MOL    H7523655   6.527   4.022   2.074 -0.3863 -1.6316 -0.3868
   91MOL    H7623656   6.670   4.168   2.211 -2.0196  1.1200  1.2574
   91MOL    H7723657   6.720   4.020   2.311 -0.0390  1.8681  2.0514
   91MOL    H7823658   6.184   4.176   2.295  0.2982 -0.2950 -2.1290
   91MOL    H7923659   6.246   4.033   2.375 -1.4431 -1.5946 -1.1655
   91MOL    C8023660   6.208   4.004   2.176 -0.5096  0.4956  0.5163
   91MOL    C8123661   6.165   4.078   2.050  0.0195  0.1963 -0.6887
   91MOL    C8223662   6.180   4.028   1.916 -0.9314  0.0197  0.7376
   91MOL    C8323663   6.255   4.159   1.957 -0.1393 -0.5329  0.5115
   91MOL    C8423664   6.095   3.912   2.225 -1.0295  1.1132 -0.0232
   91MOL    H8523665   6.286   3.934   2.149  1.4038  2.8664 -0.2391
   91MOL    H8623666   6.068   4.125   2.067  0.0676 -0.2361  0.8426
   91MOL    H8723667   6.109   4.053   1.837 -1.5571  0.5567  1.4570
   91MOL    H8823668   6.247   3.943   1.906 -1.8079 -0.7847  1.6372
   91MOL    H8923669   6.361   4.158   1.977 -0.1389  2.2105  0.8797
   91MOL    H9023670   6.215   4.252   1.916 -1.1103 -0.6918  1.0885
   91MOL    H9123671   6.026   3.971   2.285 -1.6825  1.6651 -1.2862
   91MOL    H9223672   6.041   3.889   2.133 -3.3955  0.4870  1.4915
   91MOL    C9323673   6.146   3.778   2.282 -0.3992 -0.8101 -0.1384
   91MOL    C9423674   6.043   3.727   2.386 -0.9774  0.5331  0.0613
   91MOL    C9523675   6.063   3.677   2.531 -0.0432 -0.5590 -0.2171
   91MOL    C9623676   6.005   3.812   2.499 -0.4587 -0.0269 -0.4189
   91MOL    C9723677   6.183   3.678   2.170  0.1821 -0.0623 -0.6465
   91MOL    H9823678   6.236   3.799   2.341 -0.4606 -1.1039  0.0630
   91MOL    H9923679   5.967   3.669   2.335 -0.0144 -1.3952  0.7627
   91MOL   H10023680   5.992   3.612   2.581 -0.3441 -0.2682 -0.2644
   91MOL   H10123681   6.163   3.679   2.573 -1.5494  0.3122  3.6103
   91MOL   H10223682   5.900   3.825   2.526 -0.3622 -1.1053  0.5350
   91MOL   H10323683   6.069   3.897   2.519 -2.1867  1.1434  0.2553
   91MOL   H10423684   6.259   3.731   2.113  1.0004 -1.7852 -1.2074
   91MOL   H10523685   6.105   3.674   2.094 -0.1257  3.1468 -0.5456
   91MOL   C10623686   6.242   3.545   2.200  0.3877 -0.2258  0.1691
   91MOL   C10723687   6.365   3.558   2.296  0.5908  0.8183  0.3175
   91MOL   C10823688   6.486   3.476   2.265 -0.6579  0.8972  0.3439
   91MOL   C10923689   6.495   3.624   2.252 -0.4959  0.0526  0.3096
   91MOL   C11023690   6.145   3.429   2.249 -0.1884 -0.3484 -0.2651
   91MOL   H11123691   6.286   3.509   2.106 -0.5210  1.2879 -0.8530
   91MOL   H11223692   6.330   3.592   2.393  0.4877  0.2810  0.4700
   91MOL   H11323693   6.536   3.425   2.348  1.4980  3.5996  0.7540
   91MOL   H11423694   6.492   3.429   2.167  2.2946  1.2738  0.3116
   91MOL   H11523695   6.491   3.669   2.153  0.7575  1.0732  0.7055
   91MOL   H11623696   6.565   3.669   2.322 -0.0764  0.4717 -0.3697
   91MOL   H11723697   6.201   3.338   2.272  0.0595  0.1375  1.1095
   91MOL   H11823698   6.103   3.466   2.342 -1.5423 -0.5537 -0.7784
   91MOL   C11923699   6.036   3.390   2.150  0.5162 -0.3372  0.0087
   91MOL   C12023700   6.090   3.323   2.030 -0.1349 -0.9152  0.0435
   91MOL   C12123701   6.149   3.410   1.917 -0.1495  0.0868  0.0461
   91MOL   C12223702   6.027   3.333   1.896  0.2546 -0.1338  0.7525
   91MOL   C12323703   5.929   3.301   2.212  0.2408  0.5260 -0.2701
   91MOL   H12423704   5.996   3.487   2.117  3.8140  1.8020  2.0052
   91MOL   H12523705   6.144   3.231   2.052  2.2977  0.6124  0.5890
   91MOL   H12623706   6.244   3.377   1.877 -0.3277 -1.1128  0.5823
   91MOL   H12723707   6.142   3.518   1.928  1.9850  0.0839  1.6205
   91MOL   H12823708   5.935   3.393   1.893 -0.2870 -0.9915 -0.3974
   91MOL   H12923709   6.018   3.234   1.851 -2.1054 -0.6354  2.2189
   91MOL   H13023710   5.869   3.278   2.124 -1.8918  1.3629  0.9230
   91MOL   H13123711   5.981   3.209   2.242 -1.9605 -0.7989 -0.4280
   91MOL   C13223712   5.828   3.357   2.312 -0.2175  0.4191 -0.5491
   91MOL   C13323713   5.832   3.286   2.449 -0.6345  0.3331  0.4801
   91MOL   C13423714   5.800   3.358   2.578  0.5548  0.2198 -0.6219
   91MOL   C13523715   5.943   3.315   2.553  0.4506 -0.0039  0.0393
   91MOL   C13623716   5.680   3.356   2.265  0.3900 -0.5790  0.0268
   91MOL   H13723717   5.843   3.463   2.329  1.6360  0.3810 -1.8218
   91MOL   H13823718   5.802   3.181   2.443 -0.6689  0.4490 -1.8712
   91MOL   H13923719   5.796   3.467   2.580  1.6754  0.2568  0.4739
   91MOL   H14023720   5.736   3.300   2.644  2.3507 -0.8756  0.2106
   91MOL   H14123721   6.010   3.401   2.541  0.9775 -0.3149  0.6652
   91MOL   H14223722   5.987   3.222   2.587 -0.9835 -0.4454  0.7226
   91MOL   H14323723   5.661   3.260   2.219  2.0477 -0.9013 -0.0286
   91MOL   H14423724   5.624   3.367   2.358  1.1592  3.2112  0.1306
   91MOL   C14523725   5.639   3.470   2.175 -0.2265  0.0211 -0.3849
   91MOL   C14623726   5.519   3.425   2.096 -0.0106 -0.0108  0.1478
   91MOL   C14723727   5.502   3.480   1.958 -0.6234  0.1845  0.5985
   91MOL   C14823728   5.533   3.334   1.973 -0.0155  0.0235  0.7522
   91MOL   C14923729   5.600   3.590   2.256 -0.1735 -0.0811  0.7332
   91MOL   H15023730   5.722   3.484   2.106  0.0102  0.1087 -0.0851
   91MOL   H15123731   5.422   3.407   2.143 -1.1397 -0.8303 -2.3873
   91MOL   H15223732   5.399   3.511   1.942 -0.6893 -0.0819  0.5040
   91MOL   H15323733   5.579   3.545   1.916 -0.6125  0.0536  0.4201
   91MOL   H15423734   5.635   3.310   1.942  0.5611  2.4693  0.6480
   91MOL   H15523735   5.453   3.266   1.948  1.6477 -1.7949  0.2698
   91MOL   H15623736   5.506   3.562   2.304 -1.8550  0.6778 -2.0051
   91MOL   H15723737   5.679   3.602   2.330  0.3621  1.5026 -0.0721
   91MOL   C15823738   5.579   3.730   2.196 -0.4928  0.0049 -0.5302
   91MOL   C15923739   5.721   3.790   2.161 -0.2819 -0.8649  0.6576
   91MOL   C16023740   5.788   3.763   2.028  0.4838 -0.5843  0.0646
   91MOL   C16123741   5.737   3.898   2.058  0.1775 -0.9261 -0.1335
   91MOL   C16223742   5.512   3.827   2.296 -0.0689 -0.5967  0.7090
   91MOL   H16323743   5.514   3.724   2.108 -1.7869 -0.3753  0.4368
   91MOL   H16423744   5.793   3.787   2.242  1.3955  0.1390 -0.7647
   91MOL   H16523745   5.734   3.707   1.951 -1.8631  1.9680 -0.2498
   91MOL   H16623746   5.895   3.748   2.033  0.5225 -0.2573  0.2202
   91MOL   H16723747   5.815   3.974   2.064  1.0714 -1.8904  0.4621
   91MOL   H16823748   5.650   3.914   1.994  1.0823 -0.9582 -1.4052
   91MOL   H16923749   5.512   3.924   2.246 -0.2824 -1.0100 -0.1079
   91MOL   H17023750   5.580   3.854   2.377 -1.2685  0.6050  1.3303
   91MOL   C17123751   5.359   3.808   2.351  0.7312  0.2049  0.8825
   91MOL   C17223752   5.294   3.950   2.363  0.1414 -0.1896 -0.7029
   91MOL   C17323753   5.185   3.980   2.460  0.4619 -0.2510 -0.1654
   91MOL   C17423754   5.318   4.034   2.490  0.1385  0.2348 -0.4149
   91MOL   C17523755   5.276   3.724   2.258 -0.1042 -0.6773  0.7405
   91MOL   H17623756   5.367   3.763   2.450 -0.8106  2.0489  1.8722
   91MOL   H17723757   5.296   4.009   2.271 -0.8580 -0.3085 -0.8038
   91MOL   H17823758   5.114   4.051   2.420  0.5076  0.7492  1.4564
   91MOL   H17923759   5.148   3.902   2.527 -1.2268  0.4121 -0.2998
   91MOL   H18023760   5.367   3.995   2.579 -3.8645 -2.4800  0.7348
   91MOL   H18123761   5.326   4.141   2.474  1.8036  0.2152  0.2476
   91MOL   H18223762   5.338   3.646   2.216  0.9425  0.1036  0.8231
   91MOL   H18323763   5.252   3.783   2.170  0.4774  1.6310  2.0721
   91MOL   C18423764   5.151   3.664   2.323 -0.8525 -0.2247  0.7290
   91MOL   C18523765   5.189   3.562   2.427 -0.0462  0.5983 -0.1401
   91MOL   C18623766   5.082   3.509   2.519 -0.7200 -0.0500  0.0559
   91MOL   C18723767   5.205   3.592   2.574 -0.4519 -0.1178 -0.2289
   91MOL   C18823768   5.070   3.602   2.211 -0.2663  0.2712  0.7021
   91MOL   H18923769   5.083   3.735   2.371 -2.0218 -1.1944  0.5183
   91MOL   H19023770   5.259   3.487   2.389 -1.1160 -1.8281  2.5334
   91MOL   H19123771   5.084   3.400   2.525  1.0731  0.1119  4.1336
   91MOL   H19223772   4.986   3.556   2.500 -0.6663 -0.1342 -0.4389
   91MOL   H19323773   5.280   3.540   2.634  0.6262 -1.5156 -2.7431
   91MOL   H19423774   5.191   3.695   2.609  2.5043  0.2402  0.0543
   91MOL   H19523775   4.982   3.552   2.252  0.0066 -1.6780 -0.9974
   91MOL   H19623776   5.108   3.504   2.182 -0.2714  0.8139 -1.1910
   91MOL   C19723777   5.023   3.683   2.093 -0.3441  0.0030 -0.0831
   91MOL   C19823778   4.917   3.788   2.144 -0.0434 -0.6155  0.1368
   91MOL   C19923779   4.876   3.911   2.067  1.0111 -0.1258 -0.4465
   91MOL   C20023780   4.971   3.917   2.187  0.0723  0.3634  0.0017
   91MOL   C20123781   4.956   3.585   1.999 -0.7924 -0.4388 -0.2521
   91MOL   H20223782   5.105   3.729   2.039  0.6893 -2.3705 -0.6259
   91MOL   H20323783   4.834   3.745   2.200  0.4451 -1.1578  0.4461
   91MOL   H20423784   4.916   3.930   1.968  0.6730 -2.4126 -1.0552
   91MOL   H20523785   4.772   3.943   2.075  0.3854 -1.9987 -0.6992
   91MOL   H20623786   5.074   3.942   2.165 -0.3443  2.3519  0.1800
   91MOL   H20723787   4.930   3.971   2.273  3.5868  2.7719  0.3064
   91MOL   H20823788   4.901   3.524   2.071  1.1245 -0.4085  1.2792
   91MOL   H20923789   4.879   3.624   1.933  1.5024  1.4021 -1.9349
   91MOL   C21023790   5.062   3.503   1.917 -0.2498  0.0365 -0.0641
   91MOL   C21123791   5.020   3.356   1.923  0.1160 -0.5890 -0.9989
   91MOL   C21223792   5.137   3.262   1.922 -0.7867  0.4842 -0.2288
   91MOL   C21323793   5.051   3.264   2.042  0.2614 -0.6855 -0.1142
   91MOL   C21423794   5.086   3.549   1.770  0.4019  0.0990  0.2261
   91MOL   H21523795   5.158   3.509   1.968  0.2293 -1.8309 -0.7166
   91MOL   H21623796   4.926   3.337   1.873 -1.2194  0.3570  1.0869
   91MOL   H21723797   5.142   3.174   1.859  0.2940 -0.6977  1.4978
   91MOL   H21823798   5.233   3.312   1.937 -0.2743 -0.5868  0.0661
   91MOL   H21923799   4.965   3.198   2.052 -0.0807 -0.1575  0.4271
   91MOL   H22023800   5.094   3.300   2.135 -1.1120 -2.9410  1.4351
   91MOL   H22123801   5.151   3.479   1.718 -1.3996 -0.2776 -1.5742
   91MOL   H22223802   4.992   3.527   1.719 -0.6615  3.2479  0.6981
   91MOL   C22323803   5.127   3.692   1.728  0.1729 -0.2569  0.0579
   91MOL   C22423804   5.114   3.703   1.578  0.9276  0.9132 -0.1146
   91MOL   C22523805   4.985   3.702   1.496  0.0152 -0.1575 -0.1176
   91MOL   C22623806   5.055   3.832   1.529 -0.1382 -0.5320  0.0323
   91MOL   C22723807   5.272   3.724   1.781 -0.5588  0.3153 -0.1065
   91MOL   H22823808   5.053   3.762   1.766  0.3827  0.7128 -1.2700
   91MOL   H22923809   5.199   3.664   1.522 -0.1575 -0.7379 -0.6411
   91MOL   H23023810   4.895   3.669   1.548 -0.4960  1.5959  0.1350
   91MOL   H23123811   4.983   3.671   1.391 -0.3820  1.6575 -0.6730
   91MOL   H23223812   5.112   3.880   1.450  1.4122  0.9697  2.0168
   91MOL   H23323813   5.015   3.900   1.603  2.4695 -0.2497  1.2339
   91MOL   H23423814   5.292   3.698   1.885 -0.8610 -0.7308 -0.3050
   91MOL   H23523815   5.341   3.650   1.739 -1.1463 -1.7298  2.3940
   91MOL   C23623816   5.317   3.864   1.752 -0.0792 -0.9671 -0.4595
   91MOL   C23723817   5.464   3.854   1.784 -1.1230  0.3162 -0.6567
   91MOL   C23823818   5.561   3.815   1.670 -0.1508 -1.2458  0.1738
   91MOL   C23923819   5.552   3.955   1.722  0.1309 -0.5914  0.5877
   91MOL   C24023820   5.240   3.963   1.850 -0.4322 -0.1760 -0.0153
   91MOL   H24123821   5.307   3.879   1.645 -1.4414 -1.2745 -0.3776
   91MOL   H24223822   5.473   3.830   1.890 -2.0483  0.8818 -0.4425
   91MOL   H24323823   5.641   3.750   1.706  0.6000 -0.2647  0.3007
   91MOL   H24423824   5.510   3.785   1.579  0.6439 -0.1830 -0.6376
   91MOL   H24523825   5.505   4.031   1.660 -1.1005  0.2042  2.4457
   91MOL   H24623826   5.613   4.000   1.799  2.0535  0.4127 -1.4455
   91MOL   H24723827   5.135   3.934   1.851 -0.1321 -1.3569 -0.8495
   91MOL   H24823828   5.288   3.936   1.943  2.0321  0.6225 -1.0028
   91MOL   C24923829   5.264   4.115   1.817  0.2692  0.9665 -0.4351
   91MOL   C25023830   5.194   4.195   1.925  0.1912 -0.7211  0.7320
   91MOL   C25123831   5.272   4.213   2.055  0.0500 -0.6270 -0.5316
   91MOL   C25223832   5.234   4.330   1.971  0.6253 -1.0178 -0.1836
   91MOL   C25323833   5.200   4.154   1.683  0.4105  0.0843  1.1054
   91MOL   H25423834   5.369   4.140   1.804  0.1447  2.6984  1.6089
   91MOL   H25523835   5.088   4.178   1.943 -0.3022  2.2388  0.7790
   91MOL   H25623836   5.217   4.209   2.149 -0.1178 -3.9434 -0.7047
   91MOL   H25723837   5.379   4.197   2.060  0.1137  0.1698  0.7876
   91MOL   H25823838   5.152   4.394   2.005 -0.6303 -1.3950 -2.4022
   91MOL   H25923839   5.307   4.386   1.913  1.1104 -0.2852  1.0990
   91MOL   H26023840   5.252   4.107   1.599  0.4482  2.7701 -0.4396
   91MOL   H26123841   5.211   4.263   1.680 -0.6317  0.1692 -1.7437
   91MOL   H26223842   5.095   4.123   1.690  0.9193 -1.2149  3.2578
   92MOL     C123843   6.667   3.114   2.791 -0.6273 -0.4743  0.4402
   92MOL     C223844   6.537   3.127   2.703 -0.2059 -0.2071  0.1289
   92MOL     C323845   6.403   3.059   2.746  0.5561 -0.4553 -0.1688
   92MOL     C423846   6.480   3.003   2.631 -0.1271 -0.0197  0.0387
   92MOL     C523847   6.786   3.082   2.696 -0.2044 -0.0752 -0.6375
   92MOL     H623848   6.687   3.207   2.845  1.0577 -0.3579 -0.3460
   92MOL     H723849   6.521   3.219   2.647 -0.4083 -0.4596 -0.2289
   92MOL     H823850   6.406   3.007   2.842  1.9191 -0.7123 -0.3394
   92MOL     H923851   6.325   3.135   2.744 -1.1621 -2.2286 -1.8240
   92MOL    H1023852   6.427   3.011   2.536  0.4560 -0.6987 -0.3389
   92MOL    H1123853   6.538   2.913   2.648 -0.6677 -0.1758  1.1543
   92MOL    H1223854   6.756   3.095   2.592  1.2630  1.7972 -0.8464
   92MOL    H1323855   6.795   2.974   2.697 -1.1144 -0.1536  0.4075
   92MOL    H1423856   6.654   3.039   2.869  0.1877 -1.0683  0.0087
   92MOL    C1523857   6.915   3.138   2.731  0.2983  0.3112  0.6217
   92MOL    C1623858   7.031   3.041   2.700  0.4041 -0.1011  0.0128
   92MOL    C1723859   7.070   2.924   2.793  0.2559 -0.5938 -0.7876
   92MOL    C1823860   7.155   3.054   2.768 -0.5029  0.1726 -0.2808
   92MOL    C1923861   6.944   3.277   2.665 -0.5834 -0.5026  0.0423
   92MOL    H2023862   6.921   3.149   2.839 -1.2054  0.0750  0.7397
   92MOL    H2123863   7.050   3.021   2.595 -1.9058  3.0140 -1.0774
   92MOL    H2223864   7.030   2.918   2.894 -0.1406 -1.1914 -0.9797
   92MOL    H2323865   7.119   2.833   2.759  0.8509  0.1285 -1.8954
   92MOL    H2423866   7.150   3.114   2.859  0.4470 -0.0795 -0.0557
   92MOL    H2523867   7.249   3.046   2.713 -0.6806 -0.4331 -0.4970
   92MOL    H2623868   6.957   3.259   2.558 -1.3412 -0.9300  0.0191
   92MOL    H2723869   7.048   3.300   2.686 -1.7688  4.3745  1.1743
   92MOL    C2823870   6.842   3.398   2.675 -0.1640  0.2912 -1.0717
   92MOL    C2923871   6.879   3.495   2.563 -0.3273  0.0608 -0.0636
   92MOL    C3023872   6.848   3.463   2.417  0.1906  0.2085 -0.0939
   92MOL    C3123873   6.775   3.587   2.494  0.9121  0.5107 -0.0488
   92MOL    C3223874   6.847   3.456   2.824 -0.1448  0.7771 -0.4998
   92MOL    H3323875   6.743   3.360   2.646 -1.1634  2.0141  0.0184
   92MOL    H3423876   6.977   3.541   2.575 -0.1870 -0.3963  0.5652
   92MOL    H3523877   6.790   3.373   2.400  0.5900  0.0592 -0.6660
   92MOL    H3623878   6.936   3.478   2.355  0.8322 -0.9641  0.5120
   92MOL    H3723879   6.679   3.578   2.546  0.0552  0.9246 -1.5262
   92MOL    H3823880   6.803   3.691   2.480 -0.7089  0.7230 -1.9477
   92MOL    H3923881   6.951   3.466   2.855 -0.3303  1.4618 -0.0706
   92MOL    H4023882   6.819   3.386   2.903  0.9405 -0.7056 -1.4156
   92MOL    C4123883   6.770   3.588   2.855 -0.0001  0.5101 -0.0285
   92MOL    C4223884   6.840   3.685   2.953  0.2235 -0.3238 -0.4314
   92MOL    C4323885   6.820   3.839   2.944 -0.2632 -0.3304 -0.0285
   92MOL    C4423886   6.952   3.771   2.904 -0.5544 -0.2507  0.5869
   92MOL    C4523887   6.630   3.553   2.922  0.1287 -0.1692 -0.5862
   92MOL    H4623888   6.756   3.649   2.766  0.3478  1.2161  0.3987
   92MOL    H4723889   6.858   3.640   3.050 -1.4466 -0.3895 -0.1509
   92MOL    H4823890   6.771   3.889   2.861 -1.8952 -0.3483  0.8983
   92MOL    H4923891   6.830   3.895   3.036 -0.9210 -1.3647  0.6842
   92MOL    H5023892   7.041   3.771   2.967 -0.8849  1.6919  1.1155
   92MOL    H5123893   6.963   3.768   2.796 -1.1166  1.1361  0.4756
   92MOL    H5223894   6.643   3.511   3.022 -0.5656 -2.0292 -1.2468
   92MOL    H5323895   6.582   3.470   2.870  0.5494 -0.8788  0.1495
   92MOL    C5423896   6.533   3.665   2.931 -0.5276 -0.3031 -0.3276
   92MOL    C5523897   6.461   3.677   2.797 -0.5143  0.1234  0.0816
   92MOL    C5623898   6.516   3.777   2.699 -0.2768  1.1926 -0.7163
   92MOL    C5723899   6.375   3.800   2.765 -0.2171  0.0668  0.2728
   92MOL    C5823900   6.429   3.635   3.045 -0.2989  0.0368  0.5367
   92MOL    H5923901   6.587   3.755   2.959 -1.3210 -0.6059  2.3499
   92MOL    H6023902   6.423   3.584   2.757  2.1096 -1.5430  1.3337
   92MOL    H6123903   6.596   3.834   2.747 -0.9482 -0.6618  2.8129
   92MOL    H6223904   6.529   3.743   2.597 -2.9042 -0.5168 -0.5180
   92MOL    H6323905   6.296   3.784   2.692  1.0732 -0.6762 -0.9848
   92MOL    H6423906   6.351   3.855   2.855 -4.1274 -1.2045  0.0768
   92MOL    H6523907   6.327   3.662   3.016  0.2372 -0.7347 -2.1044
   92MOL    H6623908   6.430   3.526   3.056  1.4008 -0.1245 -0.9424
   92MOL    C6723909   6.477   3.704   3.179 -0.4384  0.0724 -0.8165
   92MOL    C6823910   6.388   3.813   3.213  0.0673  0.2415 -0.0561
   92MOL    C6923911   6.432   3.949   3.274 -0.7029  0.3278 -0.1312
   92MOL    C7023912   6.387   3.934   3.132 -0.2770  0.3564 -0.3307
   92MOL    C7123913   6.482   3.600   3.298 -0.6217 -0.1800  0.4105
   92MOL    H7223914   6.577   3.745   3.167 -0.4123 -0.2041 -1.5825
   92MOL    H7323915   6.289   3.769   3.221  1.5490 -2.9219  1.8215
   92MOL    H7423916   6.360   3.996   3.341 -1.7300 -0.9218 -0.3208
   92MOL    H7523917   6.536   3.959   3.304 -0.1805 -0.8776 -1.4630
   92MOL    H7623918   6.466   3.935   3.056  0.5365 -0.4391  0.4867
   92MOL    H7723919   6.301   3.997   3.112 -1.1107 -0.8374 -0.5953
   92MOL    H7823920   6.549   3.519   3.267  1.8600  1.7142  0.6555
   92MOL    H7923921   6.378   3.569   3.311 -0.1805 -3.1361 -2.5172
   92MOL    C8023922   6.538   3.657   3.427  0.3603  0.1948  0.8659
   92MOL    C8123923   6.687   3.661   3.418  0.3254 -0.0229  0.1644
   92MOL    C8223924   6.780   3.746   3.498  1.5488 -0.1541  0.3182
   92MOL    C8323925   6.761   3.777   3.354  0.3449 -0.8138  0.1325
   92MOL    C8423926   6.497   3.581   3.555  0.2415 -0.2165  0.7122
   92MOL    H8523927   6.510   3.759   3.453  1.3254  1.3837 -2.5542
   92MOL    H8623928   6.727   3.566   3.383 -0.9381 -0.9051  1.0912
   92MOL    H8723929   6.873   3.700   3.531  1.2064 -0.2612  1.1619
   92MOL    H8823930   6.729   3.816   3.564  0.3199 -0.8468  0.1290
   92MOL    H8923931   6.713   3.872   3.333  2.0139 -0.0429 -0.2667
   92MOL    H9023932   6.835   3.750   3.279  0.6158  2.6119 -0.9015
   92MOL    H9123933   6.558   3.490   3.556  0.3397 -0.1729 -0.4175
   92MOL    H9223934   6.523   3.641   3.642 -1.6793  1.1547  0.3559
   92MOL    C9323935   6.349   3.554   3.582 -0.3809 -0.1372 -0.3180
   92MOL    C9423936   6.335   3.483   3.716  0.5357  0.7940 -0.8401
   92MOL    C9523937   6.248   3.369   3.735  0.2964 -0.5406  0.3139
   92MOL    C9623938   6.397   3.342   3.726 -0.2136  0.2403 -0.0259
   92MOL    C9723939   6.260   3.680   3.573 -0.4400 -0.5410 -0.7380
   92MOL    H9823940   6.324   3.478   3.507 -0.9617  0.1452 -0.4154
   92MOL    H9923941   6.331   3.548   3.804  1.3145 -0.1657 -0.0838
   92MOL   H10023942   6.194   3.347   3.827 -0.3981 -0.4940 -0.0777
   92MOL   H10123943   6.200   3.321   3.649 -0.0401  0.5271 -0.1057
   92MOL   H10223944   6.457   3.333   3.816  0.8414  0.3074 -0.7144
   92MOL   H10323945   6.452   3.315   3.637 -0.6695  1.0176 -0.5443
   92MOL   H10423946   6.288   3.749   3.494  0.2761  1.1589  0.9538
   92MOL   H10523947   6.286   3.745   3.656  2.4602  0.6800 -2.5587
   92MOL   C10623948   6.107   3.656   3.568 -0.0601  0.4370 -0.9927
   92MOL   C10723949   6.031   3.782   3.603 -0.2761 -0.8875 -0.2131
   92MOL   C10823950   5.888   3.784   3.636 -0.7879 -0.0949 -0.0874
   92MOL   C10923951   5.988   3.819   3.745 -0.1359 -0.5642 -0.2601
   92MOL   C11023952   6.065   3.596   3.431  0.1384  0.3295 -0.2343
   92MOL   H11123953   6.064   3.590   3.643  0.6822 -0.9968 -1.7950
   92MOL   H11223954   6.070   3.859   3.536 -0.3524 -0.1955  0.5306
   92MOL   H11323955   5.847   3.868   3.580 -0.5348 -0.0034 -0.1363
   92MOL   H11423956   5.827   3.694   3.642  0.1240 -0.7592 -0.6295
   92MOL   H11523957   6.011   3.741   3.817 -1.3685  1.1208  2.0467
   92MOL   H11623958   5.996   3.922   3.780  1.5966 -1.5191  2.2547
   92MOL   H11723959   5.999   3.670   3.387 -2.1050 -1.1294  0.5943
   92MOL   H11823960   6.152   3.571   3.369  1.0259  2.1285  0.2566
   92MOL   C11923961   5.985   3.462   3.427 -0.1749 -0.0374  0.2320
   92MOL   C12023962   5.857   3.456   3.518 -0.2719  0.1380  0.5107
   92MOL   C12123963   5.859   3.403   3.660 -0.8642  0.2556  0.0884
   92MOL   C12223964   5.794   3.321   3.552  0.4514 -0.5320 -0.3773
   92MOL   C12323965   5.947   3.426   3.283 -0.0895  0.1548 -0.4620
   92MOL   H12423966   6.049   3.382   3.465  0.9014 -0.1463 -1.7401
   92MOL   H12523967   5.791   3.539   3.491  1.5786  1.2102 -0.8282
   92MOL   H12623968   5.796   3.459   3.728 -2.5208 -1.9441  0.4551
   92MOL   H12723969   5.959   3.383   3.696 -0.8142 -2.1938 -1.2584
   92MOL   H12823970   5.845   3.241   3.498 -0.0446 -0.5091 -0.8858
   92MOL   H12923971   5.686   3.311   3.545  0.5172 -0.4168 -1.8203
   92MOL   H13023972   5.890   3.333   3.276  0.8541 -0.4366 -0.3937
   92MOL   H13123973   5.877   3.504   3.253  1.2963  1.5420 -0.1141
   92MOL   C13223974   6.062   3.412   3.175 -0.5219 -0.0912 -0.6157
   92MOL   C13323975   6.017   3.365   3.042  0.1116  0.2930 -0.9505
   92MOL   C13423976   6.083   3.417   2.911  0.0914  1.0861  0.0697
   92MOL   C13523977   5.935   3.445   2.944 -0.6036 -0.7737  0.0718
   92MOL   C13623978   6.192   3.337   3.225 -0.6077  0.0573  0.2619
   92MOL   H13723979   6.100   3.512   3.153 -2.1269  0.9230  1.0710
   92MOL   H13823980   6.013   3.256   3.034 -0.9620  0.3837 -1.8574
   92MOL   H13923981   6.162   3.490   2.923 -0.0795  1.3102 -0.1732
   92MOL   H14023982   6.096   3.352   2.825  2.1390 -0.3293  1.4016
   92MOL   H14123983   5.914   3.550   2.967 -1.1169 -1.1591  1.4165
   92MOL   H14223984   5.863   3.403   2.875  0.3759 -0.6520 -1.0571
   92MOL   H14323985   6.268   3.395   3.172 -2.1474  3.0057  1.1764
   92MOL   H14423986   6.216   3.364   3.328 -0.0497  0.8417 -0.0647
   92MOL   C14523987   6.221   3.178   3.205 -0.2509  0.2066  0.1959
   92MOL   C14623988   6.362   3.155   3.257 -0.4483  0.1512 -0.5661
   92MOL   C14723989   6.453   3.069   3.181 -0.7116  0.5001 -0.9481
   92MOL   C14823990   6.484   3.216   3.181  0.1723 -0.5463  0.1128
   92MOL   C14923991   6.122   3.088   3.278  0.3906 -0.0708  0.1405
   92MOL   H15023992   6.221   3.172   3.096 -0.5483  1.5305  0.1159
   92MOL   H15123993   6.372   3.165   3.365 -1.0222 -1.6933 -0.3328
   92MOL   H15223994   6.514   2.999   3.237  0.4560  0.2449 -2.5354
   92MOL   H15323995   6.432   3.044   3.077  0.6497  0.8349 -1.3049
   92MOL   H15423996   6.468   3.263   3.084 -0.9863 -0.2693  0.4365
   92MOL   H15523997   6.581   3.235   3.226  0.8984 -0.1671 -1.5716
   92MOL   H15623998   6.125   3.115   3.383  2.1843  2.0995 -0.4136
   92MOL   H15723999   6.025   3.131   3.256  0.2549 -0.4692 -0.0439
   92MOL   C15824000   6.131   2.941   3.242 -0.1843 -0.1807 -0.1563
   92MOL   C15924001   6.084   2.914   3.094 -0.6929 -0.8096  0.2846
   92MOL   C16024002   6.176   2.897   2.972  0.2573  0.2484 -0.1936
   92MOL   C16124003   6.108   2.775   3.040 -0.0769  0.7752  0.6940
   92MOL   C16224004   6.034   2.868   3.348 -0.1395 -0.0641  0.3353
   92MOL   H16324005   6.231   2.900   3.263 -0.9452 -1.3419  1.3212
   92MOL   H16424006   5.997   2.969   3.058  0.8869  3.2754  2.3485
   92MOL   H16524007   6.281   2.895   2.998 -0.5384 -1.6163  3.2777
   92MOL   H16624008   6.150   2.928   2.871  0.3563 -0.5680 -0.4746
   92MOL   H16724009   6.041   2.721   2.975  2.4420 -0.1311 -1.2183
   92MOL   H16824010   6.185   2.717   3.091 -0.9244 -1.8392 -0.9151
   92MOL   H16924011   6.019   2.767   3.309  2.0400 -0.6553  0.9515
   92MOL   H17024012   5.943   2.926   3.333 -1.2796 -1.4397  1.8699
   92MOL   C17124013   6.075   2.861   3.493 -1.1358  0.6504  0.2612
   92MOL   C17224014   5.963   2.818   3.585  0.4858 -0.0614 -0.0885
   92MOL   C17324015   5.965   2.855   3.737 -0.5648  0.1182  0.3965
   92MOL   C17424016   5.860   2.909   3.647 -0.5804  0.2812  0.3094
   92MOL   C17524017   6.203   2.789   3.536  0.3245  0.0612 -0.2525
   92MOL   H17624018   6.103   2.958   3.533 -0.2071  0.8896 -0.9589
   92MOL   H17724019   5.926   2.716   3.579  2.9206 -1.1034  1.5693
   92MOL   H17824020   5.929   2.792   3.819  0.0478  2.0705  2.2056
   92MOL   H17924021   6.036   2.927   3.776  0.2989 -0.1683 -0.6257
   92MOL   H18024022   5.870   3.008   3.604  2.6590  0.1321  0.5469
   92MOL   H18124023   5.764   2.859   3.653 -0.3965  0.2070  3.1374
   92MOL   H18224024   6.220   2.817   3.640  0.8215 -0.3145 -0.2305
   92MOL   H18324025   6.277   2.842   3.476  2.0793 -1.1302  0.8288
   92MOL   C18424026   6.205   2.634   3.514  0.3024  0.0941 -0.4197
   92MOL   C18524027   6.279   2.576   3.631  0.0083  0.3115 -0.4754
   92MOL   C18624028   6.247   2.442   3.694  0.6317 -0.1428  0.1312
   92MOL   C18724029   6.212   2.578   3.769 -0.3624 -0.4541  0.3453
   92MOL   C18824030   6.270   2.610   3.378 -0.4533  0.7191  0.8478
   92MOL   H18924031   6.105   2.593   3.502  0.2817  0.1830 -0.5651
   92MOL   H19024032   6.382   2.610   3.628  0.8498 -2.1417 -0.5480
   92MOL   H19124033   6.326   2.387   3.745  2.2061 -1.6781 -3.7718
   92MOL   H19224034   6.155   2.391   3.666  1.2536 -1.1011 -0.1931
   92MOL   H19324035   6.272   2.610   3.854  1.1646 -0.5406 -0.6870
   92MOL   H19424036   6.107   2.607   3.769 -0.5812 -1.1491 -1.7058
   92MOL   H19524037   6.366   2.660   3.367 -0.0036 -0.8082 -2.6118
   92MOL   H19624038   6.200   2.662   3.313 -0.1570 -0.8068 -0.7159
   92MOL   C19724039   6.285   2.457   3.347 -0.8687 -0.5816  0.2813
   92MOL   C19824040   6.355   2.439   3.215 -0.1665  0.2564 -0.4645
   92MOL   C19924041   6.438   2.325   3.177 -0.2923  0.0062 -0.1544
   92MOL   C20024042   6.504   2.454   3.217 -0.9292  0.7243 -0.3480
   92MOL   C20124043   6.141   2.384   3.334 -0.0254 -0.3557 -0.4620
   92MOL   H20224044   6.351   2.410   3.419 -0.2252 -0.8999 -0.5023
   92MOL   H20324045   6.313   2.490   3.129  2.5230 -1.3465 -2.8172
   92MOL   H20424046   6.438   2.241   3.247  0.0562  0.4775  0.4132
   92MOL   H20524047   6.443   2.298   3.072  3.1076  0.3258 -0.1355
   92MOL   H20624048   6.574   2.437   3.299 -1.0959 -0.9501 -0.5211
   92MOL   H20724049   6.537   2.523   3.140  0.7379  1.4034  0.9353
   92MOL   H20824050   6.098   2.376   3.434 -0.5357  1.1937 -0.5365
   92MOL   H20924051   6.073   2.456   3.289  0.7810 -0.3212 -1.6539
   92MOL   C21024052   6.131   2.235   3.285 -1.1196 -0.3886 -0.1741
   92MOL   C21124053   6.137   2.146   3.411  0.6600  0.0781  0.2154
   92MOL   C21224054   6.203   2.014   3.397  0.1983 -0.4794 -0.0496
   92MOL   C21324055   6.253   2.116   3.493  0.5393  0.7030 -0.8455
   92MOL   C21424056   6.006   2.199   3.203  0.4518 -0.2398 -0.0622
   92MOL   H21524057   6.221   2.214   3.228 -0.0416  0.2061  1.2767
   92MOL   H21624058   6.046   2.140   3.469  1.2425  1.0730  1.2626
   92MOL   H21724059   6.152   1.934   3.450 -0.6645 -1.4637 -2.2854
   92MOL   H21824060   6.235   1.994   3.295  2.1943 -0.9261  0.6351
   92MOL   H21924061   6.231   2.104   3.599 -0.9167  0.9362 -1.1196
   92MOL   H22024062   6.342   2.175   3.471  1.2184 -0.3007 -0.8480
   92MOL   H22124063   5.995   2.091   3.211 -1.6836 -0.1078 -0.7937
   92MOL   H22224064   5.916   2.214   3.262  1.5638 -0.8870  1.8228
   92MOL   C22324065   5.994   2.232   3.051 -0.2448 -0.1163 -0.1421
   92MOL   C22424066   6.123   2.202   2.973 -1.2220 -0.3701 -0.5523
   92MOL   C22524067   6.156   2.064   2.929 -0.0341  0.6509 -0.0805
   92MOL   C22624068   6.132   2.167   2.821 -0.7787 -0.3805  1.0252
   92MOL   C22724069   5.941   2.374   3.026  0.6168  0.3375 -0.2964
   92MOL   H22824070   5.915   2.168   3.013 -0.4554  0.8526 -1.3564
   92MOL   H22924071   6.208   2.259   3.010 -1.6542 -0.7010  0.9740
   92MOL   H23024072   6.074   1.992   2.933 -0.3838  1.0741  0.4950
   92MOL   H23124073   6.256   2.021   2.934  0.6296  2.1987  0.1018
   92MOL   H23224074   6.214   2.213   2.767 -1.3694  0.5393  0.8986
   92MOL   H23324075   6.037   2.168   2.769 -1.6672 -2.4620  2.5163
   92MOL   H23424076   6.002   2.450   3.074 -3.5293  1.2058  3.9579
   92MOL   H23524077   5.955   2.401   2.921  2.0478 -4.9833 -1.6492
   92MOL   C23624078   5.795   2.393   3.079  0.4221  0.0813 -0.1730
   92MOL   C23724079   5.683   2.329   2.991  1.0011  1.1439  0.1067
   92MOL   C23824080   5.646   2.183   3.009 -0.6486 -1.0217 -0.2022
   92MOL   C23924081   5.548   2.292   3.047  0.2132 -0.7062 -0.5067
   92MOL   C24024082   5.767   2.546   3.089  0.3039 -0.9933  0.2970
   92MOL   H24124083   5.801   2.351   3.179 -0.7595 -0.1039 -0.1738
   92MOL   H24224084   5.680   2.369   2.890 -1.1738  0.1507 -0.2370
   92MOL   H24324085   5.620   2.118   2.926 -0.1006  0.5985 -1.6824
   92MOL   H24424086   5.703   2.128   3.084  0.2285 -0.4154 -0.4037
   92MOL   H24524087   5.531   2.328   3.148  1.0777 -0.8574 -0.3011
   92MOL   H24624088   5.461   2.316   2.987 -0.2995  0.8211  0.8275
   92MOL   H24724089   5.859   2.605   3.076 -0.1128  0.1340  2.2409
   92MOL   H24824090   5.707   2.583   3.006 -0.1698  2.8262  2.2297
   92MOL   C24924091   5.710   2.598   3.223  0.2126 -0.0567 -0.7594
   92MOL   C25024092   5.697   2.747   3.219 -0.2679  0.0708  0.3067
   92MOL   C25124093   5.582   2.817   3.158 -0.4832 -0.6781  0.1663
   92MOL   C25224094   5.596   2.823   3.304 -0.2065 -0.2982  0.2059
   92MOL   C25324095   5.795   2.563   3.345 -0.5517  1.1018 -0.4933
   92MOL   H25424096   5.616   2.545   3.241  0.4930  0.2838  1.8848
   92MOL   H25524097   5.788   2.799   3.191 -0.4318  0.2474  0.1032
   92MOL   H25624098   5.612   2.904   3.100  0.5166 -1.3204 -0.3064
   92MOL   H25724099   5.509   2.750   3.114  0.5517 -0.7992 -1.4064
   92MOL   H25824100   5.632   2.918   3.344  0.8372 -0.3171 -0.6821
   92MOL   H25924101   5.531   2.772   3.375  0.9384 -2.0065  0.0613
   92MOL   H26024102   5.756   2.616   3.432 -0.2927 -0.4976  0.6319
   92MOL   H26124103   5.903   2.572   3.348 -0.4027 -0.4212 -0.8413
   92MOL   H26224104   5.767   2.463   3.379  0.6316  1.0448  0.3206
   93MOL     C124105   0.105   1.174   3.491 -0.1906  0.5327  0.1212
   93MOL     C224106   0.018   1.101   3.398 -0.0330 -0.2088  0.2732
   93MOL     C324107   7.835   0.956   3.413  0.7092  0.9329 -0.0985
   93MOL     C424108   0.073   0.998   3.301  0.4039 -0.0097  0.3352
   93MOL     C524109   0.029   1.252   3.603 -0.2309 -0.4119  0.6153
   93MOL     H624110   0.182   1.117   3.544 -0.9353  0.7865  1.5036
   93MOL     H724111   7.777   1.160   3.355  0.1213 -0.1491  0.0664
   93MOL     H824112   0.044   0.916   3.502 -1.5901  0.7365  1.0978
   93MOL     H924113   7.739   0.909   3.392  0.1140  1.4166  1.5169
   93MOL    H1024114   0.028   1.005   3.202  1.5679 -0.6559 -0.2407
   93MOL    H1124115   0.177   0.967   3.298 -0.2244 -2.3006  1.1306
   93MOL    H1224116   7.816   1.187   3.673  1.6177  0.8449  3.2719
   93MOL    H1324117   7.792   1.302   3.544  1.0460  0.0007 -0.7161
   93MOL    H1424118   0.156   1.249   3.431  0.1343  1.3716  1.4338
   93MOL    C1524119   0.120   1.355   3.678 -0.1337  0.4620 -0.4277
   93MOL    C1624120   0.155   1.467   3.580 -0.0930 -0.6110  0.1239
   93MOL    C1724121   0.275   1.471   3.491 -0.1365 -0.1214  0.0449
   93MOL    C1824122   0.269   1.555   3.618 -1.2017 -0.2337  0.3071
   93MOL    C1924123   0.059   1.414   3.804  0.4114  0.1039  0.1938
   93MOL    H2024124   0.213   1.305   3.707  1.3118  3.0972 -0.3610
   93MOL    H2124125   0.065   1.511   3.538  0.3409  1.6187  1.4557
   93MOL    H2224126   0.284   1.535   3.404  2.2860  1.8733  1.7112
   93MOL    H2324127   0.349   1.391   3.495  0.3243  0.3899  1.8735
   93MOL    H2424128   0.338   1.525   3.696  1.3732  1.8438 -1.0768
   93MOL    H2524129   0.259   1.663   3.609 -0.7775 -0.0586  1.8363
   93MOL    H2624130   7.797   1.436   3.771  0.3644 -0.4089  0.0048
   93MOL    H2724131   0.106   1.508   3.834 -2.3698  1.8148 -0.6489
   93MOL    C2824132   0.067   1.326   3.934 -0.1273  0.4114 -0.2331
   93MOL    C2924133   7.786   1.354   4.025  0.6291  0.3302  0.7573
   93MOL    C3024134   7.676   1.261   4.031  0.9813  0.4072  0.3255
   93MOL    C3124135   7.758   1.276   4.152 -0.2068  0.3544  0.1767
   93MOL    C3224136   0.200   1.344   4.010 -1.1654  0.1016  0.5702
   93MOL    H3324137   0.060   1.221   3.908  2.0338  0.0199  0.7323
   93MOL    H3424138   7.774   1.462   4.024  1.8763  0.4732  0.9759
   93MOL    H3524139   7.679   1.157   3.999 -1.5803  0.1052  0.8847
   93MOL    H3624140   7.573   1.291   4.050  1.0429  1.1827 -0.5307
   93MOL    H3724141   7.839   1.212   4.186 -3.2264 -2.4839  2.3021
   93MOL    H3824142   7.704   1.319   4.236  2.6207  1.2083  1.6060
   93MOL    H3924143   0.191   1.347   4.119 -0.7660  1.1453  0.5779
   93MOL    H4024144   0.244   1.444   4.004 -1.0153  0.0030  0.0722
   93MOL    C4124145   0.314   1.237   3.974  0.0755 -0.2701 -0.5406
   93MOL    C4224146   0.254   1.095   3.986 -0.5787 -0.0537  0.1148
   93MOL    C4324147   0.340   0.977   3.946  0.4303  0.6574  0.1576
   93MOL    C4424148   0.220   1.015   3.865 -0.6747 -0.5421  0.3046
   93MOL    C4524149   0.437   1.269   4.056 -0.3201 -0.6217 -0.0423
   93MOL    H4624150   0.343   1.252   3.870 -0.0378  2.0445 -0.2721
   93MOL    H4724151   0.202   1.077   4.080  1.6262 -0.0247  1.3814
   93MOL    H4824152   0.443   1.010   3.938  0.6242  0.3376  1.2586
   93MOL    H4924153   0.342   0.888   4.009 -1.4447 -0.5357 -1.4030
   93MOL    H5024154   0.137   0.946   3.858 -1.5341  0.5829 -0.8569
   93MOL    H5124155   0.234   1.057   3.766 -1.2240  0.8668  0.8088
   93MOL    H5224156   0.506   1.185   4.072 -0.2766 -1.2736 -3.2937
   93MOL    H5324157   0.388   1.276   4.153  0.1960 -0.2007  0.1898
   93MOL    C5424158   0.523   1.390   4.021  0.3305 -0.2885  0.0488
   93MOL    C5524159   0.573   1.463   4.141  0.8089  0.0411 -0.6171
   93MOL    C5624160   0.478   1.507   4.250 -0.3031  0.3285 -0.2886
   93MOL    C5724161   0.548   1.607   4.173  0.4224  0.0390  0.1599
   93MOL    C5824162   0.627   1.356   3.916  0.0378 -0.4869 -0.0237
   93MOL    H5924163   0.460   1.463   3.970  3.1946  0.4245 -2.6216
   93MOL    H6024164   0.665   1.412   4.170  1.2807 -0.7802 -3.4429
   93MOL    H6124165   0.370   1.509   4.237 -0.4939 -1.1012  0.9633
   93MOL    H6224166   0.523   1.485   4.346 -0.3129  0.7956 -0.1772
   93MOL    H6324167   0.626   1.663   4.226 -1.8670  3.9512 -0.4213
   93MOL    H6424168   0.490   1.670   4.106  0.8657  0.9104  0.5797
   93MOL    H6524169   0.677   1.270   3.960  1.4591 -0.6797 -1.9566
   93MOL    H6624170   0.580   1.327   3.821 -0.4004  2.8357 -0.8859
   93MOL    C6724171   0.728   1.472   3.884  0.1128 -0.2281  0.7934
   93MOL    C6824172   0.851   1.400   3.833  0.7283  0.1965 -0.0589
   93MOL    C6924173   0.995   1.452   3.851  0.3503  0.0472  0.2436
   93MOL    C7024174   0.943   1.333   3.937  0.7121  0.6866 -0.2133
   93MOL    C7124175   0.682   1.572   3.778 -0.1639 -0.4147 -0.2585
   93MOL    H7224176   0.756   1.531   3.970 -0.4552  1.1466  0.0411
   93MOL    H7324177   0.838   1.342   3.741 -2.3974  2.1716 -0.9509
   93MOL    H7424178   1.070   1.419   3.779 -0.4330 -2.2382  0.4616
   93MOL    H7524179   1.008   1.551   3.894  0.3404 -0.4195  1.3406
   93MOL    H7624180   0.925   1.356   4.042 -0.7412 -0.1331 -0.2708
   93MOL    H7724181   0.982   1.236   3.907 -0.1028 -0.1703  1.4367
   93MOL    H7824182   0.574   1.579   3.790  0.0270 -0.0020  1.3047
   93MOL    H7924183   0.702   1.530   3.679  1.7903  2.5290 -1.2013
   93MOL    C8024184   0.738   1.719   3.784  0.4001  0.3651 -0.1810
   93MOL    C8124185   0.688   1.797   3.903  0.6391  0.6614 -0.0710
   93MOL    C8224186   0.739   1.934   3.947 -0.0630 -0.0911  0.6691
   93MOL    C8324187   0.790   1.810   4.015 -0.0191 -0.2661 -0.6525
   93MOL    C8424188   0.712   1.792   3.650  0.7465  0.4522  0.1281
   93MOL    H8524189   0.847   1.722   3.791  0.3230 -1.0990  1.8257
   93MOL    H8624190   0.584   1.781   3.930 -0.0971  1.2966 -2.4946
   93MOL    H8724191   0.656   1.991   3.987 -0.3452  0.4839 -0.7369
   93MOL    H8824192   0.805   1.989   3.880 -1.4823  3.0446  1.7655
   93MOL    H8924193   0.896   1.791   4.003 -0.0824  0.6260 -2.7699
   93MOL    H9024194   0.754   1.789   4.116  1.9226  1.8815  0.5205
   93MOL    H9124195   0.609   1.777   3.617  1.3440 -1.1271 -1.0857
   93MOL    H9224196   0.716   1.899   3.670  0.8119  0.5651 -0.4757
   93MOL    C9324197   0.809   1.767   3.534 -0.1639  0.4316  0.5239
   93MOL    C9424198   0.759   1.861   3.425 -0.1051  0.1954 -0.2896
   93MOL    C9524199   0.755   1.827   3.285 -0.5317  0.1220 -0.2017
   93MOL    C9624200   0.623   1.847   3.360  0.7403  0.1202  0.2466
   93MOL    C9724201   0.961   1.803   3.561  0.9867 -0.2189 -0.0345
   93MOL    H9824202   0.807   1.665   3.498  1.6540  0.3632  0.5838
   93MOL    H9924203   0.784   1.964   3.452 -0.0939 -0.1524  1.0895
   93MOL   H10024204   0.788   1.898   3.209 -0.4004 -0.9829 -1.1943
   93MOL   H10124205   0.781   1.726   3.255 -0.1164 -0.3586  1.7467
   93MOL   H10224206   0.580   1.942   3.328 -0.3650 -0.3793  0.2084
   93MOL   H10324207   0.559   1.770   3.404  1.4759 -0.9998 -0.6220
   93MOL   H10424208   0.999   1.731   3.633 -1.0218 -2.1379 -0.8387
   93MOL   H10524209   0.975   1.900   3.609 -1.4974 -0.7548  1.8530
   93MOL   C10624210   1.058   1.799   3.439  0.1684 -0.1775 -0.4900
   93MOL   C10724211   1.196   1.840   3.482 -0.1275 -0.2332 -0.4502
   93MOL   C10824212   1.284   1.905   3.371 -0.6291 -0.0776  0.2173
   93MOL   C10924213   1.230   1.985   3.498 -0.1017 -0.6763  0.3727
   93MOL   C11024214   1.071   1.655   3.376 -0.1345  0.1338  0.2572
   93MOL   H11124215   1.013   1.864   3.364 -0.1600 -1.1771 -1.1730
   93MOL   H11224216   1.241   1.767   3.549  1.3535 -0.5617 -1.7786
   93MOL   H11324217   1.384   1.862   3.364 -0.5400 -0.0735  1.3789
   93MOL   H11424218   1.251   1.943   3.274  2.0261  0.8700 -0.3839
   93MOL   H11524219   1.147   2.054   3.484 -0.3026 -0.7662  1.0720
   93MOL   H11624220   1.298   2.010   3.579 -1.7013  1.6402  1.0553
   93MOL   H11724221   1.103   1.595   3.462 -2.3260 -0.2016  0.8659
   93MOL   H11824222   0.968   1.623   3.358 -0.4978  2.0165 -1.1667
   93MOL   C11924223   1.157   1.632   3.250 -0.3015 -0.0936  0.2180
   93MOL   C12024224   1.170   1.487   3.224  0.2980  0.0698  0.1219
   93MOL   C12124225   1.249   1.397   3.310 -0.1815  0.2073  0.1929
   93MOL   C12224226   1.309   1.452   3.184  0.1000 -0.0248  0.1126
   93MOL   C12324227   1.088   1.715   3.137  0.0839  0.2643  0.1776
   93MOL   H12424228   1.256   1.672   3.271  0.1433 -0.0549 -1.8517
   93MOL   H12524229   1.088   1.439   3.171 -1.1780  1.6251  0.9301
   93MOL   H12624230   1.225   1.292   3.320 -0.1264  0.2234  0.5027
   93MOL   H12724231   1.284   1.446   3.401 -1.1266  1.9720 -0.3562
   93MOL   H12824232   1.377   1.538   3.182 -1.0251  0.8524 -1.2308
   93MOL   H12924233   1.312   1.387   3.097 -0.4259 -0.4277  0.3964
   93MOL   H13024234   0.981   1.695   3.137  0.3136 -1.1594 -1.7676
   93MOL   H13124235   1.098   1.821   3.159  0.6657  0.2241  0.1095
   93MOL   C13224236   1.144   1.699   2.994  0.4088 -0.5832  0.5415
   93MOL   C13324237   1.236   1.809   2.953 -0.2853 -0.4793 -0.1206
   93MOL   C13424238   1.362   1.792   2.872  0.7359  0.4113 -0.4980
   93MOL   C13524239   1.372   1.816   3.021 -0.1750  0.0609 -0.0837
   93MOL   C13624240   1.031   1.682   2.900 -0.2507  0.5570  0.1575
   93MOL   H13724241   1.185   1.598   2.992 -1.2782 -1.2514 -1.4516
   93MOL   H13824242   1.204   1.913   2.958 -1.7121 -0.9777  2.1810
   93MOL   H13924243   1.389   1.690   2.845 -0.2405  0.0597 -0.1727
   93MOL   H14024244   1.385   1.868   2.797 -0.6062  1.7929  0.4535
   93MOL   H14124245   1.402   1.728   3.077  1.6317  0.6361 -0.1396
   93MOL   H14224246   1.418   1.911   3.046  1.1093 -0.3931 -0.6826
   93MOL   H14324247   0.962   1.608   2.942 -0.9962  1.6731  0.9404
   93MOL   H14424248   0.974   1.775   2.895 -1.3829 -0.1310 -0.1003
   93MOL   C14524249   1.069   1.634   2.754 -0.6217 -0.6581  0.2326
   93MOL   C14624250   1.065   1.480   2.760 -0.4294 -0.4290 -0.1448
   93MOL   C14724251   1.137   1.403   2.654 -0.3414 -1.2679  0.6886
   93MOL   C14824252   1.183   1.395   2.805  0.2985 -0.1992  0.1251
   93MOL   C14924253   0.968   1.681   2.648 -0.3964  0.3854  0.6100
   93MOL   H15024254   1.171   1.666   2.732  0.0245 -2.8717 -0.0955
   93MOL   H15124255   0.972   1.427   2.783 -1.4576  0.8952 -1.1834
   93MOL   H15224256   1.083   1.321   2.608 -1.1939  0.2786 -1.1654
   93MOL   H15324257   1.194   1.463   2.583 -0.7544 -0.7835  0.7644
   93MOL   H15424258   1.260   1.452   2.856 -0.2628  0.1454  0.6085
   93MOL   H15524259   1.163   1.307   2.865 -0.1913  0.3841  0.8356
   93MOL   H15624260   0.969   1.622   2.556  0.1743 -0.4994  1.1806
   93MOL   H15724261   0.870   1.650   2.686 -1.9853 -0.9310 -4.1064
   93MOL   C15824262   0.968   1.835   2.616  0.2694 -0.1508  0.4475
   93MOL   C15924263   0.827   1.883   2.594  0.1489 -0.0012  0.2039
   93MOL   C16024264   0.755   1.940   2.707 -0.4869 -0.6587  1.0277
   93MOL   C16124265   0.790   2.030   2.597 -0.2882  0.5564 -0.1227
   93MOL   C16224266   1.061   1.873   2.498 -0.4265  0.1111  0.1774
   93MOL   H16324267   1.016   1.890   2.696  1.1662 -1.1047  0.5834
   93MOL   H16424268   0.780   1.830   2.511 -0.3261 -0.2634  0.6360
   93MOL   H16524269   0.815   1.960   2.796  1.5158 -0.0934 -0.4134
   93MOL   H16624270   0.649   1.917   2.717 -1.0969 -0.3259 -3.5915
   93MOL   H16724271   0.708   2.058   2.530  0.7215  0.7108 -1.3177
   93MOL   H16824272   0.875   2.097   2.598  0.9370 -0.9143 -1.6813
   93MOL   H16924273   1.166   1.854   2.522 -0.0506  0.0418 -1.4312
   93MOL   H17024274   1.059   1.981   2.504  0.2114  0.1212  0.2867
   93MOL   C17124275   1.027   1.806   2.358  0.5452  0.0081  0.3392
   93MOL   C17224276   1.020   1.911   2.253 -0.3264 -0.0861 -0.0729
   93MOL   C17324277   0.916   1.919   2.142 -0.4330 -0.0185  0.4219
   93MOL   C17424278   0.919   2.024   2.247 -0.5399 -0.5426  0.6914
   93MOL   C17524279   1.127   1.698   2.323 -0.1491 -0.2441  0.8459
   93MOL   H17624280   0.933   1.753   2.371  0.3737  0.2431  0.0625
   93MOL   H17724281   1.120   1.947   2.229 -0.9294  1.6148 -0.0670
   93MOL   H17824282   0.942   1.950   2.041 -0.4171 -1.0333  0.1134
   93MOL   H17924283   0.828   1.856   2.151 -2.0539  2.1553  0.3506
   93MOL   H18024284   0.839   2.021   2.321 -1.3664  1.7052 -0.0686
   93MOL   H18124285   0.954   2.124   2.221 -0.1137 -0.6579  0.8173
   93MOL   H18224286   1.165   1.648   2.412 -2.1337 -0.2657  1.7225
   93MOL   H18324287   1.211   1.756   2.286 -0.9261  1.2421  1.3474
   93MOL   C18424288   1.096   1.614   2.201 -0.7601  0.3155 -0.7134
   93MOL   C18524289   0.987   1.513   2.237  0.7173 -0.8294  0.1205
   93MOL   C18624290   0.892   1.448   2.136  0.3452 -0.4947  0.2575
   93MOL   C18724291   0.833   1.544   2.232 -0.8163  0.1627 -0.0001
   93MOL   C18824292   1.225   1.536   2.154  0.1659 -0.1939 -0.8271
   93MOL   H18924293   1.063   1.680   2.120 -0.5426  0.3205 -0.7972
   93MOL   H19024294   1.002   1.459   2.330 -1.4948 -1.2636  0.2556
   93MOL   H19124295   0.880   1.342   2.158  1.6347 -0.4204  1.4077
   93MOL   H19224296   0.892   1.481   2.032 -1.6900 -1.6857 -0.1425
   93MOL   H19324297   0.774   1.505   2.315  0.3231 -2.5392 -0.4216
   93MOL   H19424298   0.801   1.644   2.203 -0.3161  0.5936  0.9117
   93MOL   H19524299   1.197   1.455   2.088  1.5667  0.5111 -2.3061
   93MOL   H19624300   1.266   1.489   2.244 -2.7231 -1.8939 -0.3366
   93MOL   C19724301   1.329   1.619   2.081  0.3041  0.2899  0.2480
   93MOL   C19824302   1.285   1.641   1.941 -0.2285 -0.4821  0.5424
   93MOL   C19924303   1.361   1.746   1.859 -0.3933  0.5236 -0.3007
   93MOL   C20024304   1.217   1.765   1.891 -0.0875 -0.8199  0.5016
   93MOL   C20124305   1.467   1.550   2.078 -0.4368 -0.4514  0.0454
   93MOL   H20224306   1.347   1.719   2.122  3.0407 -0.8696  2.0211
   93MOL   H20324307   1.254   1.551   1.889  2.8849 -0.8731 -0.7827
   93MOL   H20424308   1.429   1.820   1.900  1.3897 -0.9482 -0.5045
   93MOL   H20524309   1.371   1.722   1.753 -0.9898  0.5096 -0.3544
   93MOL   H20624310   1.212   1.857   1.949 -1.4557 -1.7676  1.9419
   93MOL   H20724311   1.142   1.742   1.816  0.1704 -1.5973  0.4768
   93MOL   H20824312   1.458   1.446   2.047 -0.8742 -0.0488 -1.1945
   93MOL   H20924313   1.520   1.594   1.993  0.7769 -1.6212  0.1841
   93MOL   C21024314   1.552   1.568   2.203  0.3119 -0.7495  0.3848
   93MOL   C21124315   1.635   1.446   2.226 -0.4660 -0.0433  0.4553
   93MOL   C21224316   1.687   1.401   2.359 -0.1770 -0.1525  0.0872
   93MOL   C21324317   1.575   1.326   2.286 -0.2398  0.4591  0.1190
   93MOL   C21424318   1.628   1.705   2.199  0.4194  0.2897 -0.1301
   93MOL   H21524319   1.480   1.572   2.286  0.2692  2.7712  0.2637
   93MOL   H21624320   1.704   1.424   2.145 -1.1158  0.4298 -0.2265
   93MOL   H21724321   1.788   1.362   2.350  0.5808  1.3726  1.6974
   93MOL   H21824322   1.683   1.464   2.447 -1.6158  0.4301 -0.3833
   93MOL   H21924323   1.594   1.232   2.235 -1.8861  1.2640 -2.0503
   93MOL   H22024324   1.483   1.331   2.343 -0.2091 -0.6527  0.2862
   93MOL   H22124325   1.717   1.686   2.140 -0.5740 -2.5102 -0.7987
   93MOL   H22224326   1.567   1.772   2.138  0.8133  0.7882  0.0249
   93MOL   C22324327   1.668   1.756   2.333 -0.8043 -0.5577  0.3098
   93MOL   C22424328   1.539   1.782   2.413  0.0931 -0.2555  0.0895
   93MOL   C22524329   1.503   1.702   2.531 -0.4906 -0.1770  0.2981
   93MOL   C22624330   1.571   1.839   2.554 -0.1133  0.1722  0.4883
   93MOL   C22724331   1.767   1.872   2.328  0.2990  0.2332  0.5348
   93MOL   H22824332   1.720   1.676   2.386  0.5101 -1.0653 -1.6676
   93MOL   H22924333   1.465   1.843   2.362  0.1236  1.7043  2.3132
   93MOL   H23024334   1.570   1.625   2.570 -1.2034  0.0208  1.9501
   93MOL   H23124335   1.398   1.693   2.558 -0.7268 -2.0487 -1.0747
   93MOL   H23224336   1.505   1.919   2.587  0.7745  0.2916  1.9753
   93MOL   H23324337   1.674   1.842   2.587  0.4578 -0.9482 -1.1384
   93MOL   H23424338   1.744   1.937   2.244 -1.0088 -2.3635 -1.1852
   93MOL   H23524339   1.748   1.950   2.402  0.8904  0.5989  0.3018
   93MOL   C23624340   1.917   1.824   2.343 -0.5062  0.4132 -0.0110
   93MOL   C23724341   1.967   1.842   2.489  0.0318  0.1708 -0.4506
   93MOL   C23824342   1.961   1.730   2.592  0.0566  0.4529  0.5992
   93MOL   C23924343   2.094   1.774   2.527 -0.7644 -0.4939  1.2745
   93MOL   C24024344   2.002   1.903   2.243  0.3779  0.9503 -0.2855
   93MOL   H24124345   1.931   1.718   2.322 -1.1423  0.7125 -2.0342
   93MOL   H24224346   1.960   1.945   2.523  1.6887  0.4616 -0.9652
   93MOL   H24324347   1.950   1.766   2.694  3.8366  1.7000  0.6407
   93MOL   H24424348   1.897   1.647   2.562 -0.7080  1.4218 -0.5000
   93MOL   H24524349   2.144   1.708   2.456 -1.4529 -0.5792  0.8628
   93MOL   H24624350   2.175   1.824   2.580 -0.3182 -0.1445  0.2726
   93MOL   H24724351   2.101   1.858   2.244 -0.6756 -1.4046  0.5389
   93MOL   H24824352   1.964   1.889   2.142  1.1520  0.6479 -0.5377
   93MOL   C24924353   2.042   2.053   2.268 -0.1461 -0.0780 -0.6301
   93MOL   C25024354   2.071   2.122   2.142  1.0475  0.3955 -0.0003
   93MOL   C25124355   1.974   2.187   2.051  0.3862 -0.3383 -0.1183
   93MOL   C25224356   2.060   2.273   2.138 -0.2263  0.1534  0.3268
   93MOL   C25324357   2.170   2.062   2.362 -0.0967  0.1236  0.0613
   93MOL   H25424358   1.963   2.105   2.322  0.8404  0.3478  0.4285
   93MOL   H25524359   2.148   2.069   2.087  1.2628  0.6973  0.0071
   93MOL   H25624360   1.999   2.177   1.946 -1.4390  0.3684 -0.6314
   93MOL   H25724361   1.870   2.171   2.079 -0.0177 -1.0054 -1.9536
   93MOL   H25824362   2.146   2.322   2.093  0.8897 -0.7401  1.4589
   93MOL   H25924363   2.026   2.318   2.230  0.5780 -0.5049  0.9635
   93MOL   H26024364   2.142   2.148   2.422 -1.8183  2.1172 -3.4371
   93MOL   H26124365   2.261   2.092   2.312 -0.0351  0.4807  0.3857
   93MOL   H26224366   2.204   1.984   2.431  1.2202  1.0642  0.4819
   94MOL     C124367   0.517   1.201   6.316  0.0490  0.1361 -0.4890
   94MOL     C224368   0.566   1.295   6.200  0.0328 -0.1050 -0.2642
   94MOL     C324369   0.690   1.367   6.199 -0.1510  0.5248  0.4461
   94MOL     C424370   0.568   1.451   6.213 -0.2888 -0.1396 -0.1494
   94MOL     C524371   0.364   1.193   6.305  0.0680  0.2745 -0.4291
   94MOL     H624372   0.555   1.101   6.300  0.8981 -0.1325  2.9535
   94MOL     H724373   0.558   1.245   6.104  1.5750 -2.1357  0.6207
   94MOL     H824374   0.755   1.354   6.285  0.8376 -0.2522 -0.4090
   94MOL     H924375   0.744   1.376   6.105 -2.2835 -1.7876 -1.0627
   94MOL    H1024376   0.533   1.513   6.130 -0.6047 -0.3540 -0.1760
   94MOL    H1124377   0.539   1.485   6.312  0.1381 -0.3572  0.0481
   94MOL    H1224378   0.331   1.163   6.206 -1.0332  1.4091 -0.4238
   94MOL    H1324379   0.321   1.292   6.323 -1.2009 -0.4425  0.5375
   94MOL    H1424380   0.540   1.261   6.404  0.2328 -0.8757  0.1571
   94MOL    C1524381   0.304   1.087   6.400  0.4374  0.1793  0.1154
   94MOL    C1624382   0.152   1.109   6.409  0.0500  0.3964  0.0630
   94MOL    C1724383   0.085   1.229   6.478 -0.5675 -0.0519  0.4562
   94MOL    C1824384   0.078   1.096   6.541  0.0398 -0.4526  0.2986
   94MOL    C1924385   0.318   0.940   6.338 -0.1823 -0.1406  0.1523
   94MOL    H2024386   0.353   1.098   6.496  0.8973 -1.3648  0.0788
   94MOL    H2124387   0.092   1.073   6.326  0.7364 -0.9526  0.1289
   94MOL    H2224388   7.831   1.269   6.439  0.1961 -1.0556 -2.5158
   94MOL    H2324389   0.151   1.297   6.531  0.1848 -1.2620  1.0865
   94MOL    H2424390   0.142   1.076   6.628 -1.0894 -1.0265  1.0017
   94MOL    H2524391   7.829   1.034   6.534  1.2595 -2.1344 -0.4349
   94MOL    H2624392   0.404   0.936   6.272  0.5875 -0.4579  1.1709
   94MOL    H2724393   0.236   0.936   6.266  0.7457  1.0642 -1.0188
   94MOL    C2824394   0.338   0.828   6.437  0.6918  0.1337  0.4049
   94MOL    C2924395   0.470   0.840   6.503 -0.3987  0.6328 -0.3954
   94MOL    C3024396   0.497   0.900   6.637 -0.3306 -0.5296  1.0325
   94MOL    C3124397   0.502   0.750   6.623  0.3952 -0.6469  0.7255
   94MOL    C3224398   0.318   0.697   6.365  0.2917  0.8350  0.1922
   94MOL    H3324399   0.262   0.843   6.513  1.2882  0.7456  0.8820
   94MOL    H3424400   0.548   0.872   6.434 -2.2030  2.2341 -1.7712
   94MOL    H3524401   0.419   0.930   6.706 -1.5338 -1.1605 -0.0298
   94MOL    H3624402   0.593   0.950   6.651 -0.7661  0.5400  0.2264
   94MOL    H3724403   0.416   0.701   6.669  0.4191 -0.3040  1.1305
   94MOL    H3824404   0.597   0.697   6.621  1.3644  1.0470 -2.4707
   94MOL    H3924405   0.367   0.612   6.412  3.9039  2.0130 -1.2661
   94MOL    H4024406   0.363   0.701   6.265 -1.6036 -0.4155 -0.7391
   94MOL    C4124407   0.171   0.658   6.356  0.4834  0.2962  0.2796
   94MOL    C4224408   0.125   0.595   6.483  0.4492 -1.0165  0.0844
   94MOL    C4324409   7.814   0.607   6.520  0.8067 -0.7298 -1.0611
   94MOL    C4424410   0.083   0.671   6.605  0.2092 -0.2649  0.0251
   94MOL    C4524411   0.145   0.549   6.242  0.3824  0.2692  0.4812
   94MOL    H4624412   0.114   0.749   6.342 -1.7485 -1.3281 -1.4674
   94MOL    H4724413   0.151   0.489   6.484  1.9046 -0.6791 -0.8168
   94MOL    H4824414   7.745   0.674   6.469 -1.6175 -1.7976  0.7717
   94MOL    H4924415   7.768   0.512   6.542  0.0634 -0.4884 -1.5412
   94MOL    H5024416   0.103   0.621   6.699  1.1603  0.3592  0.1579
   94MOL    H5124417   0.083   0.780   6.608  0.3876 -0.2747  0.3594
   94MOL    H5224418   0.044   0.508   6.242  0.7395 -0.6189  0.3369
   94MOL    H5324419   0.219   0.472   6.260  0.6892  0.7314  1.2497
   94MOL    C5424420   0.176   0.598   6.097  0.0863 -0.2303 -0.0614
   94MOL    C5524421   0.143   0.481   6.009  0.0234  0.0637 -0.7476
   94MOL    C5624422   0.225   0.353   6.020  0.1362 -0.8972 -0.1944
   94MOL    C5724423   0.231   0.441   5.889  0.6260 -0.5215  0.0942
   94MOL    C5824424   0.099   0.723   6.056 -0.5510 -0.4899  0.0564
   94MOL    H5924425   0.284   0.613   6.086  0.4421 -3.1953 -0.8715
   94MOL    H6024426   0.037   0.455   6.004  0.1340 -0.5535 -0.0253
   94MOL    H6124427   0.322   0.357   6.069 -0.0230 -0.2110  0.0672
   94MOL    H6224428   0.172   0.258   6.029 -1.1752  0.0875  3.0389
   94MOL    H6324429   0.192   0.384   5.805  0.8664  1.2686 -1.2572
   94MOL    H6424430   0.319   0.505   5.888 -0.1802  0.6189  0.7553
   94MOL    H6524431   7.832   0.698   6.055 -0.5209 -0.7792  1.7017
   94MOL    H6624432   0.111   0.798   6.134  4.1948  0.8895 -1.8679
   94MOL    C6724433   0.138   0.792   5.926 -0.3233 -0.1085 -0.0607
   94MOL    C6824434   0.288   0.821   5.907 -0.0105 -0.3803 -0.4932
   94MOL    C6924435   0.334   0.931   5.817 -0.7418 -0.3948 -0.0797
   94MOL    C7024436   0.344   0.948   5.968 -0.2529  0.3108  0.5620
   94MOL    C7124437   0.074   0.719   5.810 -0.1985 -0.1660  0.0727
   94MOL    H7224438   0.081   0.884   5.942 -1.2659 -0.6131 -0.4227
   94MOL    H7324439   0.345   0.729   5.899  1.5351  0.4978  0.2250
   94MOL    H7424440   0.424   0.925   5.756 -0.6054  2.1799 -0.1819
   94MOL    H7524441   0.262   0.995   5.766  0.4896  1.8637  0.9407
   94MOL    H7624442   0.261   1.002   6.015  1.6446  0.1014  4.3574
   94MOL    H7724443   0.428   0.933   6.035 -0.2086  0.9323  0.6518
   94MOL    H7824444   0.001   0.648   5.847  1.4882 -1.7600  0.4169
   94MOL    H7924445   0.151   0.666   5.754 -0.5534 -2.6288  1.8278
   94MOL    C8024446   7.830   0.816   5.721 -0.5781  0.0076  0.2009
   94MOL    C8124447   7.710   0.882   5.797 -0.0813 -0.6745 -0.4933
   94MOL    C8224448   7.626   0.975   5.720  0.0728 -0.3618  0.4042
   94MOL    C8324449   7.718   1.035   5.827  0.8452 -0.2940 -0.0014
   94MOL    C8424450   7.787   0.742   5.591  0.2621 -0.8540 -0.5197
   94MOL    H8524451   0.054   0.901   5.696  0.4738 -1.2138 -1.4105
   94MOL    H8624452   7.664   0.825   5.877 -1.2573 -1.4395 -1.6968
   94MOL    H8724453   7.524   0.975   5.759 -0.6404  0.7720 -1.4061
   94MOL    H8824454   7.653   1.012   5.621 -1.2638 -0.1278  0.1178
   94MOL    H8924455   7.811   1.078   5.791  0.1202 -0.0580 -1.6441
   94MOL    H9024456   7.672   1.072   5.918 -0.2560  3.0024 -1.8104
   94MOL    H9124457   7.752   0.643   5.620  0.0747 -0.0952  1.9762
   94MOL    H9224458   7.703   0.796   5.547 -0.8753  0.4072  2.9822
   94MOL    C9324459   0.057   0.736   5.483  0.3605  0.3757  0.1349
   94MOL    C9424460   0.030   0.640   5.367  0.1850 -0.0785 -0.1550
   94MOL    C9524461   0.135   0.543   5.299 -0.1403 -0.2644  0.2559
   94MOL    C9624462   0.030   0.484   5.388  0.2633  0.0283 -0.4474
   94MOL    C9724463   0.087   0.876   5.421  0.3283  0.7200  0.6897
   94MOL    H9824464   0.146   0.686   5.521  0.4258  0.7469  0.4831
   94MOL    H9924465   7.784   0.670   5.307  0.1016  0.5551  0.2734
   94MOL   H10024466   0.119   0.531   5.192 -3.1130 -0.7592  0.7070
   94MOL   H10124467   0.231   0.538   5.351 -0.5634  1.0315  1.2057
   94MOL   H10224468   7.795   0.423   5.338 -0.4528  1.4378 -1.1368
   94MOL   H10324469   0.063   0.443   5.484  0.6789 -0.0931 -0.6414
   94MOL   H10424470   0.064   0.956   5.492 -2.3607 -0.9513  1.7473
   94MOL   H10524471   0.008   0.905   5.352  1.2414 -1.9929 -1.5956
   94MOL   C10624472   0.225   0.893   5.356 -0.1908 -0.0474 -0.0423
   94MOL   C10724473   0.228   0.998   5.254  0.6001 -0.6215 -0.4494
   94MOL   C10824474   0.289   0.973   5.126 -0.4544  0.2690  0.2819
   94MOL   C10924475   0.142   0.975   5.124 -0.2773  0.1732  0.2365
   94MOL   C11024476   0.335   0.925   5.463  0.4056 -0.3233 -0.4202
   94MOL   H11124477   0.252   0.802   5.303 -0.8951  0.4869 -1.3406
   94MOL   H11224478   0.216   1.100   5.288 -0.2496 -0.5737 -0.8687
   94MOL   H11324479   0.336   1.060   5.079  1.4396 -0.4195  0.8647
   94MOL   H11424480   0.341   0.879   5.109 -1.2279  0.0297 -0.8397
   94MOL   H11524481   0.094   0.878   5.128  1.1162 -0.5209  0.4980
   94MOL   H11624482   0.083   1.062   5.095 -1.3499 -0.9053 -0.8660
   94MOL   H11724483   0.345   1.032   5.482 -0.1211 -0.1822 -0.9070
   94MOL   H11824484   0.293   0.903   5.561  1.5258  0.5162  0.2603
   94MOL   C11924485   0.477   0.860   5.449 -0.2053 -0.1316  0.0429
   94MOL   C12024486   0.464   0.707   5.452  0.0447  0.3358 -0.6507
   94MOL   C12124487   0.428   0.638   5.584 -0.4030 -0.0277  0.5418
   94MOL   C12224488   0.563   0.623   5.518  0.3991 -0.8694 -0.0599
   94MOL   C12324489   0.563   0.915   5.325 -0.8006 -0.5542  0.0635
   94MOL   H12424490   0.522   0.897   5.541 -0.3213  0.6279 -0.1989
   94MOL   H12524491   0.412   0.664   5.366 -0.4608  0.1345 -0.2453
   94MOL   H12624492   0.361   0.553   5.576  0.2116 -0.7104  2.3759
   94MOL   H12724493   0.418   0.704   5.670  0.1791  0.9180 -0.1024
   94MOL   H12824494   0.636   0.669   5.585 -3.6163  3.7331  1.4557
   94MOL   H12924495   0.594   0.535   5.463 -0.2281  0.2962 -2.3262
   94MOL   H13024496   0.524   0.862   5.238 -0.7675 -1.5689  0.6533
   94MOL   H13124497   0.531   1.018   5.314  1.7511  0.5032  2.1268
   94MOL   C13224498   0.715   0.885   5.342 -0.2941 -0.0926  0.1432
   94MOL   C13324499   0.796   1.003   5.317  0.3344 -0.4694  0.5313
   94MOL   C13424500   0.889   1.079   5.409 -0.3074  0.2780 -0.0861
   94MOL   C13524501   0.753   1.134   5.379  0.4840  0.1485  0.3137
   94MOL   C13624502   0.779   0.776   5.259 -0.4153  0.3074  0.4553
   94MOL   H13724503   0.738   0.869   5.447  1.4972  0.9975 -0.0701
   94MOL   H13824504   0.822   1.009   5.211 -2.2055 -0.1918 -0.1135
   94MOL   H13924505   0.894   1.051   5.514 -0.7481  3.5714  0.8635
   94MOL   H14024506   0.973   1.138   5.373  1.8019 -1.9753  0.9864
   94MOL   H14124507   0.670   1.131   5.450  0.6515  0.0418  0.5058
   94MOL   H14224508   0.727   1.205   5.301  1.4259 -0.1999 -0.3293
   94MOL   H14324509   0.711   0.691   5.258  3.0612 -2.6013 -1.1197
   94MOL   H14424510   0.791   0.813   5.157  1.5547 -0.6267  0.3151
   94MOL   C14524511   0.918   0.717   5.310  0.7970 -0.1449 -0.0579
   94MOL   C14624512   0.905   0.676   5.452 -0.7981  0.7337  0.0997
   94MOL   C14724513   1.027   0.655   5.544  0.4230 -0.4139 -0.3549
   94MOL   C14824514   0.943   0.777   5.565  0.4541 -0.2835  0.0155
   94MOL   C14924515   0.983   0.605   5.236  0.6014  0.3511 -0.2020
   94MOL   H15024516   0.990   0.797   5.295  1.3966 -0.8976 -1.2744
   94MOL   H15124517   0.827   0.601   5.464  1.3881 -1.8329 -1.1311
   94MOL   H15224518   1.019   0.583   5.625 -1.1601  0.0171 -0.1126
   94MOL   H15324519   1.127   0.679   5.506  0.0832  1.7152  0.0014
   94MOL   H15424520   0.993   0.872   5.545  2.4300 -1.2340  0.3164
   94MOL   H15524521   0.879   0.788   5.652 -2.0247  0.0843 -1.8237
   94MOL   H15624522   1.071   0.573   5.292 -0.3555 -0.8299  0.6646
   94MOL   H15724523   0.911   0.523   5.226 -1.8523  2.5190 -0.8253
   94MOL   C15824524   1.016   0.631   5.091  0.5540 -0.4396  0.4732
   94MOL   C15924525   1.061   0.503   5.024 -0.2462  0.9917 -0.9463
   94MOL   C16024526   0.952   0.397   4.994 -0.3327 -0.3463  0.5541
   94MOL   C16124527   1.030   0.457   4.881  0.2899 -0.4570 -0.2608
   94MOL   C16224528   1.106   0.752   5.069 -0.7121 -0.0319 -0.6261
   94MOL   H16324529   0.921   0.657   5.044  0.4188  0.8816  1.4495
   94MOL   H16424530   1.150   0.462   5.070 -0.8897 -0.7708 -1.2386
   94MOL   H16524531   0.846   0.419   4.998 -0.6313 -1.6523  0.2891
   94MOL   H16624532   0.973   0.294   5.022 -2.1470 -0.6551  0.8464
   94MOL   H16724533   1.092   0.392   4.820  1.8249 -0.9185  1.7187
   94MOL   H16824534   0.995   0.538   4.817  1.9600  0.0308 -0.5680
   94MOL   H16924535   1.192   0.739   5.135 -0.3676  1.5175 -0.7456
   94MOL   H17024536   1.051   0.838   5.106  0.5374  0.0239  1.1783
   94MOL   C17124537   1.146   0.784   4.918  0.3057  0.0986 -0.3049
   94MOL   C17224538   1.147   0.937   4.893 -0.3668 -0.1602 -0.1532
   94MOL   C17324539   1.096   0.976   4.764 -0.4112  0.4190  0.0064
   94MOL   C17424540   1.013   1.007   4.890  0.4511 -0.4702 -0.0573
   94MOL   C17524541   1.286   0.717   4.876 -0.6175  0.0981  0.3021
   94MOL   H17624542   1.063   0.740   4.862 -0.3748  0.4781  0.4005
   94MOL   H17724543   1.227   0.993   4.943  0.4645 -0.2636 -1.3402
   94MOL   H17824544   1.139   1.063   4.715 -0.0731  0.3114  0.1099
   94MOL   H17924545   1.065   0.892   4.702  1.2862 -0.6256  0.5258
   94MOL   H18024546   0.924   0.946   4.903 -0.1257  0.4177  0.1585
   94MOL   H18124547   1.011   1.108   4.929  2.0958 -0.6014  0.4147
   94MOL   H18224548   1.277   0.612   4.906 -1.6108 -0.4440 -1.7769
   94MOL   H18324549   1.347   0.761   4.955  0.8302 -1.9110  0.3361
   94MOL   C18424550   1.330   0.734   4.726 -0.4427 -0.1798 -0.8685
   94MOL   C18524551   1.412   0.610   4.691 -0.4212  0.1784 -0.3343
   94MOL   C18624552   1.382   0.540   4.551  0.5656  0.2920  0.5110
   94MOL   C18724553   1.344   0.471   4.680  0.4476  0.2974  0.2179
   94MOL   C18824554   1.410   0.859   4.707 -0.4722 -0.2947 -1.0336
   94MOL   H18924555   1.240   0.734   4.665 -0.3881 -1.6170 -0.9574
   94MOL   H19024556   1.514   0.606   4.729 -0.0443  0.4293 -1.3206
   94MOL   H19124557   1.462   0.495   4.493  1.2038  2.2569 -0.1883
   94MOL   H19224558   1.307   0.593   4.492  1.0493 -0.0898 -0.4571
   94MOL   H19324559   1.404   0.387   4.714  1.1575  1.0135  0.7588
   94MOL   H19424560   1.247   0.488   4.728  0.4482  0.3105  0.2143
   94MOL   H19524561   1.507   0.836   4.752 -1.4542 -0.5309  0.9816
   94MOL   H19624562   1.365   0.939   4.765  1.8691  1.8994 -2.1240
   94MOL   C19724563   1.452   0.912   4.564  0.5474  0.5613  0.0936
   94MOL   C19824564   1.553   1.027   4.587  0.0856  1.2828  0.2483
   94MOL   C19924565   1.669   1.045   4.496  0.4239  0.0365 -0.6505
   94MOL   C20024566   1.691   1.008   4.644  0.8945  0.1002 -0.1278
   94MOL   C20124567   1.329   0.948   4.470 -0.1509 -0.0032 -0.4089
   94MOL   H20224568   1.504   0.832   4.512  0.9423  0.2802  0.9191
   94MOL   H20324569   1.502   1.115   4.626 -2.6272  0.2273 -0.8357
   94MOL   H20424570   1.681   0.967   4.421 -1.0477  1.0548 -1.9611
   94MOL   H20524571   1.679   1.148   4.464 -0.8431  0.3584 -0.0323
   94MOL   H20624572   1.731   0.908   4.658  1.1845  0.3663  0.9739
   94MOL   H20724573   1.742   1.086   4.701  1.0761  0.0467 -0.2155
   94MOL   H20824574   1.257   0.867   4.477 -0.4981  0.3120 -0.3532
   94MOL   H20924575   1.280   1.037   4.507 -0.2887 -0.1770 -0.1721
   94MOL   C21024576   1.370   0.978   4.324 -0.4696 -0.7502  0.8332
   94MOL   C21124577   1.367   0.849   4.245  0.3050 -0.0283  0.1787
   94MOL   C21224578   1.441   0.831   4.115 -1.0098 -0.0293  0.0093
   94MOL   C21324579   1.484   0.754   4.238 -0.3416  0.5211 -0.2072
   94MOL   C21424580   1.296   1.095   4.260  0.1653  0.8221 -0.6647
   94MOL   H21524581   1.475   1.007   4.331 -0.4447 -0.5888 -0.0925
   94MOL   H21624582   1.268   0.802   4.240  0.8046 -0.9426 -1.2091
   94MOL   H21724583   1.404   0.763   4.038  1.9308  1.0733 -2.4730
   94MOL   H21824584   1.515   0.906   4.087 -1.5230  0.3259 -0.4030
   94MOL   H21924585   1.476   0.646   4.250 -2.0842  0.6245 -0.2937
   94MOL   H22024586   1.576   0.790   4.284 -0.5772 -0.0791  0.7383
   94MOL   H22124587   1.283   1.073   4.154 -1.3426 -0.3314 -0.2600
   94MOL   H22224588   1.194   1.094   4.299  0.5137  1.2626  0.2749
   94MOL   C22324589   1.370   1.239   4.270 -0.0482 -0.1879  0.4196
   94MOL   C22424590   1.294   1.321   4.365  0.4264 -0.4845  0.7843
   94MOL   C22524591   1.330   1.344   4.507 -0.7401  0.5846  0.1926
   94MOL   C22624592   1.365   1.446   4.402  0.1412  0.2998  1.0236
   94MOL   C22724593   1.383   1.311   4.128 -0.4516  0.6157  0.0686
   94MOL   H22824594   1.467   1.228   4.320 -0.9599  0.4422  2.3927
   94MOL   H22924595   1.195   1.346   4.328  0.3302  0.1472  1.4661
   94MOL   H23024596   1.419   1.294   4.545 -0.3108 -0.4357 -2.0978
   94MOL   H23124597   1.254   1.371   4.581  1.7425  1.3428  2.5341
   94MOL   H23224598   1.308   1.539   4.392  0.9068  0.5294 -1.5078
   94MOL   H23324599   1.464   1.444   4.358 -0.1816  0.6135  0.2779
   94MOL   H23424600   1.284   1.301   4.083  0.7076  0.0760 -2.4399
   94MOL   H23524601   1.397   1.417   4.149 -1.9895  0.3222  2.8761
   94MOL   C23624602   1.490   1.255   4.038  0.4932 -0.8626 -0.1272
   94MOL   C23724603   1.626   1.273   4.088 -0.0217 -0.0051 -0.9036
   94MOL   C23824604   1.701   1.165   4.170 -0.1835 -0.0500  0.3487
   94MOL   C23924605   1.739   1.186   4.023 -0.0488  0.2996  0.6983
   94MOL   C24024606   1.475   1.309   3.891  0.0152 -0.0556  0.1782
   94MOL   H24124607   1.462   1.151   4.021 -1.5111 -0.3689 -0.0225
   94MOL   H24224608   1.665   1.371   4.115 -1.0293  0.4542 -1.1009
   94MOL   H24324609   1.764   1.203   4.250 -1.3500  2.1014  0.2831
   94MOL   H24424610   1.649   1.073   4.195  0.8932 -0.6861  0.2783
   94MOL   H24524611   1.712   1.116   3.945  0.0344  1.8477 -0.7348
   94MOL   H24624612   1.824   1.250   4.001  0.2724 -0.5245 -0.4989
   94MOL   H24724613   1.500   1.416   3.889  0.0631 -0.0203  2.1822
   94MOL   H24824614   1.549   1.263   3.825  2.6232  1.9272  1.5922
   94MOL   C24924615   1.349   1.267   3.812 -0.2196 -0.0233 -0.2236
   94MOL   C25024616   1.354   1.116   3.775 -1.0685  0.4079  0.8313
   94MOL   C25124617   1.287   1.017   3.863  0.3125 -0.2029  0.3703
   94MOL   C25224618   1.225   1.048   3.726  0.2319 -0.5713 -0.0062
   94MOL   C25324619   1.336   1.354   3.682 -0.2688  0.0498 -0.6940
   94MOL   H25424620   1.264   1.293   3.875 -0.2829 -2.3752  0.6879
   94MOL   H25524621   1.451   1.082   3.741 -1.7101 -0.2920 -0.3397
   94MOL   H25624622   1.322   0.914   3.874 -0.0249 -0.1808  1.7071
   94MOL   H25724623   1.238   1.065   3.947 -2.8001  0.8814 -1.9400
   94MOL   H25824624   1.237   0.964   3.658 -1.2449 -0.9476  0.1913
   94MOL   H25924625   1.129   1.099   3.720  1.1234  1.1966  0.3840
   94MOL   H26024626   1.289   1.451   3.701  0.0708 -0.2095  1.6130
   94MOL   H26124627   1.263   1.299   3.622 -0.0487  1.0235 -1.8610
   94MOL   H26224628   1.430   1.374   3.632  0.9151  0.3495  1.5891
   95MOL     C124629   6.482   5.024   5.385  0.1842  0.1031 -0.2711
   95MOL     C224630   6.332   5.032   5.327  0.5345  0.7226  0.3264
   95MOL     C324631   6.305   5.071   5.184 -0.9991 -0.8920 -0.0714
   95MOL     C424632   6.265   5.166   5.308  0.6400  1.1617 -0.1999
   95MOL     C524633   6.558   4.898   5.337  0.2356  0.3813 -0.0356
   95MOL     H624634   6.539   5.114   5.364 -0.4658  0.1670 -1.7836
   95MOL     H724635   6.273   4.945   5.355 -0.3006  0.8274 -1.1173
   95MOL     H824636   6.389   5.113   5.130 -1.2369  0.8440  0.8776
   95MOL     H924637   6.221   5.026   5.131 -0.6563 -0.0847 -1.3240
   95MOL    H1024638   6.157   5.182   5.300  0.4658 -0.3689 -1.1649
   95MOL    H1124639   6.322   5.258   5.298  2.9521 -0.2687 -0.4397
   95MOL    H1224640   6.544   4.885   5.229  2.4450  1.8012 -0.5449
   95MOL    H1324641   6.503   4.813   5.376  0.4847  1.1787  2.1397
   95MOL    H1424642   6.486   5.028   5.494  1.0949  1.4470 -0.3414
   95MOL    C1524643   6.710   4.880   5.379 -0.0220  0.4246  0.1031
   95MOL    C1624644   6.750   4.732   5.369  0.3412 -0.3727  0.4121
   95MOL    C1724645   6.706   4.642   5.482  0.1820  0.0780  0.3910
   95MOL    C1824646   6.851   4.672   5.464 -0.3179  0.2805 -0.2772
   95MOL    C1924647   6.797   4.977   5.285  0.5235  0.0251  0.2007
   95MOL    H2024648   6.723   4.923   5.478 -0.4276 -2.5088  1.4964
   95MOL    H2124649   6.759   4.688   5.270 -1.5865  1.0127 -0.4132
   95MOL    H2224650   6.693   4.536   5.463  0.8513 -0.2480  1.7346
   95MOL    H2324651   6.651   4.681   5.568 -0.8440  0.1976 -0.3016
   95MOL    H2424652   6.906   4.717   5.547 -1.2228  0.1074  0.4342
   95MOL    H2524653   6.911   4.591   5.424  1.9595  2.3048 -1.1086
   95MOL    H2624654   6.764   5.080   5.302  1.1655  0.3396 -0.4213
   95MOL    H2724655   6.772   4.966   5.179  2.2777  1.2871 -0.3826
   95MOL    C2824656   6.953   4.977   5.323 -0.6555 -0.3462  0.5087
   95MOL    C2924657   6.979   5.082   5.423  0.0798 -0.3658 -0.2726
   95MOL    C3024658   6.950   5.062   5.567  0.6191 -0.3510 -1.0673
   95MOL    C3124659   7.094   5.070   5.519  0.0907 -0.7252  0.8125
   95MOL    C3224660   7.043   5.002   5.199  0.2062 -0.0427  0.5991
   95MOL    H3324661   6.978   4.883   5.373  0.5543 -0.4223 -0.2071
   95MOL    H3424662   6.949   5.181   5.392  0.0809  0.3337  1.9123
   95MOL    H3524663   6.920   4.965   5.605  1.8167  0.9039  3.3449
   95MOL    H3624664   6.918   5.142   5.634  1.9271 -1.1577  0.5606
   95MOL    H3724665   7.148   4.978   5.497  0.0549 -0.5946  0.1553
   95MOL    H3824666   7.153   5.160   5.534  1.9443 -1.7753 -0.0026
   95MOL    H3924667   7.133   5.050   5.235  0.7641 -1.5498  1.2341
   95MOL    H4024668   6.994   5.075   5.134  1.5231  0.0898 -0.2525
   95MOL    C4124669   7.088   4.873   5.121 -0.2620  0.5120  0.0298
   95MOL    C4224670   7.224   4.899   5.045 -0.0688 -0.6603 -0.1301
   95MOL    C4324671   7.321   4.788   5.006 -0.3783 -0.0570  0.6626
   95MOL    C4424672   7.350   4.877   5.121  0.3887 -0.3445 -0.0366
   95MOL    C4524673   6.981   4.795   5.040 -0.0168 -0.2271  0.2746
   95MOL    H4624674   7.119   4.798   5.194  0.1280 -0.6800 -1.3346
   95MOL    H4724675   7.215   4.969   4.962  1.8137 -2.3338 -1.8189
   95MOL    H4824676   7.298   4.682   5.021 -1.3213 -0.0521 -0.6221
   95MOL    H4924677   7.381   4.803   4.917  0.4959  0.7460  1.3763
   95MOL    H5024678   7.428   4.952   5.111 -1.4944  2.0291  2.3024
   95MOL    H5124679   7.339   4.830   5.219 -0.8883  1.3042  0.6388
   95MOL    H5224680   6.903   4.756   5.106  0.2744 -0.6698  0.3583
   95MOL    H5324681   7.020   4.703   4.997 -0.7807 -0.4284 -0.0033
   95MOL    C5424682   6.907   4.861   4.920 -0.4359 -0.8726  0.7886
   95MOL    C5524683   7.003   4.922   4.815 -0.8591  0.4939 -0.2174
   95MOL    C5624684   7.023   5.069   4.797  0.3623  0.3959 -0.1380
   95MOL    C5724685   6.953   4.996   4.688 -0.1736  0.0379 -0.3112
   95MOL    C5824686   6.805   4.761   4.852  0.0641 -0.0279  0.1523
   95MOL    H5924687   6.852   4.950   4.949  1.0043  0.1795  0.3441
   95MOL    H6024688   7.087   4.855   4.798  0.0882  1.4133  0.7098
   95MOL    H6124689   6.961   5.116   4.874  0.8181 -0.1847  0.5911
   95MOL    H6224690   7.126   5.099   4.781 -0.0138  1.4474 -0.6734
   95MOL    H6324691   7.013   4.965   4.603  0.3346 -2.5927  0.9473
   95MOL    H6424692   6.850   5.016   4.662 -0.4418 -0.3482  0.4494
   95MOL    H6524693   6.808   4.758   4.743  3.0055  0.1525  0.1697
   95MOL    H6624694   6.824   4.657   4.878 -3.4910 -0.2872  1.9814
   95MOL    C6724695   6.654   4.787   4.890 -0.1550  0.1362  0.3400
   95MOL    C6824696   6.611   4.922   4.834  0.3822 -0.1012 -0.1552
   95MOL    C6924697   6.478   4.991   4.862 -0.5181 -0.3357 -0.4641
   95MOL    C7024698   6.604   5.047   4.922 -0.2795 -0.2154  0.9031
   95MOL    C7124699   6.567   4.676   4.850 -0.3537 -0.7003 -0.0371
   95MOL    H7224700   6.638   4.798   4.997 -1.0196 -0.9275  0.3290
   95MOL    H7324701   6.638   4.948   4.732  2.7588 -2.2286 -0.0993
   95MOL    H7424702   6.436   5.061   4.789  0.9825  0.9743 -0.0956
   95MOL    H7524703   6.414   4.965   4.946  1.2470 -0.7445  0.7638
   95MOL    H7624704   6.614   5.051   5.030 -0.1746  2.2204  0.8260
   95MOL    H7724705   6.641   5.136   4.872  0.1187 -1.9199 -1.9703
   95MOL    H7824706   6.608   4.626   4.762  0.7654 -0.6300  0.4413
   95MOL    H7924707   6.474   4.726   4.821  1.1755  1.4085 -1.4609
   95MOL    C8024708   6.530   4.572   4.963 -1.2175 -0.3158  0.5754
   95MOL    C8124709   6.445   4.631   5.073  0.0668  0.2093 -0.2789
   95MOL    C8224710   6.333   4.572   5.151  0.1697  0.5594  0.1059
   95MOL    C8324711   6.300   4.666   5.043  0.3416 -0.5036 -0.2658
   95MOL    C8424712   6.637   4.480   5.010  0.2990  0.3462 -1.1070
   95MOL    H8524713   6.460   4.507   4.909  2.0861 -1.0391 -3.0220
   95MOL    H8624714   6.502   4.702   5.132  0.7607 -1.6395  1.3005
   95MOL    H8724715   6.315   4.602   5.254  2.3335  0.3821  0.5512
   95MOL    H8824716   6.321   4.464   5.139  0.8188  0.5085 -0.0881
   95MOL    H8924717   6.257   4.635   4.948 -0.1020 -2.6567  0.6077
   95MOL    H9024718   6.269   4.765   5.074 -2.5849 -1.3313 -0.4018
   95MOL    H9124719   6.705   4.479   4.925 -0.1563  0.0868 -1.4683
   95MOL    H9224720   6.703   4.528   5.083 -0.5648 -1.9203  1.2460
   95MOL    C9324721   6.606   4.351   5.070 -0.8338 -0.7965  0.7620
   95MOL    C9424722   6.549   4.260   4.968  0.9080 -0.3414  0.2639
   95MOL    C9524723   6.508   4.116   4.988 -0.1605  0.7168 -0.5232
   95MOL    C9624724   6.405   4.224   4.980  0.9491  0.3759  0.6389
   95MOL    C9724725   6.739   4.295   5.135  0.0945 -0.6974 -0.4687
   95MOL    H9824726   6.538   4.370   5.152  0.1171 -0.5166  1.4951
   95MOL    H9924727   6.576   4.287   4.866  0.5001 -0.1443  0.2095
   95MOL   H10024728   6.496   4.043   4.909  0.4111  2.4253 -2.2329
   95MOL   H10124729   6.533   4.076   5.086  0.5457  0.4003 -0.8286
   95MOL   H10224730   6.346   4.235   4.889 -0.4050  1.6751  1.6532
   95MOL   H10324731   6.349   4.249   5.071  1.1972  1.5677  0.4711
   95MOL   H10424732   6.709   4.198   5.173  1.6475 -1.1109 -0.2674
   95MOL   H10524733   6.760   4.341   5.232 -0.9609  0.0133 -0.5584
   95MOL   C10624734   6.861   4.276   5.048 -0.1029  0.1319 -0.1417
   95MOL   C10724735   6.983   4.267   5.140  0.0828 -0.4935  0.2181
   95MOL   C10824736   7.105   4.351   5.121 -0.1671  0.0227  0.5027
   95MOL   C10924737   7.012   4.375   5.237  0.6020  0.4234 -0.2077
   95MOL   C11024738   6.839   4.149   4.964 -0.3296 -0.1771 -0.2297
   95MOL   H11124739   6.884   4.356   4.978  0.7346 -2.5665 -3.0290
   95MOL   H11224740   6.996   4.177   5.200  1.0795 -2.3808 -2.6833
   95MOL   H11324741   7.196   4.293   5.129 -0.7973 -1.1032 -0.3435
   95MOL   H11424742   7.113   4.428   5.044 -2.2099  1.3981  1.6237
   95MOL   H11524743   6.948   4.463   5.238  0.6283  0.4537  1.8595
   95MOL   H11624744   7.029   4.335   5.337  0.5828  3.4723  1.1058
   95MOL   H11724745   6.793   4.071   5.025 -0.1721 -0.2889 -0.2520
   95MOL   H11824746   6.774   4.187   4.886 -1.3238  0.0205  0.6885
   95MOL   C11924747   6.968   4.089   4.896 -0.5391 -0.1420 -0.3814
   95MOL   C12024748   6.934   3.962   4.817 -0.5557 -0.2018  0.1261
   95MOL   C12124749   6.848   3.855   4.883  0.2032 -0.0808 -0.3580
   95MOL   C12224750   6.994   3.831   4.857  0.3410 -0.2508 -0.4583
   95MOL   C12324751   7.054   4.190   4.808 -0.7716  0.2628  0.1028
   95MOL   H12424752   7.037   4.057   4.974 -1.3348 -1.8452 -0.3676
   95MOL   H12524753   6.929   3.971   4.709 -0.7952 -3.0682 -0.1400
   95MOL   H12624754   6.768   3.810   4.825 -0.9553  0.3242  0.8845
   95MOL   H12724755   6.829   3.858   4.991  2.7920  2.5647  0.0800
   95MOL   H12824756   7.065   3.835   4.939 -0.0100  2.0216 -0.2459
   95MOL   H12924757   7.012   3.741   4.797 -0.2983  0.4519 -1.7228
   95MOL   H13024758   6.987   4.228   4.731 -1.4769  1.3864  1.2444
   95MOL   H13124759   7.077   4.275   4.873 -3.4175  2.1283 -1.2945
   95MOL   C13224760   7.181   4.132   4.740 -0.3623  0.2728 -0.0239
   95MOL   C13324761   7.299   4.159   4.835 -0.1669 -0.2985 -0.7546
   95MOL   C13424762   7.416   4.071   4.825 -0.1301 -0.0150  0.3328
   95MOL   C13524763   7.325   4.050   4.939 -0.3322  0.1307  0.1244
   95MOL   C13624764   7.198   4.180   4.595 -0.6688  0.3601  0.5944
   95MOL   H13724765   7.173   4.026   4.715 -2.5917  0.8125 -1.7330
   95MOL   H13824766   7.319   4.259   4.872 -0.2681 -0.9523  1.1303
   95MOL   H13924767   7.412   4.000   4.743  1.4314  1.5176 -1.0949
   95MOL   H14024768   7.514   4.109   4.853  0.3140 -0.4086 -0.6768
   95MOL   H14124769   7.264   3.960   4.929  0.1049 -0.0207 -1.2566
   95MOL   H14224770   7.329   4.102   5.034  1.7452 -0.9558  0.6677
   95MOL   H14324771   7.211   4.089   4.536 -1.6105 -0.6758  1.9660
   95MOL   H14424772   7.102   4.213   4.555 -1.2411 -1.7815  0.1376
   95MOL   C14524773   7.290   4.295   4.555  0.2945 -0.6146  0.0589
   95MOL   C14624774   7.270   4.429   4.645  0.2747 -0.8041  0.5546
   95MOL   C14724775   7.263   4.567   4.594 -0.4941  0.0579 -0.0370
   95MOL   C14824776   7.136   4.491   4.656  0.6782  0.6818 -0.2031
   95MOL   C14924777   7.439   4.252   4.532  0.1060  0.6262 -0.5753
   95MOL   H15024778   7.256   4.326   4.456 -0.9320  1.9497  1.2326
   95MOL   H15124779   7.339   4.419   4.728  0.1814  2.5362  1.1111
   95MOL   H15224780   7.312   4.640   4.659  2.3981 -2.7087  1.0551
   95MOL   H15324781   7.267   4.579   4.486 -1.5170 -1.2385 -0.2290
   95MOL   H15424782   7.066   4.446   4.585 -1.7984  2.3946  1.0438
   95MOL   H15524783   7.098   4.512   4.756 -0.6661 -0.4683 -0.4501
   95MOL   H15624784   7.488   4.255   4.629  2.6312 -1.0648 -1.7365
   95MOL   H15724785   7.443   4.148   4.500 -2.5702  0.8200 -1.6667
   95MOL   C15824786   7.515   4.355   4.437 -1.1121  0.0789  0.5051
   95MOL   C15924787   7.462   4.329   4.299 -0.2585 -0.1628  0.0163
   95MOL   C16024788   7.373   4.433   4.227 -0.2569 -0.0004 -0.0686
   95MOL   C16124789   7.516   4.418   4.181  0.2558  0.1289  0.4359
   95MOL   C16224790   7.672   4.337   4.453  0.1691 -0.3545 -0.6423
   95MOL   H16324791   7.492   4.456   4.469 -1.8606  0.9324 -2.5763
   95MOL   H16424792   7.469   4.227   4.264  2.2087  0.1437 -0.4563
   95MOL   H16524793   7.351   4.520   4.288  0.9810 -0.3157  0.8538
   95MOL   H16624794   7.291   4.411   4.159 -0.8958  3.0462 -0.3398
   95MOL   H16724795   7.534   4.372   4.084 -2.0674  0.8858 -0.4005
   95MOL   H16824796   7.589   4.492   4.212 -0.4354  1.0299 -0.0806
   95MOL   H16924797   7.715   4.409   4.383  0.7551 -1.4913 -1.4829
   95MOL   H17024798   7.705   4.246   4.402 -0.2326  0.3505 -2.1944
   95MOL   C17124799   7.732   4.383   4.589 -0.3576  0.1041  0.5669
   95MOL   C17224800   0.011   4.291   4.623  0.5528  0.8893  1.3744
   95MOL   C17324801   0.018   4.230   4.762  0.3831 -0.1667  0.0457
   95MOL   C17424802   7.825   4.139   4.648  0.5266 -0.1482  0.5374
   95MOL   C17524803   7.761   4.538   4.582  0.7855 -0.3967 -1.2328
   95MOL   H17624804   7.659   4.370   4.670 -0.6831  0.5434  0.3480
   95MOL   H17724805   0.103   4.313   4.570 -1.0087  2.6846 -0.7061
   95MOL   H17824806   0.114   4.212   4.810 -0.1517 -0.6684  0.9225
   95MOL   H17924807   7.779   4.230   4.838 -0.2634  1.4696 -0.5922
   95MOL   H18024808   7.721   4.107   4.647  1.0718 -2.0108  1.0182
   95MOL   H18124809   0.056   4.066   4.608  1.5884  0.8852  0.4919
   95MOL   H18224810   7.679   4.587   4.529  2.3458  0.3913 -2.9518
   95MOL   H18324811   0.002   4.559   4.513  1.0612 -0.7361 -1.0179
   95MOL   C18424812   7.774   4.592   4.731  0.6176 -0.0860  0.1293
   95MOL   C18524813   7.643   4.590   4.800 -0.5313  0.1164  0.5027
   95MOL   C18624814   7.640   4.612   4.949  0.8490 -0.6480  0.2929
   95MOL   C18724815   7.586   4.485   4.890  0.2966  0.0912  0.3826
   95MOL   C18824816   7.835   4.741   4.742 -0.2304  0.0553  0.5665
   95MOL   H18924817   7.838   4.531   4.795 -2.0162  0.6856  3.7080
   95MOL   H19024818   7.581   4.650   4.735  0.6661  1.2358  0.3743
   95MOL   H19124819   7.571   4.694   4.968 -0.2851 -0.8657 -2.6693
   95MOL   H19224820   7.732   4.610   5.007  1.5679 -1.0783 -0.8497
   95MOL   H19324821   7.481   4.461   4.896  0.4024 -0.8919 -1.3239
   95MOL   H19424822   7.640   4.390   4.894  1.2118  0.4381 -2.4181
   95MOL   H19524823   7.813   4.792   4.836 -1.4953  1.6047 -0.5532
   95MOL   H19624824   7.784   4.815   4.679 -0.2346 -0.2517  0.2067
   95MOL   C19724825   0.144   4.745   4.709 -0.4329  0.2180 -0.1066
   95MOL   C19824826   0.222   4.702   4.833 -0.3177 -0.6849  0.2463
   95MOL   C19924827   0.362   4.667   4.819 -0.1443  0.6310  0.2257
   95MOL   C20024828   0.266   4.557   4.866 -0.4779  0.5301 -0.7819
   95MOL   C20124829   0.192   4.884   4.666 -0.1782 -0.7133  0.2760
   95MOL   H20224830   0.168   4.676   4.628 -1.0274  1.2102 -1.1481
   95MOL   H20324831   0.214   4.770   4.917  0.3288 -0.0318 -0.2068
   95MOL   H20424832   0.386   4.671   4.713 -1.7599 -0.8765 -0.2158
   95MOL   H20524833   0.433   4.714   4.887  0.5117  0.9367 -0.6500
   95MOL   H20624834   0.251   4.474   4.798 -1.3855 -1.6028  1.9361
   95MOL   H20724835   0.272   4.541   4.973  0.7323  0.9737 -0.7838
   95MOL   H20824836   0.169   4.950   4.750 -0.0302 -2.5896  1.8252
   95MOL   H20924837   0.294   4.867   4.631  0.2858 -0.4698  1.5113
   95MOL   C21024838   0.112   4.953   4.546 -0.2431 -0.3239 -0.6023
   95MOL   C21124839   0.180   5.086   4.516 -0.0416  0.4218  0.2577
   95MOL   C21224840   0.112   5.212   4.466 -0.1056  0.4054  0.4724
   95MOL   C21324841   0.172   5.203   4.603 -0.4847  0.5460  1.2594
   95MOL   C21424842   0.100   4.858   4.427  0.1985 -0.1062  0.1816
   95MOL   H21524843   0.009   4.981   4.569 -0.5225 -0.2379 -1.9528
   95MOL   H21624844   0.280   5.068   4.477  0.0715 -0.2701  0.8604
   95MOL   H21724845   0.161   5.260   4.382  0.1153  0.0191  0.3838
   95MOL   H21824846   0.004   5.224   4.479 -0.5780 -1.7193 -1.2353
   95MOL   H21924847   0.265   5.255   4.625  1.1588 -1.6094 -0.3573
   95MOL   H22024848   0.101   5.201   4.686 -1.9365 -1.5288  0.0175
   95MOL   H22124849   0.178   4.782   4.422  0.9445  0.4378  2.9753
   95MOL   H22224850   0.016   4.792   4.449 -0.7064 -0.7014 -4.5208
   95MOL   C22324851   0.058   4.915   4.295  0.1240  0.3325  1.3269
   95MOL   C22424852   7.799   4.836   4.213  0.1986 -0.1447  0.3412
   95MOL   C22524853   7.659   4.802   4.260 -0.6051 -0.1662  0.4957
   95MOL   C22624854   7.675   4.894   4.143 -0.2293 -0.6078 -0.0932
   95MOL   C22724855   0.184   4.962   4.215 -0.5424  0.2903  0.4453
   95MOL   H22824856   7.833   5.000   4.315  0.7556  1.5440 -1.4427
   95MOL   H22924857   0.018   4.766   4.154  0.8701  1.3259 -0.7862
   95MOL   H23024858   7.637   4.852   4.354 -3.0532 -0.9373  0.3613
   95MOL   H23124859   7.632   4.699   4.244  0.4704 -0.3052 -0.4859
   95MOL   H23224860   7.643   4.858   4.046 -0.2457 -1.2937  0.1660
   95MOL   H23324861   7.649   4.999   4.159  1.0453 -0.7028  3.0756
   95MOL   H23424862   0.240   5.038   4.269  2.8860 -0.0540 -2.4600
   95MOL   H23524863   0.262   4.886   4.214 -1.1594 -0.3410  0.0376
   95MOL   C23624864   0.164   5.018   4.072  0.7016 -0.2884 -0.0982
   95MOL   C23724865   0.298   5.036   3.999  0.0188  0.5207 -0.4154
   95MOL   C23824866   0.381   4.922   3.943  0.3441  0.5095 -0.0271
   95MOL   C23924867   0.298   5.017   3.850  0.0091 -0.0761  0.3086
   95MOL   C24024868   0.106   5.156   4.096 -0.3271 -0.0030  0.2486
   95MOL   H24124869   0.089   4.964   4.013 -0.4424  0.5907  0.5240
   95MOL   H24224870   0.356   5.122   4.034  0.1089  0.6978 -0.9946
   95MOL   H24324871   0.490   4.922   3.951  0.4985 -0.5032 -1.9205
   95MOL   H24424872   0.336   4.824   3.957  0.0754  0.9386  2.4233
   95MOL   H24524873   0.201   4.991   3.807 -0.5111 -0.6143  1.7889
   95MOL   H24624874   0.361   5.074   3.781  0.9506 -1.0944  0.3058
   95MOL   H24724875   0.030   5.154   4.174  0.8247  2.0000  1.4560
   95MOL   H24824876   0.190   5.215   4.131  0.6543  0.9970 -3.5002
   95MOL   C24924877   0.049   5.226   3.971 -0.4883  0.8409 -0.5008
   95MOL   C25024878   0.022   5.367   4.011 -0.2209  0.9563  0.0191
   95MOL   C25124879   0.140   5.457   4.026 -0.5224  0.0955  0.6471
   95MOL   C25224880   0.038   5.482   3.920 -0.2301 -0.1297  0.7274
   95MOL   C25324881   7.768   5.152   3.917  0.1943 -0.3918  0.0330
   95MOL   H25424882   0.124   5.214   3.893  0.6383 -2.1922  0.9714
   95MOL   H25524883   7.780   5.382   4.082 -1.2227 -0.7551 -0.7506
   95MOL   H25624884   0.135   5.521   4.113  0.4487  1.6192 -0.3935
   95MOL   H25724885   0.232   5.408   3.994 -0.1917  0.7870  0.5458
   95MOL   H25824886   7.800   5.558   3.928 -0.4285  0.3195 -4.0771
   95MOL   H25924887   0.071   5.466   3.817 -3.0815 -1.5356 -0.0422
   95MOL   H26024888   7.695   5.147   3.998  0.1185  0.3147  0.0151
   95MOL   H26124889   7.785   5.063   3.858  0.7636 -0.2490 -0.0184
   95MOL   H26224890   7.722   5.220   3.846  2.1002  1.4329  0.4733
   96MOL     C124891   5.325   4.696   2.384 -0.5178  0.3014  0.2020
   96MOL     C224892   5.476   4.715   2.378  0.2708 -0.1801  0.0149
   96MOL     C324893   5.566   4.613   2.312 -0.4132  0.8631 -0.0015
   96MOL     C424894   5.552   4.617   2.467  0.1250 -0.3387  0.7136
   96MOL     C524895   5.253   4.797   2.286 -0.0591 -0.7564  0.2805
   96MOL     H624896   5.296   4.594   2.355  1.7675 -0.4788  0.6068
   96MOL     H724897   5.511   4.818   2.373 -0.4798  0.0894  0.2904
   96MOL     H824898   5.508   4.536   2.260 -0.0653  1.6326 -1.5700
   96MOL     H924899   5.647   4.659   2.255 -0.2351  0.5950  0.0360
   96MOL    H1024900   5.632   4.661   2.527 -1.8344 -0.4792  3.5132
   96MOL    H1124901   5.517   4.517   2.491  2.2491 -1.4278 -0.5510
   96MOL    H1224902   5.279   4.771   2.183  0.1506 -1.8352  0.6005
   96MOL    H1324903   5.299   4.895   2.300  1.1491 -1.1767 -0.6504
   96MOL    H1424904   5.295   4.706   2.488 -1.2556 -0.0881  0.0335
   96MOL    C1524905   5.100   4.795   2.293  0.3574 -0.7980  0.5139
   96MOL    C1624906   5.039   4.657   2.271 -0.2274 -0.1875 -0.2511
   96MOL    C1724907   4.998   4.619   2.129  0.4496 -0.8859  0.7113
   96MOL    C1824908   4.896   4.657   2.232  0.4276  0.3400 -0.5149
   96MOL    C1924909   5.038   4.863   2.422 -0.3509  0.5337 -0.3012
   96MOL    H2024910   5.070   4.853   2.206  3.8894  1.9884  1.0250
   96MOL    H2124911   5.084   4.573   2.324 -0.8154 -0.8627 -0.8172
   96MOL    H2224912   4.989   4.518   2.091  2.6586 -0.2723 -1.6187
   96MOL    H2324913   5.010   4.700   2.057  2.6287  0.6334  2.6976
   96MOL    H2424914   4.851   4.755   2.218  1.4408  0.7885 -0.6420
   96MOL    H2524915   4.837   4.573   2.267  0.7761 -0.1299 -1.0529
   96MOL    H2624916   5.078   4.821   2.515 -0.8902 -0.0923 -0.3395
   96MOL    H2724917   4.932   4.834   2.427 -0.6475  1.7298  0.7602
   96MOL    C2824918   5.035   5.021   2.427 -0.5989 -0.5583 -0.3034
   96MOL    C2924919   5.069   5.069   2.566 -0.7758  0.0638 -0.2832
   96MOL    C3024920   5.214   5.067   2.609 -0.2883  0.3673 -0.1390
   96MOL    C3124921   5.132   5.197   2.608  0.0414  0.4967  0.1432
   96MOL    C3224922   4.903   5.091   2.369 -0.1312  0.1420  0.5568
   96MOL    H3324923   5.108   5.054   2.353 -1.9974  0.9578 -1.0384
   96MOL    H3424924   5.003   5.031   2.644  0.2040 -1.6603 -0.2719
   96MOL    H3524925   5.289   5.049   2.532  0.4613  0.7554  0.4861
   96MOL    H3624926   5.227   5.027   2.710 -1.5516  0.1409 -0.0642
   96MOL    H3724927   5.177   5.263   2.535 -1.5100 -0.9272 -2.1876
   96MOL    H3824928   5.100   5.236   2.704 -1.4911 -2.2693  0.8134
   96MOL    H3924929   4.819   5.055   2.429 -1.6610 -0.1887 -1.7398
   96MOL    H4024930   4.890   5.062   2.265 -0.0530  0.9449  0.3219
   96MOL    C4124931   4.905   5.246   2.363  0.1769  0.9963 -0.3405
   96MOL    C4224932   4.761   5.288   2.393 -0.2633  0.2610 -0.4264
   96MOL    C4324933   4.747   5.420   2.467 -0.1329  0.5141  0.7206
   96MOL    C4424934   4.700   5.284   2.529 -0.4488 -0.4175  0.4031
   96MOL    C4524935   4.966   5.311   2.231 -0.5994 -0.1724 -0.3117
   96MOL    H4624936   4.961   5.283   2.449 -0.5994  0.3360  0.4658
   96MOL    H4724937   4.693   5.252   2.316  1.3039 -0.5219 -1.4622
   96MOL    H4824938   4.836   5.463   2.512  0.7455  0.2735 -0.7290
   96MOL    H4924939   4.676   5.496   2.438  1.3144  0.9315 -1.9183
   96MOL    H5024940   4.593   5.262   2.525 -0.2623 -1.2631 -0.1387
   96MOL    H5124941   4.765   5.230   2.597 -1.4937 -3.0674 -0.6344
   96MOL    H5224942   4.885   5.293   2.161 -1.1073  0.1761  0.1764
   96MOL    H5324943   5.053   5.252   2.203  1.0179  1.3217  1.3295
   96MOL    C5424944   4.996   5.463   2.222  1.0459  0.2399 -1.5575
   96MOL    C5524945   5.109   5.495   2.323  0.2050 -0.0839  0.0329
   96MOL    C5624946   5.080   5.560   2.453  0.2790 -0.4422 -0.0329
   96MOL    C5724947   5.156   5.633   2.338  0.4722 -0.2730 -0.7687
   96MOL    C5824948   5.029   5.504   2.080 -0.6853  0.7303  0.5592
   96MOL    H5924949   4.914   5.528   2.255  1.7908  0.7499 -0.6825
   96MOL    H6024950   5.194   5.428   2.312  0.5561  0.5107 -0.9590
   96MOL    H6124951   4.983   5.602   2.477 -0.9568 -1.8221 -2.4723
   96MOL    H6224952   5.128   5.514   2.540  1.1500 -0.3423 -0.4593
   96MOL    H6324953   5.260   5.658   2.356  0.4964  0.3145 -1.6920
   96MOL    H6424954   5.106   5.708   2.277 -0.3114  0.3842  0.6736
   96MOL    H6524955   5.068   5.605   2.087  0.3118  0.3900  0.0082
   96MOL    H6624956   5.106   5.438   2.040 -1.1960  1.4525 -1.6743
   96MOL    C6724957   4.916   5.492   1.967  0.1939 -0.0305  0.3772
   96MOL    C6824958   4.802   5.588   1.991  0.4263 -0.7580 -0.3301
   96MOL    C6924959   4.672   5.583   1.909 -0.2935 -0.4394 -0.0343
   96MOL    C7024960   4.677   5.535   2.050 -0.2011 -0.0907  0.2008
   96MOL    C7124961   4.982   5.522   1.832 -0.2060 -0.6179 -0.2314
   96MOL    H7224962   4.878   5.390   1.966 -1.9492  0.7595 -1.3235
   96MOL    H7324963   4.837   5.688   2.017 -0.0203  0.0769 -2.8543
   96MOL    H7424964   4.608   5.670   1.897 -1.3934 -0.9928  1.6775
   96MOL    H7524965   4.648   5.500   1.842  1.6344 -1.3448  0.3642
   96MOL    H7624966   4.691   5.428   2.064  2.2283  0.3129  1.2051
   96MOL    H7724967   4.626   5.584   2.132  2.6799 -0.1741  2.1445
   96MOL    H7824968   5.006   5.629   1.831 -1.3876 -0.3439 -0.4984
   96MOL    H7924969   4.899   5.501   1.764 -1.0048  0.7387  0.2917
   96MOL    C8024970   5.099   5.438   1.780 -0.3219 -0.6087  0.7462
   96MOL    C8124971   5.147   5.510   1.651  0.3092  0.6748 -0.3430
   96MOL    C8224972   5.063   5.510   1.527  1.0613 -0.4431 -0.0058
   96MOL    C8324973   5.193   5.440   1.529 -0.1134 -0.4826 -0.2251
   96MOL    C8424974   5.059   5.283   1.763  0.4020 -0.1410  0.2483
   96MOL    H8524975   5.178   5.461   1.851  0.7903  0.1558 -0.7015
   96MOL    H8624976   5.222   5.588   1.663  2.2972 -1.1667 -0.5113
   96MOL    H8724977   5.062   5.594   1.457  0.4068 -0.0897  0.4178
   96MOL    H8824978   4.973   5.450   1.537  0.5124  0.6631  2.0055
   96MOL    H8924979   5.184   5.331   1.526  0.4067 -0.5046 -1.0607
   96MOL    H9024980   5.281   5.484   1.482 -0.2720 -1.1166 -1.1347
   96MOL    H9124981   5.003   5.255   1.852 -0.1106  0.9557  0.2738
   96MOL    H9224982   4.997   5.264   1.675 -1.4166 -0.7040  1.6309
   96MOL    C9324983   5.184   5.182   1.758  0.7734 -0.6679 -0.8296
   96MOL    C9424984   5.252   5.175   1.895  0.7735 -0.4247  0.0421
   96MOL    C9524985   5.395   5.139   1.900  0.2201 -0.1616 -0.5636
   96MOL    C9624986   5.357   5.277   1.943 -0.2173  0.2656 -0.2413
   96MOL    C9724987   5.141   5.039   1.706 -0.5351  0.5931 -0.4125
   96MOL    H9824988   5.264   5.218   1.694  1.1988 -0.8535 -0.4094
   96MOL    H9924989   5.189   5.143   1.977 -0.1506  2.2507  0.4109
   96MOL   H10024990   5.414   5.070   1.982 -2.0450 -3.1316 -2.4360
   96MOL   H10124991   5.446   5.121   1.806 -0.2180 -0.6404 -0.7141
   96MOL   H10224992   5.353   5.311   2.046  0.2430  1.6010 -0.6504
   96MOL   H10324993   5.410   5.345   1.876  0.9089 -0.6207 -0.2670
   96MOL   H10424994   5.110   5.054   1.603 -1.4007 -2.5942 -0.6449
   96MOL   H10524995   5.058   5.014   1.772  0.8364  2.0888  1.9381
   96MOL   C10624996   5.238   4.922   1.686 -0.0030  0.7513 -0.7125
   96MOL   C10724997   5.169   4.789   1.695 -0.0758 -0.1983 -0.4441
   96MOL   C10824998   5.235   4.664   1.752  0.6342 -0.4116 -0.4587
   96MOL   C10924999   5.120   4.734   1.828 -0.4789  1.0927  0.6997
   96MOL   C11025000   5.328   4.939   1.558 -0.0256  0.4384  0.0763
   96MOL   H11125001   5.305   4.933   1.772 -0.0168  1.3883 -0.7798
   96MOL   H11225002   5.114   4.767   1.604  2.3779 -2.6840 -1.4362
   96MOL   H11325003   5.209   4.561   1.729 -0.7876 -0.9287  3.1408
   96MOL   H11425004   5.329   4.676   1.805  0.4590  0.0388 -0.2489
   96MOL   H11525005   5.142   4.787   1.921  1.9861 -0.7646  1.2326
   96MOL   H11625006   5.020   4.693   1.833 -0.7122  1.6269  0.4477
   96MOL   H11725007   5.263   4.937   1.471  0.0963 -0.3225 -0.0077
   96MOL   H11825008   5.377   5.036   1.559  0.6978  0.0846 -0.3793
   96MOL   C11925009   5.437   4.836   1.530 -0.3828  0.1724 -0.3778
   96MOL   C12025010   5.499   4.866   1.393  0.2240  0.2824  0.3778
   96MOL   C12125011   5.416   4.861   1.267 -0.1509  0.2638 -0.1649
   96MOL   C12225012   5.519   4.750   1.302  0.0312  0.4667 -0.0461
   96MOL   C12325013   5.545   4.831   1.639 -0.4766  0.3000 -0.6673
   96MOL   H12425014   5.389   4.738   1.525 -1.3769  0.6803 -0.8404
   96MOL   H12525015   5.582   4.935   1.400  1.4579 -1.0687 -0.7159
   96MOL   H12625016   5.441   4.926   1.183 -0.3485  1.9816  1.0734
   96MOL   H12725017   5.311   4.838   1.282 -0.1007  0.0355 -0.1695
   96MOL   H12825018   5.472   4.656   1.329  2.2394 -0.1234  1.7999
   96MOL   H12925019   5.607   4.743   1.239  0.2810 -0.8430  0.4384
   96MOL   H13025020   5.607   4.920   1.630  0.7919 -0.3374  1.3473
   96MOL   H13125021   5.505   4.837   1.741  2.0249  2.9045  0.2126
   96MOL   C13225022   5.637   4.707   1.658 -0.3100 -0.8488  0.3276
   96MOL   C13325023   5.709   4.719   1.794 -0.1140 -0.7745 -0.5797
   96MOL   C13425024   5.750   4.618   1.894 -0.4110 -0.2147  0.8510
   96MOL   C13525025   5.633   4.705   1.923  0.0157 -0.3879  0.0127
   96MOL   C13625026   5.742   4.670   1.555 -0.6000 -0.3482 -0.2675
   96MOL   H13725027   5.564   4.626   1.663  3.0420 -3.9940  0.9545
   96MOL   H13825028   5.775   4.806   1.783  0.8963 -1.3514  0.7523
   96MOL   H13925029   5.721   4.516   1.870 -0.4095 -0.6306  2.5774
   96MOL   H14025030   5.821   4.639   1.973 -1.2163  0.1612  1.4767
   96MOL   H14125031   5.535   4.658   1.919 -0.7197  1.1431 -0.5326
   96MOL   H14225032   5.651   4.790   1.989 -0.7848  0.0632 -0.3410
   96MOL   H14325033   5.708   4.692   1.453 -1.0603 -2.3822 -0.5686
   96MOL   H14425034   5.826   4.740   1.563 -0.5401 -0.5281  0.7108
   96MOL   C14525035   5.790   4.522   1.555  0.5133  0.2497 -0.6023
   96MOL   C14625036   5.670   4.429   1.533 -0.0353  0.1659  0.7792
   96MOL   C14725037   5.677   4.276   1.554  0.2258 -0.4525 -0.1284
   96MOL   C14825038   5.585   4.362   1.639  0.9522  0.0373 -0.6063
   96MOL   C14925039   5.898   4.500   1.448  0.1482 -0.1093  0.2262
   96MOL   H15025040   5.835   4.498   1.651 -3.5801 -2.3680  0.7707
   96MOL   H15125041   5.606   4.463   1.452  0.5076 -0.3029  0.1483
   96MOL   H15225042   5.637   4.226   1.466 -1.6246  1.0883 -0.1918
   96MOL   H15325043   5.764   4.230   1.599  1.7804  0.4522 -2.1014
   96MOL   H15425044   5.618   4.360   1.743 -2.2932 -1.0930  0.4681
   96MOL   H15525045   5.479   4.347   1.620  0.9759  1.0163 -1.5586
   96MOL   H15625046   5.870   4.412   1.390  0.5091 -1.0215  1.4325
   96MOL   H15725047   5.910   4.581   1.375  2.6836  0.6648  1.4666
   96MOL   C15825048   6.035   4.463   1.507 -0.4558  0.0374 -0.0869
   96MOL   C15925049   6.099   4.580   1.576 -0.4011  0.4318 -0.2065
   96MOL   C16025050   6.094   4.593   1.724 -0.2555  0.0751 -0.1296
   96MOL   C16125051   6.231   4.567   1.651  0.7133  0.1347  0.4835
   96MOL   C16225052   6.132   4.415   1.391  0.1011 -0.2982 -0.2255
   96MOL   H16325053   6.023   4.385   1.582  0.3398 -0.9059 -0.9306
   96MOL   H16425054   6.086   4.673   1.521 -3.2217  0.4374  0.3979
   96MOL   H16525055   6.049   4.507   1.774 -0.7692 -0.5772 -1.6720
   96MOL   H16625056   6.063   4.691   1.759 -2.6073 -1.3059  1.8543
   96MOL   H16725057   6.302   4.650   1.656 -0.4473  1.1095  1.4785
   96MOL   H16825058   6.272   4.467   1.661  2.7549  1.0489  1.6347
   96MOL   H16925059   6.237   4.429   1.416 -0.0860  0.7950 -0.0296
   96MOL   H17025060   6.129   4.488   1.311  0.4242  2.1313  1.9197
   96MOL   C17125061   6.099   4.280   1.325  0.7336 -0.4008 -0.4633
   96MOL   C17225062   6.160   4.279   1.184 -0.1103 -0.1528 -0.4511
   96MOL   C17325063   6.105   4.193   1.075 -0.2802  0.1170  0.1138
   96MOL   C17425064   6.074   4.347   1.079  0.2789 -0.1109 -0.0253
   96MOL   C17525065   6.134   4.163   1.418  0.2439  0.4212 -0.4383
   96MOL   H17625066   5.991   4.269   1.316  0.2790  0.9737  2.6553
   96MOL   H17725067   6.265   4.309   1.188 -0.1595 -0.0130 -0.1155
   96MOL   H17825068   6.159   4.167   0.985 -1.0987  0.4424 -0.4735
   96MOL   H17925069   6.029   4.115   1.082 -1.5689  1.1196 -2.2808
   96MOL   H18025070   5.966   4.359   1.069 -0.2122 -4.5350 -1.1361
   96MOL   H18125071   6.132   4.403   1.007 -1.0635  1.2981 -0.0332
   96MOL   H18225072   6.073   4.084   1.373  1.4790 -0.0032 -1.4141
   96MOL   H18325073   6.096   4.172   1.519 -0.9792  2.2407 -1.0442
   96MOL   C18425074   6.279   4.107   1.428  0.7263  0.7716  0.5338
   96MOL   C18525075   6.305   3.957   1.399  0.4038  0.1600  0.1075
   96MOL   C18625076   6.207   3.872   1.315  0.4449 -0.2042 -0.3920
   96MOL   C18725077   6.213   3.849   1.467 -0.7880 -0.1467  0.8882
   96MOL   C18825078   6.363   4.154   1.543 -0.6275 -0.3145 -0.1269
   96MOL   H18925079   6.328   4.141   1.337  0.4539 -1.4928 -0.4853
   96MOL   H19025080   6.410   3.933   1.383  0.7001 -1.2335  3.7165
   96MOL   H19125081   6.257   3.811   1.240  1.1863 -1.9067  1.4336
   96MOL   H19225082   6.116   3.915   1.273  0.2235  0.4011  0.6834
   96MOL   H19325083   6.262   3.762   1.511  2.6935  0.9612 -0.7118
   96MOL   H19425084   6.129   3.882   1.528 -1.1461 -0.1396  0.3964
   96MOL   H19525085   6.341   4.105   1.637 -0.0930  0.9862  0.6864
   96MOL   H19625086   6.321   4.251   1.569 -0.0354  0.5229 -2.1614
   96MOL   C19725087   6.515   4.169   1.522  0.2314 -0.9923 -0.5537
   96MOL   C19825088   6.592   4.169   1.658  0.2779 -0.0384  0.1792
   96MOL   C19925089   6.724   4.092   1.681 -0.3670 -0.6722  0.1894
   96MOL   C20025090   6.597   4.046   1.737 -0.0410  0.5348  0.2880
   96MOL   C20125091   6.555   4.292   1.438  0.4744  0.3156 -0.0021
   96MOL   H20225092   6.547   4.079   1.469 -0.6208 -0.1068 -2.6358
   96MOL   H20325093   6.580   4.258   1.718 -1.1616  1.3768 -2.1231
   96MOL   H20425094   6.767   4.044   1.594  0.0683 -0.0550  0.0623
   96MOL   H20525095   6.791   4.121   1.761  1.0528  0.6394 -1.4547
   96MOL   H20625096   6.564   3.954   1.690  2.3916  0.4813 -1.4381
   96MOL   H20725097   6.575   4.061   1.842  2.8258  0.8795  0.8867
   96MOL   H20825098   6.465   4.317   1.382 -0.0975 -1.9756 -0.1666
   96MOL   H20925099   6.562   4.382   1.498 -0.6691  0.1627  0.3601
   96MOL   C21025100   6.684   4.283   1.351 -0.6018  0.0111 -0.0696
   96MOL   C21125101   6.655   4.357   1.226  0.4093 -0.2836  1.1861
   96MOL   C21225102   6.689   4.298   1.092  0.0017  0.1230  0.2555
   96MOL   C21325103   6.547   4.317   1.130 -0.4113 -0.1203 -0.2181
   96MOL   C21425104   6.806   4.337   1.429  0.4617  0.0215 -0.1150
   96MOL   H21525105   6.697   4.180   1.318 -0.7730  0.4656 -1.5609
   96MOL   H21625106   6.659   4.465   1.239  0.5393  0.0780 -1.7250
   96MOL   H21725107   6.731   4.359   1.012  0.8432  0.2972  0.8173
   96MOL   H21825108   6.718   4.194   1.105 -1.3377 -0.4445 -1.1911
   96MOL   H21925109   6.491   4.388   1.070 -2.1680 -1.9348 -0.7568
   96MOL   H22025110   6.486   4.228   1.140 -0.1472 -0.1364  1.2606
   96MOL   H22125111   6.786   4.442   1.452  2.6108  0.5134 -0.3865
   96MOL   H22225112   6.808   4.289   1.526 -1.3715  0.9466  0.4060
   96MOL   C22325113   6.939   4.323   1.364 -0.5198 -0.0008 -0.3873
   96MOL   C22425114   6.996   4.185   1.369  0.0803 -0.9061 -0.5388
   96MOL   C22525115   6.981   4.102   1.251 -0.0152  0.5843  0.7495
   96MOL   C22625116   7.121   4.132   1.302 -0.1722 -0.4002  1.2538
   96MOL   C22725117   7.039   4.424   1.416 -0.7036 -0.8660  0.8763
   96MOL   H22825118   6.906   4.333   1.260 -0.5142  3.7708 -0.1029
   96MOL   H22925119   6.961   4.136   1.459  0.5589  1.2069  0.8391
   96MOL   H23025120   6.950   4.151   1.159 -1.2093  1.9216  1.8438
   96MOL   H23125121   6.933   4.007   1.273  0.0887  0.3634  0.0244
   96MOL   H23225122   7.170   4.055   1.360 -0.6622 -1.6347  0.0718
   96MOL   H23325123   7.182   4.206   1.249  1.3845 -1.0487  2.0980
   96MOL   H23425124   7.030   4.441   1.523  2.8214  1.0108  0.9565
   96MOL   H23525125   7.141   4.396   1.391 -0.8840 -1.5494  0.8905
   96MOL   C23625126   7.018   4.564   1.356 -0.4468  0.5734 -0.1013
   96MOL   C23725127   7.060   4.568   1.208 -0.2219  0.3298 -0.4694
   96MOL   C23825128   6.961   4.541   1.093 -0.3506 -0.0356 -0.1060
   96MOL   C23925129   7.012   4.677   1.119 -0.3101  0.0556 -0.1355
   96MOL   C24025130   7.091   4.676   1.444  0.8089 -0.0753  0.0137
   96MOL   H24125131   6.912   4.589   1.349 -0.5436  0.1951 -0.0122
   96MOL   H24225132   7.159   4.523   1.204  1.0893  2.7397  2.5881
   96MOL   H24325133   6.992   4.478   1.009  1.3052  0.2723  0.2651
   96MOL   H24425134   6.860   4.512   1.121 -0.4495 -2.8553 -3.0533
   96MOL   H24525135   6.947   4.752   1.165 -0.6587 -0.9427  1.0001
   96MOL   H24625136   7.091   4.726   1.062 -0.3335  0.4993  0.2077
   96MOL   H24725137   7.191   4.632   1.454 -0.0327 -1.6250  2.1194
   96MOL   H24825138   7.112   4.764   1.383  3.6846 -2.2020 -2.2394
   96MOL   C24925139   7.033   4.719   1.583 -0.6385  0.3460  0.4129
   96MOL   C25025140   6.884   4.755   1.582  0.7352  0.3449 -0.2121
   96MOL   C25125141   6.764   4.656   1.602 -0.1685 -0.4595  0.9393
   96MOL   C25225142   6.794   4.767   1.702 -0.2255  0.5080 -0.8097
   96MOL   C25325143   7.115   4.834   1.642  0.1115 -0.1400  0.3945
   96MOL   H25425144   7.052   4.633   1.648  1.9850  0.2974 -0.3642
   96MOL   H25525145   6.868   4.841   1.517  0.6710  0.5005  0.0091
   96MOL   H25625146   6.686   4.656   1.526  1.1785 -0.6426 -0.4603
   96MOL   H25725147   6.762   4.563   1.659 -2.0461 -0.5004  0.8420
   96MOL   H25825148   6.714   4.840   1.715  0.6943  1.1435  1.4971
   96MOL   H25925149   6.852   4.736   1.789  0.3524 -1.0331 -1.7332
   96MOL   H26025150   7.103   4.821   1.750 -1.0174  0.4928  0.3534
   96MOL   H26125151   7.077   4.931   1.612  2.3274  0.5626 -0.2417
   96MOL   H26225152   7.222   4.820   1.626  0.3076  0.5858  1.0822
   97MOL     C125153   6.044   4.495   4.190 -0.2598 -0.2229 -0.4432
   97MOL     C225154   6.169   4.574   4.154  0.4236 -0.2735 -0.0158
   97MOL     C325155   6.182   4.724   4.187  0.2250  0.1861  0.1126
   97MOL     C425156   6.177   4.679   4.040  0.4709 -0.2156 -0.5718
   97MOL     C525157   5.912   4.557   4.132 -0.5547  0.3301  0.1294
   97MOL     H625158   6.056   4.397   4.144 -2.6677 -0.5814 -0.3688
   97MOL     H725159   6.264   4.522   4.167  1.2052  1.4760  1.3921
   97MOL     H825160   6.097   4.769   4.236  0.1954  0.3591 -0.0986
   97MOL     H925161   6.278   4.756   4.228  0.3033  0.6410 -0.4268
   97MOL    H1025162   6.268   4.677   3.980 -1.0874 -1.5060 -2.9742
   97MOL    H1125163   6.085   4.698   3.986  0.4346 -2.9124 -1.5294
   97MOL    H1225164   5.930   4.571   4.026  1.8230  1.2333  0.6165
   97MOL    H1325165   5.882   4.652   4.177 -0.1882  0.0100  1.0756
   97MOL    H1425166   6.039   4.468   4.295 -1.1237 -0.3995 -0.5256
   97MOL    C1525167   5.790   4.459   4.149  0.1071  0.3476  0.5293
   97MOL    C1625168   5.741   4.445   4.296 -0.0867 -0.0036  1.3431
   97MOL    C1725169   5.816   4.346   4.380  0.3077 -0.4791  1.2283
   97MOL    C1825170   5.667   4.328   4.327  0.2248 -0.1728  1.0056
   97MOL    C1925171   5.670   4.498   4.053 -0.6751 -0.3609 -0.5052
   97MOL    H2025172   5.824   4.362   4.113  0.3767 -0.3908  2.7415
   97MOL    H2125173   5.728   4.542   4.344 -0.8526  0.7025 -0.2430
   97MOL    H2225174   5.816   4.352   4.488  0.7667 -0.6104  1.2347
   97MOL    H2325175   5.869   4.258   4.345 -1.8868 -0.5297 -2.2541
   97MOL    H2425176   5.644   4.267   4.239 -0.7805 -1.2494  1.9995
   97MOL    H2525177   5.590   4.335   4.403  0.5814  0.4166  1.3150
   97MOL    H2625178   5.630   4.595   4.083  0.4651 -0.3021  0.8663
   97MOL    H2725179   5.589   4.431   4.083  0.0211  0.3803  3.1595
   97MOL    C2825180   5.693   4.494   3.899 -0.7010 -0.0089 -0.0953
   97MOL    C2925181   5.581   4.562   3.829 -0.9531  0.3174  0.4427
   97MOL    C3025182   5.567   4.709   3.822  0.3769  0.1259  0.1114
   97MOL    C3125183   5.590   4.633   3.693 -0.0829 -0.7890 -0.0556
   97MOL    C3225184   5.724   4.356   3.837  0.4789 -0.2916  0.5234
   97MOL    H3325185   5.776   4.561   3.877  0.1282 -0.7660  0.6837
   97MOL    H3425186   5.486   4.510   3.842  0.1806 -1.8869  0.0907
   97MOL    H3525187   5.653   4.770   3.852 -0.6135  0.8535  1.5279
   97MOL    H3625188   5.473   4.761   3.839 -0.1069 -0.5538 -0.5197
   97MOL    H3725189   5.689   4.645   3.649 -0.6057  0.6801 -0.8232
   97MOL    H3825190   5.505   4.603   3.632 -2.7954  1.0149  2.6874
   97MOL    H3925191   5.635   4.315   3.790  0.3591 -3.0245  3.0488
   97MOL    H4025192   5.756   4.288   3.916  0.5942 -0.3642  0.4164
   97MOL    C4125193   5.843   4.343   3.723  0.9478  0.5045  0.8629
   97MOL    C4225194   5.812   4.218   3.631 -0.8984 -0.0704  0.2192
   97MOL    C4325195   5.867   4.218   3.493  0.6795 -0.2229  0.7108
   97MOL    C4425196   5.721   4.222   3.511 -0.2515  0.0467  0.6572
   97MOL    C4525197   5.984   4.332   3.778  0.0300  0.2350 -0.3232
   97MOL    H4625198   5.823   4.427   3.657 -1.7590 -1.0274 -0.3413
   97MOL    H4725199   5.837   4.122   3.676 -3.1850 -1.4355 -1.3098
   97MOL    H4825200   5.922   4.305   3.456  0.5714 -0.4248  0.0863
   97MOL    H4925201   5.912   4.124   3.463 -1.4763 -0.7160 -1.0486
   97MOL    H5025202   5.673   4.128   3.484 -1.4211  0.7357  0.3177
   97MOL    H5125203   5.663   4.311   3.486  0.4319  0.2500 -0.2328
   97MOL    H5225204   6.015   4.229   3.758  1.1088  0.5212 -0.1158
   97MOL    H5325205   5.981   4.353   3.885  2.0092 -2.3268  0.2869
   97MOL    C5425206   6.093   4.413   3.708  1.1085 -0.5935 -0.2314
   97MOL    C5525207   6.066   4.563   3.689  0.1640 -0.4487  0.7614
   97MOL    C5625208   5.983   4.619   3.572  0.0304  0.1956 -0.3608
   97MOL    C5725209   6.133   4.633   3.577 -0.5436  0.3056  0.2078
   97MOL    C5825210   6.229   4.397   3.782  0.6856 -0.8391  0.3609
   97MOL    H5925211   6.114   4.370   3.609  0.5130  2.3759 -1.6972
   97MOL    H6025212   6.057   4.617   3.783 -1.0930  2.1521 -0.7969
   97MOL    H6125213   5.938   4.549   3.503 -1.2797  0.4148  0.2559
   97MOL    H6225214   5.915   4.696   3.608 -1.0533 -0.1852 -1.5704
   97MOL    H6325215   6.164   4.737   3.586  2.3910 -0.5638  0.3944
   97MOL    H6425216   6.192   4.579   3.503 -0.6089 -0.6052  0.8050
   97MOL    H6525217   6.308   4.457   3.737  1.2201 -2.1182 -0.4099
   97MOL    H6625218   6.207   4.447   3.877  1.5297 -0.6625  0.4685
   97MOL    C6725219   6.293   4.261   3.800 -0.3061 -0.5455  0.1130
   97MOL    C6825220   6.337   4.212   3.666 -1.0243 -0.0045  0.1839
   97MOL    C6925221   6.351   4.067   3.633 -0.0635  0.1648 -0.6948
   97MOL    C7025222   6.241   4.148   3.570 -0.1168  0.1154 -0.2393
   97MOL    C7125223   6.405   4.283   3.910  0.8450 -0.3382  0.0744
   97MOL    H7225224   6.225   4.190   3.849 -1.6342 -1.1691 -2.5361
   97MOL    H7325225   6.412   4.278   3.624 -0.6422  0.7281  1.9630
   97MOL    H7425226   6.432   4.033   3.569 -0.9581 -1.7144 -0.8338
   97MOL    H7525227   6.334   4.006   3.721  3.3003 -0.7999 -0.6177
   97MOL    H7625228   6.144   4.112   3.604 -0.0962  0.7308  0.4950
   97MOL    H7725229   6.241   4.166   3.463 -0.5928  1.8065  0.0286
   97MOL    H7825230   6.374   4.354   3.987  0.8841 -1.6947  1.3753
   97MOL    H7925231   6.496   4.324   3.866  1.4179 -0.1403  1.3927
   97MOL    C8025232   6.444   4.149   3.978  0.0517 -0.3180 -0.5028
   97MOL    C8125233   6.398   4.148   4.122 -0.4140  0.1464 -0.2222
   97MOL    C8225234   6.325   4.025   4.180 -0.5774 -0.0221  0.3875
   97MOL    C8325235   6.248   4.153   4.147  0.5322 -0.4774  0.2040
   97MOL    C8425236   6.598   4.124   3.965 -0.5447  0.1935 -0.7493
   97MOL    H8525237   6.407   4.065   3.920 -1.2364  0.2433 -0.5064
   97MOL    H8625238   6.455   4.219   4.181 -0.0924  1.3850 -1.9799
   97MOL    H8725239   6.348   4.000   4.284 -1.5171 -0.1952  0.5597
   97MOL    H8825240   6.300   3.946   4.109  1.0569 -3.0705  3.0438
   97MOL    H8925241   6.186   4.160   4.058  2.5164 -1.2641 -1.2929
   97MOL    H9025242   6.221   4.206   4.238  1.4831 -0.1290  0.2977
   97MOL    H9125243   6.609   4.139   3.858 -2.1029 -0.8981 -1.0894
   97MOL    H9225244   6.649   4.208   4.013  1.5954  0.3138 -3.1589
   97MOL    C9325245   6.644   3.982   4.013  0.1693 -0.2255  0.1490
   97MOL    C9425246   6.615   3.874   3.911 -0.5094 -0.3195 -0.3109
   97MOL    C9525247   6.610   3.725   3.945 -0.1488 -0.1805 -0.1691
   97MOL    C9625248   6.486   3.800   3.901  0.0964  0.5424 -0.1589
   97MOL    C9725249   6.790   3.979   4.071 -0.4444  0.4323 -0.1242
   97MOL    H9825250   6.577   3.963   4.097 -1.3525  1.8890 -0.5290
   97MOL    H9925251   6.645   3.899   3.809 -0.5106 -1.1168 -0.5102
   97MOL   H10025252   6.659   3.661   3.872 -2.3648  0.3079 -2.1079
   97MOL   H10125253   6.607   3.699   4.051 -0.4733 -1.0239 -0.3841
   97MOL   H10225254   6.440   3.773   3.807  0.1498 -1.8625  0.4623
   97MOL   H10325255   6.411   3.816   3.978  1.1689  0.3035  0.9492
   97MOL   H10425256   6.824   3.882   4.106 -1.1861  0.4501  0.6575
   97MOL   H10525257   6.787   4.025   4.170 -0.9128 -2.2015  1.1254
   97MOL   C10625258   6.893   4.056   3.976 -0.1228  0.3778 -0.3812
   97MOL   C10725259   7.007   4.082   4.072 -0.4393 -0.3739 -0.1031
   97MOL   C10825260   7.096   4.209   4.078 -0.0360  0.6840  0.2317
   97MOL   C10925261   6.989   4.186   4.182  0.0382 -0.0894  0.0995
   97MOL   C11025262   6.937   3.982   3.844 -0.0958  0.8109  0.5188
   97MOL   H11125263   6.859   4.159   3.962  2.0274  0.9322 -1.7275
   97MOL   H11225264   7.062   3.994   4.103  1.9389  1.3276  0.6522
   97MOL   H11325265   7.202   4.192   4.094  0.3105  2.0436 -0.4919
   97MOL   H11425266   7.069   4.298   4.021 -1.1277  0.6188  0.6400
   97MOL   H11525267   6.904   4.254   4.175 -1.3064 -1.7644 -0.0871
   97MOL   H11625268   7.017   4.172   4.286  0.8720  0.2039 -0.0780
   97MOL   H11725269   6.991   3.893   3.878  0.8968  1.1955 -0.0177
   97MOL   H11825270   6.850   3.945   3.790  0.3999  0.8829 -0.3351
   97MOL   C11925271   7.037   4.064   3.759 -0.0168 -0.0995 -0.9170
   97MOL   C12025272   7.161   3.983   3.708  0.2346  0.3510 -0.0029
   97MOL   C12125273   7.274   3.949   3.807 -0.2803  0.1452  0.0059
   97MOL   C12225274   7.298   4.042   3.689 -0.1571  0.1646  0.3995
   97MOL   C12325275   6.970   4.132   3.635  0.1472 -0.3971  0.4069
   97MOL   H12425276   7.070   4.147   3.821 -3.2168  1.2738 -0.9494
   97MOL   H12525277   7.135   3.892   3.654  0.2032  0.9807 -1.0716
   97MOL   H12625278   7.333   3.857   3.808  1.2163  1.0850  1.8121
   97MOL   H12725279   7.279   4.002   3.902  1.3058  2.8077 -1.5105
   97MOL   H12825280   7.301   4.147   3.716 -1.6548 -0.0579  1.5206
   97MOL   H12925281   7.334   4.007   3.592 -0.7047 -0.5449  0.4437
   97MOL   H13025282   7.046   4.192   3.584  0.6099 -1.5464 -0.2882
   97MOL   H13125283   6.944   4.054   3.563 -1.5462  0.4384  0.0982
   97MOL   C13225284   6.849   4.226   3.668  0.6658 -0.9526 -0.3249
   97MOL   C13325285   6.751   4.261   3.555 -0.0976 -0.1689 -0.5235
   97MOL   C13425286   6.708   4.152   3.464 -0.0614  0.2679  0.2198
   97MOL   C13525287   6.792   4.274   3.411  0.3496 -0.2894 -0.7764
   97MOL   C13625288   6.881   4.357   3.743 -0.1282 -0.5389 -0.5363
   97MOL   H13725289   6.780   4.182   3.740  0.0348 -0.5862 -0.7126
   97MOL   H13825290   6.691   4.350   3.566  2.4804  1.2190  3.3054
   97MOL   H13925291   6.744   4.052   3.487  0.3370  0.1449 -0.9318
   97MOL   H14025292   6.606   4.156   3.426  0.5534 -0.0985 -1.5115
   97MOL   H14125293   6.898   4.263   3.390  0.3545 -0.7340 -0.5226
   97MOL   H14225294   6.736   4.337   3.342  2.2742 -0.2451 -2.3383
   97MOL   H14325295   6.784   4.394   3.777 -0.9817 -0.7509 -2.6834
   97MOL   H14425296   6.931   4.325   3.834 -2.0850 -0.4329  0.5973
   97MOL   C14525297   6.961   4.474   3.678  0.1764  0.4244  0.2497
   97MOL   C14625298   6.907   4.611   3.722 -0.2711  0.2092  0.3372
   97MOL   C14725299   6.911   4.727   3.626  0.4399  0.3383  0.6417
   97MOL   C14825300   6.782   4.671   3.676 -0.1639 -0.3092  0.4169
   97MOL   C14925301   7.112   4.458   3.705 -0.3489  0.1873  0.7528
   97MOL   H15025302   6.948   4.471   3.570  1.1890 -2.4541  0.1421
   97MOL   H15125303   6.925   4.633   3.827  0.9809  0.8530  0.0007
   97MOL   H15225304   6.954   4.819   3.665  0.5237 -0.0938  1.5843
   97MOL   H15325305   6.929   4.699   3.523  1.1977  0.1589  0.8242
   97MOL   H15425306   6.733   4.620   3.593 -0.7085 -1.5233  1.4660
   97MOL   H15525307   6.720   4.730   3.742  1.0208 -0.3541  1.5933
   97MOL   H15625308   7.137   4.476   3.809  4.2582  1.1748 -0.3771
   97MOL   H15725309   7.139   4.355   3.682  1.9335  1.0099 -0.3961
   97MOL   C15825310   7.219   4.544   3.622  0.1330 -0.2576 -0.4969
   97MOL   C15925311   7.230   4.493   3.477  0.3396 -0.3447 -0.2458
   97MOL   C16025312   7.200   4.598   3.376 -0.6971  0.4376  0.0901
   97MOL   C16125313   7.337   4.539   3.378  0.3117 -0.2109 -0.4023
   97MOL   C16225314   7.360   4.537   3.689 -0.4055  0.0483 -0.0432
   97MOL   H16325315   7.196   4.651   3.622  3.0259  0.4080 -0.6494
   97MOL   H16425316   7.183   4.398   3.455 -0.2580 -0.7550  2.6974
   97MOL   H16525317   7.197   4.705   3.393  0.6039  0.7790 -1.6671
   97MOL   H16625318   7.150   4.575   3.282 -0.1237  3.2389 -0.9234
   97MOL   H16725319   7.359   4.484   3.286 -0.7607 -1.9387  0.3528
   97MOL   H16825320   7.414   4.611   3.406 -1.2280  1.1765  0.3535
   97MOL   H16925321   7.442   4.535   3.617 -1.4068  2.3193 -1.3086
   97MOL   H17025322   7.364   4.434   3.726 -0.1703 -0.6139 -1.8486
   97MOL   C17125323   7.390   4.642   3.797  0.0978 -0.9378 -0.4709
   97MOL   C17225324   7.292   4.650   3.916 -0.7569  0.1729  0.3218
   97MOL   C17325325   7.299   4.781   3.987  0.4787  0.2833  0.7021
   97MOL   C17425326   7.167   4.738   3.921 -0.2127  0.2269 -0.4726
   97MOL   C17525327   7.537   4.628   3.847 -0.1245  0.0935 -0.1480
   97MOL   H17625328   7.396   4.737   3.745  0.5496  1.0287  3.0006
   97MOL   H17725329   7.288   4.557   3.973  3.8734 -0.0144  0.5437
   97MOL   H17825330   7.309   4.778   4.095  0.5423  2.4608  0.7677
   97MOL   H17925331   7.365   4.862   3.958 -1.4656  0.8426 -2.4147
   97MOL   H18025332   7.137   4.793   3.831  2.0239  2.0436 -0.1485
   97MOL   H18125333   7.088   4.720   3.993  1.8684  1.3366  2.1838
   97MOL   H18225334   7.547   4.520   3.862  1.3074  0.0818 -1.1315
   97MOL   H18325335   7.534   4.677   3.944 -1.4818 -1.2777  0.5282
   97MOL   C18425336   7.652   4.669   3.749 -0.6541 -0.8882  0.0567
   97MOL   C18525337   7.771   4.653   3.835  0.3719  0.8010 -0.3758
   97MOL   C18625338   0.068   4.634   3.767 -0.6335  0.0944  0.5350
   97MOL   C18725339   7.832   4.519   3.838  0.3259 -0.4310 -0.0598
   97MOL   C18825340   7.642   4.817   3.700  0.5403  0.0145 -0.2993
   97MOL   H18925341   7.665   4.607   3.660 -3.3103  1.1133 -1.8228
   97MOL   H19025342   7.778   4.720   3.920  1.7657  1.0309 -0.6597
   97MOL   H19125343   0.146   4.691   3.818  1.2356 -0.2913 -1.8269
   97MOL   H19225344   0.079   4.640   3.659 -2.9202 -0.5226  0.2484
   97MOL   H19325345   0.036   4.484   3.932 -0.7334  1.6884  1.2735
   97MOL   H19425346   7.792   4.452   3.763 -0.7877  0.4379 -0.2626
   97MOL   H19525347   7.732   4.876   3.722  0.0672  1.0986 -1.2177
   97MOL   H19625348   7.560   4.869   3.750 -0.4280  0.3669 -2.2240
   97MOL   C19725349   7.625   4.841   3.546  0.8788 -0.1863 -0.5434
   97MOL   C19825350   7.751   4.800   3.473  0.3282  0.7656  0.1957
   97MOL   C19925351   7.768   4.784   3.324  0.7780  0.3309  0.7228
   97MOL   C20025352   7.767   4.662   3.409 -0.0866  0.0267  0.1513
   97MOL   C20125353   7.592   4.988   3.501  0.7728  0.1594  0.5802
   97MOL   H20225354   7.549   4.771   3.511  0.4986 -0.9269  1.6609
   97MOL   H20325355   0.002   4.837   3.522  0.9476 -1.2955  0.6495
   97MOL   H20425356   7.677   4.804   3.268  0.0339 -0.9270  1.4839
   97MOL   H20525357   0.020   4.821   3.277  1.4441 -2.4720 -0.2483
   97MOL   H20625358   7.686   4.595   3.382 -0.9784  0.6510  1.2323
   97MOL   H20725359   0.023   4.610   3.413 -0.9486 -1.7265 -1.3043
   97MOL   H20825360   7.673   5.049   3.540  0.2807  0.3524  1.3055
   97MOL   H20925361   7.599   4.986   3.392  0.5898  0.8453  0.5530
   97MOL   C21025362   7.458   5.053   3.531  0.3690 -0.3863  0.1749
   97MOL   C21125363   7.333   4.983   3.482 -0.0656  0.6861 -0.6053
   97MOL   C21225364   7.206   5.052   3.435 -0.3112  0.9349 -0.3801
   97MOL   C21325365   7.309   4.990   3.337  0.2286  0.0350 -0.2550
   97MOL   C21425366   7.447   5.098   3.684 -0.2312  0.2966  0.1267
   97MOL   H21525367   7.469   5.140   3.466 -0.3788 -0.6196 -0.2660
   97MOL   H21625368   7.314   4.883   3.519  0.9862  0.5531 -0.4038
   97MOL   H21725369   7.112   5.007   3.467 -0.0328  1.5155  1.2699
   97MOL   H21825370   7.199   5.159   3.413  0.6928  1.3643  1.3328
   97MOL   H21925371   7.282   4.896   3.289  1.0182  0.5643 -1.7484
   97MOL   H22025372   7.372   5.057   3.280 -0.3063  1.1098  0.4098
   97MOL   H22125373   7.403   5.008   3.727 -2.0739  0.9476 -0.3152
   97MOL   H22225374   7.546   5.110   3.729 -0.3111  1.7289 -0.0477
   97MOL   C22325375   7.370   5.228   3.711 -0.6167  0.6698 -0.3496
   97MOL   C22425376   7.428   5.337   3.622 -0.5777  0.3302 -0.3376
   97MOL   C22525377   7.364   5.387   3.496  0.0722 -0.1851 -0.3759
   97MOL   C22625378   7.361   5.479   3.623 -0.2059  0.3503  0.1755
   97MOL   C22725379   7.369   5.274   3.857 -0.1110 -1.0386 -0.3304
   97MOL   H22825380   7.273   5.192   3.675 -0.3594 -1.1491  0.7096
   97MOL   H22925381   7.536   5.351   3.620 -0.7879  2.3377  0.7234
   97MOL   H23025382   7.264   5.353   3.471 -0.0032 -0.8990  0.8571
   97MOL   H23125383   7.424   5.424   3.413  0.0803  0.8785  0.0972
   97MOL   H23225384   7.413   5.574   3.614 -0.6755  0.4723 -1.6427
   97MOL   H23325385   7.266   5.487   3.673 -0.2305 -0.1854  0.2130
   97MOL   H23425386   7.472   5.281   3.892 -0.8300 -1.5500  1.9523
   97MOL   H23525387   7.349   5.381   3.858 -0.8411 -1.1295  3.5606
   97MOL   C23625388   7.285   5.191   3.953  0.6856  0.2181  0.4094
   97MOL   C23725389   7.136   5.197   3.917 -0.1874 -0.5844 -0.0219
   97MOL   C23825390   7.071   5.107   3.816  0.1681  0.1404  0.2890
   97MOL   C23925391   7.043   5.091   3.963 -0.7255  0.4551 -0.5536
   97MOL   C24025392   7.310   5.257   4.099  0.1378  0.3081 -0.3692
   97MOL   H24125393   7.308   5.084   3.948 -1.6112 -0.1893 -2.4177
   97MOL   H24225394   7.091   5.296   3.928  1.0305  0.0206 -0.4090
   97MOL   H24325395   6.994   5.134   3.744 -2.2735 -1.3393  2.2888
   97MOL   H24425396   7.138   5.039   3.763  0.2051 -0.0903  0.6306
   97MOL   H24525397   7.078   4.997   4.005  0.2118  1.5962  1.3125
   97MOL   H24625398   6.946   5.126   3.997 -0.6100 -0.0524  0.3229
   97MOL   H24725399   7.417   5.257   4.117  0.3485 -2.6969 -1.2443
   97MOL   H24825400   7.271   5.358   4.086  0.2550  0.0062 -3.4338
   97MOL   C24925401   7.224   5.196   4.218  0.5402 -0.5870  0.0652
   97MOL   C25025402   7.223   5.280   4.344  0.5738 -0.5872 -0.5167
   97MOL   C25125403   7.097   5.372   4.351 -0.4664 -0.9370  0.2322
   97MOL   C25225404   7.108   5.261   4.449 -0.4626  0.5919 -0.0796
   97MOL   C25325405   7.296   5.062   4.248 -0.4980 -0.3554 -0.3777
   97MOL   H25425406   7.122   5.165   4.197  1.0583 -2.2578 -0.0400
   97MOL   H25525407   7.317   5.327   4.373 -0.3148  1.1498 -0.3519
   97MOL   H25625408   7.108   5.476   4.383  2.0182 -1.8190  2.3905
   97MOL   H25725409   7.025   5.372   4.269 -2.2216  1.2523  1.6945
   97MOL   H25825410   7.131   5.272   4.555 -0.1835 -3.0870  0.3168
   97MOL   H25925411   7.050   5.172   4.422  1.0869 -1.4281  2.9365
   97MOL   H26025412   7.277   4.993   4.166  0.6655 -1.1601  0.0189
   97MOL   H26125413   7.249   5.010   4.331  0.9905 -1.6342 -0.3121
   97MOL   H26225414   7.403   5.068   4.270 -0.5107  1.0580 -0.6574
   98MOL     C125415   7.244   6.620   4.234 -0.9375  0.0410 -0.2490
   98MOL     C225416   7.299   6.752   4.294  0.3781 -0.6505 -0.8519
   98MOL     C325417   7.432   6.804   4.265 -0.4815 -0.4013  0.3953
   98MOL     C425418   7.411   6.735   4.394 -0.4522  0.5194 -1.7472
   98MOL     C525419   7.116   6.589   4.316 -0.4088 -0.6319 -0.3113
   98MOL     H625420   7.219   6.637   4.129 -1.2710  1.1955  0.0163
   98MOL     H725421   7.220   6.822   4.322  1.0954  0.3888 -1.3747
   98MOL     H825422   7.494   6.746   4.197  0.7491 -0.4607  1.5314
   98MOL     H925423   7.439   6.912   4.274 -0.8339 -0.3089 -0.4616
   98MOL    H1025424   7.395   6.777   4.493 -1.9687 -0.6527 -1.4797
   98MOL    H1125425   7.454   6.635   4.397 -1.8556 -0.1490 -3.0157
   98MOL    H1225426   7.038   6.660   4.289 -0.4114 -0.3819  0.3396
   98MOL    H1325427   7.140   6.593   4.422 -1.1866 -0.1837 -0.1541
   98MOL    H1425428   7.317   6.539   4.234 -1.5525 -0.5167  0.0873
   98MOL    C1525429   7.050   6.449   4.296 -0.0099 -0.0677 -0.1007
   98MOL    C1625430   6.981   6.441   4.160 -0.3864  0.0540 -0.3269
   98MOL    C1725431   6.839   6.479   4.134 -0.0746 -0.5911  0.1237
   98MOL    C1825432   6.869   6.340   4.141 -0.4557 -0.1295 -0.2367
   98MOL    C1925433   7.152   6.340   4.320 -0.5469  0.7345 -0.0190
   98MOL    H2025434   6.972   6.449   4.371  0.0713  1.1463 -0.0138
   98MOL    H2125435   7.046   6.468   4.077  0.2833  0.7074  0.4022
   98MOL    H2225436   6.807   6.520   4.038  0.1662 -1.3731 -0.3022
   98MOL    H2325437   6.770   6.495   4.216  0.4584 -1.3853  0.7286
   98MOL    H2425438   6.846   6.277   4.226  2.5354 -0.2511  0.5410
   98MOL    H2525439   6.869   6.282   4.049  0.3676 -1.5254  0.6213
   98MOL    H2625440   7.232   6.377   4.385 -2.3486  1.8287  1.6602
   98MOL    H2725441   7.204   6.323   4.226 -0.4581  0.7095  0.0360
   98MOL    C2825442   7.092   6.203   4.375 -0.3576 -0.0305  0.5662
   98MOL    C2925443   7.013   6.222   4.505  0.3373 -0.1622 -1.0555
   98MOL    C3025444   7.017   6.156   4.634  0.1708 -0.5557  0.5474
   98MOL    C3125445   7.076   6.293   4.619  0.6761 -0.4028  0.2158
   98MOL    C3225446   7.204   6.095   4.384 -0.4729  0.7495 -0.9614
   98MOL    H3325447   7.023   6.174   4.296  0.1671 -1.1768  0.5126
   98MOL    H3425448   6.916   6.267   4.486 -0.4813 -0.6461  1.8656
   98MOL    H3525449   7.094   6.080   4.645  1.0131 -0.2509 -2.8087
   98MOL    H3625450   6.921   6.152   4.685 -0.0247  1.4596  0.3654
   98MOL    H3725451   7.184   6.299   4.636  0.6658  0.7990 -0.1181
   98MOL    H3825452   7.023   6.377   4.662  0.5232 -0.1351 -0.4852
   98MOL    H3925453   7.155   6.006   4.425  0.7135 -1.3640 -3.9398
   98MOL    H4025454   7.285   6.137   4.444 -0.7562  0.3194 -0.2675
   98MOL    C4125455   7.262   6.038   4.252 -0.6961 -0.0069  0.3571
   98MOL    C4225456   7.167   5.957   4.169 -0.0342 -0.2062  1.4636
   98MOL    C4325457   7.187   5.929   4.026  0.3453 -0.7361  0.1231
   98MOL    C4425458   7.080   6.027   4.059 -0.6718 -0.2129 -0.7492
   98MOL    C4525459   7.391   5.959   4.277 -0.3945 -0.3708  0.5077
   98MOL    H4625460   7.304   6.124   4.201 -0.3399 -0.3462  0.0731
   98MOL    H4725461   7.105   5.888   4.226 -0.4397 -0.3809  0.8213
   98MOL    H4825462   7.281   5.958   3.979  0.1859 -0.8779 -0.2925
   98MOL    H4925463   7.149   5.830   4.001 -1.4909 -0.1046  0.3405
   98MOL    H5025464   6.975   6.003   4.046 -0.9272  0.6103 -0.2691
   98MOL    H5125465   7.105   6.127   4.025 -0.1651  0.1475  0.6159
   98MOL    H5225466   7.368   5.854   4.294 -1.7615 -0.7103 -3.1077
   98MOL    H5325467   7.435   6.000   4.368  1.6847 -1.6255  0.1149
   98MOL    C5425468   7.503   5.955   4.177  0.2358 -0.2385 -0.5935
   98MOL    C5525469   7.561   6.092   4.159  0.3006  0.1884 -0.1524
   98MOL    C5625470   7.529   6.175   4.038  0.1101 -0.8668 -0.0535
   98MOL    C5725471   7.659   6.099   4.045  0.3512  0.0415  0.2490
   98MOL    C5825472   7.614   5.856   4.217 -0.2896  0.0001 -1.2743
   98MOL    H5925473   7.455   5.925   4.084  0.5775  1.8179 -1.4640
   98MOL    H6025474   7.608   6.132   4.249  2.0295 -0.8764 -0.5644
   98MOL    H6125475   7.472   6.147   3.950  0.4538  1.3673 -0.9953
   98MOL    H6225476   7.526   6.283   4.048 -2.8878 -0.9958  1.3016
   98MOL    H6325477   7.749   6.156   4.065  0.0694  0.0105  1.6907
   98MOL    H6425478   7.671   6.012   3.981 -1.5480  0.8965 -1.3124
   98MOL    H6525479   7.711   5.885   4.177 -0.7978  1.7849 -1.2455
   98MOL    H6625480   7.641   5.896   4.315  0.4820 -0.0834 -1.4485
   98MOL    C6725481   7.587   5.703   4.229  0.3212  0.8630 -0.0082
   98MOL    C6825482   7.552   5.658   4.088  0.3317  0.2519  0.3376
   98MOL    C6925483   7.467   5.531   4.066 -0.0748  0.6930  0.5262
   98MOL    C7025484   7.411   5.665   4.036 -0.2281 -0.5278  0.1622
   98MOL    C7125485   7.707   5.608   4.266 -1.0318 -0.0999 -0.1269
   98MOL    H7225486   7.506   5.684   4.299  0.3344 -0.2919 -0.2975
   98MOL    H7325487   7.627   5.686   4.014 -0.4654  1.1532 -0.1415
   98MOL    H7425488   7.531   5.476   3.997  0.8027  1.4709  0.7234
   98MOL    H7525489   7.422   5.482   4.152 -0.3343 -1.8663 -1.0052
   98MOL    H7625490   7.325   5.696   4.096 -0.5556 -1.8169  0.3695
   98MOL    H7725491   7.391   5.656   3.929  0.0737  1.4306 -0.0775
   98MOL    H7825492   7.780   5.619   4.186 -0.4633 -1.4606  0.1862
   98MOL    H7925493   7.676   5.504   4.269 -1.1355 -0.0752 -0.3169
   98MOL    C8025494   7.769   5.637   4.403  0.2241 -0.3732 -0.1918
   98MOL    C8125495   0.065   5.575   4.400  0.0355  0.4522 -0.0778
   98MOL    C8225496   0.172   5.626   4.491  0.4190 -0.2583 -0.8245
   98MOL    C8325497   0.185   5.649   4.348  0.2003  0.1193  0.2102
   98MOL    C8425498   7.682   5.593   4.517 -0.4386  0.5338 -0.3938
   98MOL    H8525499   7.791   5.743   4.414  0.1467 -0.6403  3.1194
   98MOL    H8625500   0.070   5.468   4.376 -0.7869  0.6673 -1.2678
   98MOL    H8725501   0.245   5.561   4.539 -1.1662 -0.3118  1.6017
   98MOL    H8825502   0.149   5.721   4.538  0.9825 -0.6003  0.1789
   98MOL    H8925503   0.185   5.757   4.331  0.3869  0.0778 -0.0490
   98MOL    H9025504   0.264   5.593   4.298  0.0410 -1.1418  1.3518
   98MOL    H9125505   7.581   5.585   4.477 -0.3825  2.1138 -0.8868
   98MOL    H9225506   7.698   5.486   4.531 -1.5492  0.3514 -0.4959
   98MOL    C9325507   7.695   5.667   4.652  0.8027 -0.4723 -0.2841
   98MOL    C9425508   7.658   5.817   4.642  0.1851  0.1163  0.3361
   98MOL    C9525509   7.703   5.915   4.752  0.7524  0.4277 -0.4931
   98MOL    C9625510   7.773   5.923   4.623  0.3517  0.3706  0.2469
   98MOL    C9725511   7.614   5.602   4.769  0.1185  0.4547 -0.9725
   98MOL    H9825512   7.800   5.662   4.680  0.3974 -1.7182  1.0600
   98MOL    H9925513   7.567   5.840   4.586 -0.9562 -0.6963  1.8354
   98MOL   H10025514   7.622   5.980   4.783 -0.7805 -2.2220  1.2516
   98MOL   H10125515   7.751   5.861   4.833  0.9715  1.1685 -0.1192
   98MOL   H10225516   7.753   6.015   4.568 -0.8260  0.8273  1.4262
   98MOL   H10325517   0.040   5.897   4.617 -0.5219 -3.4784  0.5563
   98MOL   H10425518   7.520   5.578   4.721 -0.2557 -0.7971  0.3523
   98MOL   H10525519   7.594   5.670   4.852  1.5456 -0.0084 -0.2361
   98MOL   C10625520   7.674   5.466   4.829  0.4227  0.0270 -0.1655
   98MOL   C10725521   7.808   5.486   4.893 -0.0504 -0.1443 -0.6385
   98MOL   C10825522   0.049   5.361   4.911  0.7640 -0.0871 -0.5278
   98MOL   C10925523   0.093   5.466   4.811 -0.4260 -0.4593  0.1902
   98MOL   C11025524   7.574   5.406   4.932 -0.5811  0.3146  0.1436
   98MOL   H11125525   7.678   5.401   4.742  1.8521 -0.4557  0.2370
   98MOL   H11225526   7.814   5.560   4.973  0.9353 -1.1859  0.2842
   98MOL   H11325527   0.110   5.361   5.001 -3.4697 -1.5248  2.4833
   98MOL   H11425528   7.838   5.269   4.881  1.2819 -0.7114  0.4849
   98MOL   H11525529   0.083   5.439   4.706  0.6335  0.4040 -0.1462
   98MOL   H11625530   0.192   5.501   4.837  0.1861 -2.0810  0.1085
   98MOL   H11725531   7.622   5.328   4.992 -1.9094  0.3446  1.2627
   98MOL   H11825532   7.543   5.484   5.001 -1.5476 -0.9743  1.1832
   98MOL   C11925533   7.454   5.326   4.863  0.0767 -0.4283 -0.2629
   98MOL   C12025534   7.507   5.201   4.792  0.4008  0.4780  0.1668
   98MOL   C12125535   7.545   5.208   4.647  0.8257  0.3614  0.5678
   98MOL   C12225536   7.424   5.124   4.691  0.6194  0.1513  0.5042
   98MOL   C12325537   7.350   5.287   4.968  0.4116 -0.1644  0.1192
   98MOL   H12425538   7.413   5.390   4.784 -0.3427 -0.1949  0.1482
   98MOL   H12525539   7.560   5.128   4.853 -1.1740 -2.2023 -1.5659
   98MOL   H12625540   7.645   5.168   4.640  0.6077 -0.3126  1.2773
   98MOL   H12725541   7.528   5.299   4.590  0.1899 -0.9353 -1.3418
   98MOL   H12825542   7.325   5.155   4.660  0.6060 -1.5057 -1.2541
   98MOL   H12925543   7.450   5.021   4.669  0.4355  0.6352 -2.1754
   98MOL   H13025544   7.286   5.215   4.916 -1.5093 -0.2487  2.5270
   98MOL   H13125545   7.391   5.237   5.055 -0.5999 -2.7353 -0.8231
   98MOL   C13225546   7.246   5.397   5.001 -0.5558 -0.3110 -0.4050
   98MOL   C13325547   7.160   5.364   5.123 -0.5063  0.8889 -0.9627
   98MOL   C13425548   7.105   5.473   5.213  0.5329  0.0605 -0.1075
   98MOL   C13525549   7.207   5.370   5.265 -0.2235 -0.6267 -0.3459
   98MOL   C13625550   7.155   5.429   4.884 -0.3525 -0.7414  0.6043
   98MOL   H13725551   7.309   5.482   5.025 -2.2610  1.7173 -2.8476
   98MOL   H13825552   7.095   5.281   5.097 -0.8702  1.0523 -0.5629
   98MOL   H13925553   7.117   5.581   5.198  0.1953  0.0872 -0.2037
   98MOL   H14025554   6.999   5.458   5.236  0.3691  1.2604 -0.0162
   98MOL   H14125555   7.304   5.408   5.298 -0.3142 -1.6470  1.1179
   98MOL   H14225556   7.166   5.308   5.344  0.0065 -0.5790 -0.1905
   98MOL   H14325557   7.204   5.408   4.788 -0.7254 -1.1618  0.5002
   98MOL   H14425558   7.079   5.350   4.887  0.1605 -1.2665  0.1088
   98MOL   C14525559   7.098   5.577   4.871  0.1277 -0.2410  0.7345
   98MOL   C14625560   7.216   5.675   4.853  0.3548  0.1925  0.2555
   98MOL   C14725561   7.182   5.815   4.815  0.4668 -0.4672  0.2179
   98MOL   C14825562   7.254   5.789   4.945 -0.5138 -0.3433 -0.2086
   98MOL   C14925563   6.984   5.582   4.764 -0.0975 -0.5361 -0.1021
   98MOL   H15025564   7.057   5.605   4.968 -0.8176  1.2642 -0.0876
   98MOL   H15125565   7.305   5.618   4.825  0.1709  0.8434 -1.6885
   98MOL   H15225566   7.240   5.873   4.744 -0.2418  0.1448  0.1365
   98MOL   H15325567   7.079   5.847   4.830  0.0334 -1.9120  0.4091
   98MOL   H15425568   7.204   5.783   5.042 -0.9211 -1.0338 -0.4591
   98MOL   H15525569   7.358   5.822   4.948 -0.5762 -0.2681  2.4246
   98MOL   H15625570   6.968   5.686   4.736  1.3574 -0.0965  0.6754
   98MOL   H15725571   7.019   5.526   4.677 -0.2458 -0.3857 -0.2581
   98MOL   C15825572   6.851   5.513   4.802  0.4940  0.0367  0.1102
   98MOL   C15925573   6.757   5.485   4.686  0.0641 -0.3138  0.3130
   98MOL   C16025574   6.791   5.428   4.553  0.0463  0.1905  0.0307
   98MOL   C16125575   6.698   5.353   4.641  0.4651  0.5508 -0.0735
   98MOL   C16225576   6.773   5.571   4.924 -0.5722  0.3409  0.4348
   98MOL   H16325577   6.881   5.412   4.831 -0.8000 -0.3479  0.1419
   98MOL   H16425578   6.684   5.566   4.681 -1.3619 -1.6759 -2.0807
   98MOL   H16525579   6.889   5.384   4.533  0.1101  0.4357 -0.2005
   98MOL   H16625580   6.753   5.472   4.461 -2.1236  1.0477  1.3138
   98MOL   H16725581   6.594   5.346   4.611  0.4016  0.5573  0.1404
   98MOL   H16825582   6.744   5.265   4.686 -0.4985 -0.2902 -0.7044
   98MOL   H16925583   6.727   5.665   4.892  3.6536  1.7240 -1.9132
   98MOL   H17025584   6.846   5.603   4.999  3.6880 -0.4367 -3.2129
   98MOL   C17125585   6.661   5.486   4.990 -0.0256 -0.1486  0.4146
   98MOL   C17225586   6.707   5.419   5.119  0.1135  0.3260 -0.2718
   98MOL   C17325587   6.647   5.296   5.169 -0.4832  0.3382  0.3674
   98MOL   C17425588   6.793   5.289   5.111  0.3330  0.4585  0.5897
   98MOL   C17525589   6.532   5.559   5.026 -0.4269  0.0542  0.6728
   98MOL   H17625590   6.634   5.406   4.921  1.9285 -2.8567  2.6354
   98MOL   H17725591   6.755   5.488   5.189 -0.2008  0.8959 -0.6106
   98MOL   H17825592   6.648   5.281   5.276  2.8604 -1.0455  0.2074
   98MOL   H17925593   6.564   5.251   5.114 -0.6976  0.6537  0.4294
   98MOL   H18025594   6.808   5.257   5.008 -0.0882  1.8297  0.0883
   98MOL   H18125595   6.872   5.262   5.181  1.9230  0.2264 -1.2509
   98MOL   H18225596   6.554   5.649   5.083 -0.3934 -0.2312  1.1146
   98MOL   H18325597   6.470   5.491   5.085 -0.4569 -1.5379 -1.1306
   98MOL   C18425598   6.433   5.598   4.906 -0.0118  0.7597  0.5991
   98MOL   C18525599   6.338   5.706   4.954  0.2803  0.3095 -0.1907
   98MOL   C18625600   6.314   5.817   4.849 -0.0061 -0.8478 -0.0728
   98MOL   C18725601   6.375   5.847   4.990  0.6098  0.5333 -0.0582
   98MOL   C18825602   6.355   5.475   4.846 -0.5047 -0.1672 -0.1829
   98MOL   H18925603   6.499   5.641   4.831 -0.4452 -0.4898 -0.5172
   98MOL   H19025604   6.251   5.670   5.008  0.5919  0.1501  0.2061
   98MOL   H19125605   6.211   5.850   4.842  0.3105  0.7306  1.9741
   98MOL   H19225606   6.377   5.828   4.761  2.9535  0.7607  2.1548
   98MOL   H19325607   6.317   5.892   5.071 -0.4012 -0.5126 -0.1974
   98MOL   H19425608   6.479   5.880   4.989 -0.1102  2.9663  1.3152
   98MOL   H19525609   6.297   5.432   4.928 -0.1748  0.5442  0.4334
   98MOL   H19625610   6.427   5.396   4.825 -1.5285 -1.1382 -0.0732
   98MOL   C19725611   6.255   5.492   4.727 -0.2889  0.1593  0.6072
   98MOL   C19825612   6.184   5.362   4.704  0.6585  0.5431  0.1049
   98MOL   C19925613   6.045   5.347   4.650 -0.0826  0.7897  1.0153
   98MOL   C20025614   6.084   5.299   4.787  0.0146  0.2927 -0.5893
   98MOL   C20125615   6.327   5.544   4.596 -0.3995 -0.1238  0.1312
   98MOL   H20225616   6.186   5.570   4.761 -2.6150 -2.0909  1.2162
   98MOL   H20325617   6.262   5.294   4.670 -0.0501  0.3525 -1.1796
   98MOL   H20425618   5.976   5.430   4.643  0.5750  1.3586  1.2706
   98MOL   H20525619   6.041   5.272   4.571 -2.4806  0.5260  1.3524
   98MOL   H20625620   6.047   5.343   4.879  0.9548  1.4463 -0.7506
   98MOL   H20725621   6.104   5.195   4.813 -2.5904  0.3149  1.7390
   98MOL   H20825622   6.401   5.621   4.619  0.2540 -1.0158  1.0738
   98MOL   H20925623   6.383   5.457   4.562  0.3179  0.0332  0.8777
   98MOL   C21025624   6.244   5.600   4.480  0.0911  0.0198  0.2403
   98MOL   C21125625   6.181   5.737   4.514 -0.9343 -0.1679  0.3836
   98MOL   C21225626   6.078   5.803   4.429  0.2094 -0.0529 -0.2278
   98MOL   C21325627   6.044   5.755   4.570  0.1384 -0.0848  0.4812
   98MOL   C21425628   6.318   5.594   4.332  0.4044  0.1643  0.3567
   98MOL   H21525629   6.161   5.529   4.468 -1.7710  2.2426 -0.4915
   98MOL   H21625630   6.256   5.795   4.569  1.6149 -2.8194 -0.1687
   98MOL   H21725631   6.097   5.909   4.417  0.3375 -0.2131 -1.5880
   98MOL   H21825632   6.049   5.741   4.344  0.1756 -0.9707  0.4402
   98MOL   H21925633   6.025   5.826   4.650 -0.7667 -0.1583  0.3412
   98MOL   H22025634   5.982   5.666   4.569 -1.6519  1.1430 -0.2802
   98MOL   H22125635   6.369   5.502   4.306 -1.0236 -0.0454 -1.7991
   98MOL   H22225636   6.236   5.594   4.260  1.0624  0.2981 -0.3991
   98MOL   C22325637   6.419   5.707   4.300 -0.3768 -0.7035 -1.0805
   98MOL   C22425638   6.419   5.714   4.147 -0.1120 -0.6336 -0.0954
   98MOL   C22525639   6.294   5.780   4.080  0.2260  0.0034  0.1437
   98MOL   C22625640   6.428   5.852   4.077 -0.1453 -0.2046  0.2057
   98MOL   C22725641   6.552   5.692   4.371 -0.3095 -1.1236 -0.3181
   98MOL   H22825642   6.375   5.802   4.330  1.3591  1.0292 -3.8218
   98MOL   H22925643   6.470   5.634   4.094  1.7085  0.8324 -0.6222
   98MOL   H23025644   6.219   5.811   4.152 -0.8912 -2.2309 -0.0290
   98MOL   H23125645   6.255   5.736   3.989 -1.8247 -0.7141  1.3468
   98MOL   H23225646   6.496   5.857   3.992 -1.1101 -0.4886 -0.5915
   98MOL   H23325647   6.427   5.939   4.142 -0.0498  0.6398 -0.9311
   98MOL   H23425648   6.535   5.647   4.469  1.2521  2.9126  1.8910
   98MOL   H23525649   6.601   5.614   4.311  0.9403 -1.2672  0.8774
   98MOL   C23625650   6.632   5.826   4.387 -0.5777 -0.2980 -1.0684
   98MOL   C23725651   6.778   5.792   4.406  0.4958 -0.0954  0.8789
   98MOL   C23825652   6.881   5.783   4.290  0.5473  0.1870  0.5882
   98MOL   C23925653   6.877   5.908   4.374 -0.1565 -0.0367  0.4809
   98MOL   C24025654   6.572   5.897   4.509 -0.2100 -0.4702 -1.1453
   98MOL   H24125655   6.615   5.877   4.292  2.0851 -2.4717 -2.7898
   98MOL   H24225656   6.802   5.738   4.498  1.3213  0.9850  1.3085
   98MOL   H24325657   6.956   5.706   4.300  0.9147  0.7116  2.0412
   98MOL   H24425658   6.845   5.800   4.189 -0.6238  0.2572  1.0054
   98MOL   H24525659   6.834   5.995   4.325  2.5575  0.6268 -0.8317
   98MOL   H24625660   6.957   5.931   4.445  1.7259 -2.4934 -0.7588
   98MOL   H24725661   6.464   5.882   4.515 -0.3853  0.8518 -0.8436
   98MOL   H24825662   6.617   5.849   4.596  0.2012  0.0898 -1.0427
   98MOL   C24925663   6.595   6.045   4.513 -0.4464  0.2062 -0.1509
   98MOL   C25025664   6.540   6.120   4.639 -0.3963 -0.1452 -0.0360
   98MOL   C25125665   6.621   6.136   4.768 -0.5179  0.0519 -0.2630
   98MOL   C25225666   6.604   6.257   4.671 -0.1077  0.3140  0.2570
   98MOL   C25325667   6.551   6.122   4.390  0.1270  0.4284 -0.3435
   98MOL   H25425668   6.703   6.054   4.521 -0.3641  0.8305 -1.7631
   98MOL   H25525669   6.431   6.131   4.632 -0.2331  0.4026 -2.0441
   98MOL   H25625670   6.551   6.122   4.850 -1.8871  1.1518 -1.2289
   98MOL   H25725671   6.721   6.095   4.780 -0.9520 -0.3866  1.9971
   98MOL   H25825672   6.539   6.337   4.706 -0.5457 -0.6515  1.7336
   98MOL   H25925673   6.693   6.294   4.621  0.5240 -0.7771  0.5750
   98MOL   H26025674   6.610   6.084   4.306 -0.5761 -1.1199 -0.1649
   98MOL   H26125675   6.585   6.225   4.391  1.0381  0.1485 -1.7274
   98MOL   H26225676   6.448   6.104   4.358  0.3799  1.3583 -1.7408
   99MOL     C125677   5.260   0.985   4.825 -0.5483  0.2106  0.4808
   99MOL     C225678   5.171   0.957   4.706  0.1162  0.0547  0.3502
   99MOL     C325679   5.066   1.054   4.649 -0.1788 -0.1797  0.7740
   99MOL     C425680   5.031   0.931   4.728  0.3056 -0.0231  0.1989
   99MOL     C525681   5.313   0.852   4.872  0.2424  0.5110 -0.0146
   99MOL     H625682   5.349   1.040   4.797 -1.2306  1.9367  1.5916
   99MOL     H725683   5.216   0.890   4.632  1.2098 -0.2120  1.2358
   99MOL     H825684   5.047   1.152   4.691  1.9138  0.8155 -0.5266
   99MOL     H925685   5.039   1.047   4.544 -0.6231  1.9697  0.7299
   99MOL    H1025686   4.986   0.849   4.673 -0.5071 -0.4416  1.4717
   99MOL    H1125687   4.994   0.943   4.830  1.2449  0.7464  0.4577
   99MOL    H1225688   5.416   0.874   4.902  0.8767 -0.9534 -1.0523
   99MOL    H1325689   5.332   0.781   4.791 -2.2980 -0.8674  0.5561
   99MOL    H1425690   5.217   1.048   4.903  1.6976  1.8994  0.3811
   99MOL    C1525691   5.225   0.781   4.978 -0.0640  0.0981 -0.0577
   99MOL    C1625692   5.230   0.631   4.959 -0.5184  0.6339 -0.5680
   99MOL    C1725693   5.140   0.557   4.858  0.1082  0.3994 -0.2195
   99MOL    C1825694   5.109   0.548   5.008 -0.1355 -0.2774  0.3419
   99MOL    C1925695   5.275   0.831   5.119 -0.2540  0.1508 -0.2209
   99MOL    H2025696   5.120   0.809   4.966 -0.1315 -0.1208  0.0011
   99MOL    H2125697   5.331   0.591   4.963 -0.5960  0.5225  0.2868
   99MOL    H2225698   5.170   0.467   4.805  0.3451  0.3461  0.0063
   99MOL    H2325699   5.075   0.621   4.798 -2.8014 -2.2334 -0.0127
   99MOL    H2425700   5.024   0.603   5.050 -1.5417 -2.7071  0.7822
   99MOL    H2525701   5.124   0.452   5.058 -0.4059  0.2237  1.4166
   99MOL    H2625702   5.300   0.937   5.119  0.4124 -0.0032 -1.8117
   99MOL    H2725703   5.377   0.792   5.126  0.3854  2.0383  1.5032
   99MOL    C2825704   5.197   0.817   5.248  0.0416  0.2732 -0.3063
   99MOL    C2925705   5.082   0.926   5.252 -0.2633  0.2287  0.2093
   99MOL    C3025706   4.946   0.901   5.183 -0.3308 -0.4687  0.4371
   99MOL    C3125707   4.965   0.889   5.333 -0.1335 -0.1526 -0.0269
   99MOL    C3225708   5.279   0.840   5.378 -0.2279  0.3442  0.2651
   99MOL    H3325709   5.149   0.719   5.253 -0.5544  0.6052  0.5239
   99MOL    H3425710   5.109   1.031   5.251  1.6418 -0.2403 -1.7860
   99MOL    H3525711   4.909   0.805   5.147 -0.8455  0.7583 -2.4901
   99MOL    H3625712   4.892   0.991   5.155 -0.7240 -0.0100  2.5945
   99MOL    H3725713   4.963   0.786   5.368 -2.3951 -0.4386 -0.8818
   99MOL    H3825714   4.925   0.965   5.399  0.3411  0.0337  0.0489
   99MOL    H3925715   5.208   0.862   5.458 -1.0259 -0.2709 -0.2659
   99MOL    H4025716   5.336   0.930   5.357  2.2509 -1.1898  0.2837
   99MOL    C4125717   5.369   0.721   5.420 -1.5625 -0.4180 -0.2618
   99MOL    C4225718   5.297   0.649   5.529  0.4110  0.0302 -0.3401
   99MOL    C4325719   5.304   0.500   5.529  0.4849  0.1143  0.4026
   99MOL    C4425720   5.169   0.569   5.506 -0.3885 -0.4032  0.3551
   99MOL    C4525721   5.511   0.776   5.469 -0.8042 -0.5135  0.1689
   99MOL    H4625722   5.373   0.651   5.337  0.4445 -0.1299 -0.4320
   99MOL    H4725723   5.285   0.701   5.624 -0.5816 -0.9288  0.0781
   99MOL    H4825724   5.340   0.450   5.439 -0.5283  0.7671 -0.3803
   99MOL    H4925725   5.333   0.453   5.622 -0.9642 -0.8575  0.3719
   99MOL    H5025726   5.098   0.574   5.588 -2.3355 -0.1798 -1.2930
   99MOL    H5125727   5.135   0.560   5.403 -0.8346  1.2869  0.3505
   99MOL    H5225728   5.502   0.789   5.577 -0.4940 -1.4780  0.3142
   99MOL    H5325729   5.544   0.868   5.421 -1.5032  0.7472  2.0492
   99MOL    C5425730   5.622   0.669   5.452 -0.9608 -0.0914 -0.4405
   99MOL    C5525731   5.655   0.652   5.306 -0.5336  0.0791 -0.1190
   99MOL    C5625732   5.616   0.524   5.230  0.4987 -0.4488  0.3218
   99MOL    C5725733   5.760   0.551   5.255 -0.3403 -0.2276  0.1997
   99MOL    C5825734   5.757   0.694   5.535  0.5123  0.2357 -0.5757
   99MOL    H5925735   5.582   0.570   5.473 -1.4289  0.2949  0.5272
   99MOL    H6025736   5.630   0.741   5.249  1.9371  0.7551 -0.1982
   99MOL    H6125737   5.567   0.448   5.290  0.0716  0.6522  1.3806
   99MOL    H6225738   5.573   0.535   5.130  3.1666  0.8590 -0.7249
   99MOL    H6325739   5.809   0.575   5.161 -0.1745  0.7336  0.5228
   99MOL    H6425740   5.815   0.495   5.330 -0.5378 -1.1494 -0.3355
   99MOL    H6525741   5.836   0.628   5.499  0.7282  0.4087 -0.4219
   99MOL    H6625742   5.782   0.798   5.514 -1.0330  0.1340 -3.1776
   99MOL    C6725743   5.739   0.677   5.691  0.3560  0.0130  0.1142
   99MOL    C6825744   5.761   0.528   5.722 -0.2338 -0.1105 -0.1183
   99MOL    C6925745   5.714   0.469   5.846  0.0326  0.0131  0.3703
   99MOL    C7025746   5.637   0.437   5.722 -0.8377 -0.6653 -0.0537
   99MOL    C7125747   5.837   0.776   5.775 -0.0005  0.0026  0.3924
   99MOL    H7225748   5.636   0.706   5.714 -0.1060  0.5361 -2.4969
   99MOL    H7325749   5.849   0.490   5.671  1.2128  1.1194  1.4272
   99MOL    H7425750   5.760   0.387   5.899 -0.9224 -0.4911  0.4400
   99MOL    H7525751   5.657   0.530   5.916  1.8973  0.0252  1.8865
   99MOL    H7625752   5.540   0.483   5.706 -0.4945 -0.3631 -1.2983
   99MOL    H7725753   5.663   0.343   5.674  1.0247 -1.1167  1.7558
   99MOL    H7825754   5.922   0.798   5.710  0.2316 -1.2017  0.2747
   99MOL    H7925755   5.864   0.718   5.862 -0.3169 -0.0404  0.4639
   99MOL    C8025756   5.774   0.916   5.806 -0.0839  0.8105  0.1587
   99MOL    C8125757   5.888   1.012   5.846  0.5202 -0.3872 -0.2347
   99MOL    C8225758   5.915   1.151   5.787 -0.0957  0.1231 -0.1225
   99MOL    C8325759   6.013   1.035   5.773  0.7462  0.4462 -0.5863
   99MOL    C8425760   5.649   0.909   5.907 -0.1385  0.3090  0.5816
   99MOL    H8525761   5.739   0.956   5.711 -0.2181  0.4418  0.0532
   99MOL    H8625762   5.903   0.987   5.951  1.1425  0.6309 -0.0749
   99MOL    H8725763   5.947   1.236   5.847  0.1862 -0.7584  1.0001
   99MOL    H8825764   5.870   1.186   5.695 -1.2828 -0.3490  0.2679
   99MOL    H8925765   6.020   1.001   5.669  0.5880 -1.7522  0.0992
   99MOL    H9025766   6.101   1.046   5.835  0.4542  0.7817 -0.2321
   99MOL    H9125767   5.588   0.819   5.895  0.1147  0.2739 -0.4935
   99MOL    H9225768   5.678   0.894   6.011 -0.5954  0.4144  0.7241
   99MOL    C9325769   5.562   1.034   5.906 -0.4431 -0.8227 -0.8762
   99MOL    C9425770   5.493   1.071   5.770  0.3144  0.0223 -0.1074
   99MOL    C9525771   5.348   1.029   5.732 -0.5003  0.6341  0.1443
   99MOL    C9625772   5.393   1.176   5.752 -0.6215  0.2115  0.2850
   99MOL    C9725773   5.462   1.007   6.022  0.4121  0.2135  0.1791
   99MOL    H9825774   5.631   1.112   5.939 -1.7730  0.0071 -0.0439
   99MOL    H9925775   5.567   1.060   5.691 -1.4369 -2.6516 -1.4624
   99MOL   H10025776   5.322   0.994   5.633 -0.8847 -0.9677  0.7894
   99MOL   H10125777   5.279   0.998   5.811 -0.1145  0.4349  0.4071
   99MOL   H10225778   5.405   1.241   5.666  1.4873  0.6405  0.8876
   99MOL   H10325779   5.352   1.225   5.840 -0.9951 -0.5025  0.5164
   99MOL   H10425780   5.430   0.903   6.023 -0.8186  0.5842  0.2996
   99MOL   H10525781   5.373   1.066   6.001  0.4331 -0.3641 -1.6071
   99MOL   C10625782   5.508   1.046   6.169 -0.2007  1.1527 -0.2323
   99MOL   C10725783   5.553   1.192   6.168  0.5305  0.4691  0.2629
   99MOL   C10825784   5.624   1.250   6.285  0.4388 -0.6185 -0.3146
   99MOL   C10925785   5.688   1.241   6.146  0.1780  0.7050 -0.4192
   99MOL   C11025786   5.400   1.021   6.275 -0.1609 -0.3721  0.1978
   99MOL   H11125787   5.590   0.979   6.195 -0.1590  0.7925 -1.2441
   99MOL   H11225788   5.470   1.257   6.142 -0.2230  0.1174  1.7658
   99MOL   H11325789   5.609   1.353   6.318 -0.0575 -1.4915  2.2645
   99MOL   H11425790   5.657   1.181   6.362 -1.7299 -0.8923  0.3974
   99MOL   H11525791   5.764   1.168   6.121 -0.7893 -0.4362 -0.0834
   99MOL   H11625792   5.689   1.323   6.074  1.8061 -0.1286 -1.3740
   99MOL   H11725793   5.432   1.065   6.369  0.6946 -2.5496  0.9415
   99MOL   H11825794   5.309   1.075   6.250 -0.4840 -1.9940 -2.3788
   99MOL   C11925795   5.375   0.866   6.303  0.7022  0.2312 -0.1311
   99MOL   C12025796   5.502   0.794   6.358 -0.6451  0.1395 -0.5453
   99MOL   C12125797   5.592   0.718   6.257  0.4511  0.0580  0.4564
   99MOL   C12225798   5.514   0.646   6.362 -0.4565  0.0457 -0.4381
   99MOL   C12325799   5.254   0.850   6.399 -0.2583  0.3677 -0.5038
   99MOL   H12425800   5.352   0.822   6.206  2.0109 -1.3757  0.2612
   99MOL   H12525801   5.569   0.859   6.414 -1.5381  0.9936 -0.4581
   99MOL   H12625802   5.700   0.702   6.255  0.4038 -0.2617  0.3295
   99MOL   H12725803   5.544   0.721   6.159  0.8430 -0.1290  0.2555
   99MOL   H12825804   5.429   0.588   6.327 -0.4908 -1.0630  1.4073
   99MOL   H12925805   5.570   0.590   6.438 -0.3408 -1.9589 -1.9550
   99MOL   H13025806   5.166   0.903   6.362  0.9028  1.2225 -2.1284
   99MOL   H13125807   5.225   0.746   6.389  1.4988 -0.4640  2.7138
   99MOL   C13225808   5.272   0.911   6.543  0.5581  0.1133  0.0975
   99MOL   C13325809   5.226   0.814   6.646  0.0969  0.6591 -0.3112
   99MOL   C13425810   5.286   0.796   6.785 -0.0510 -0.1917  0.1264
   99MOL   C13525811   5.303   0.687   6.672  0.2305  0.5860  0.1450
   99MOL   C13625812   5.195   1.049   6.549  0.5665 -0.3602 -0.5735
   99MOL   H13725813   5.376   0.926   6.571  0.0281  1.4157  1.4857
   99MOL   H13825814   5.120   0.792   6.632  0.3263  0.4955 -1.8742
   99MOL   H13925815   5.366   0.860   6.821 -1.6986  1.1832  1.4015
   99MOL   H14025816   5.211   0.762   6.856 -0.0347  0.9766  0.7051
   99MOL   H14125817   5.394   0.676   6.612 -0.5405 -0.3800 -0.8636
   99MOL   H14225818   5.245   0.595   6.680  1.0435  0.2229  1.9666
   99MOL   H14325819   5.188   1.097   6.451 -1.0525  0.4251 -0.0870
   99MOL   H14425820   5.096   1.019   6.582  1.3624 -0.9228  1.3798
   99MOL   C14525821   5.239   1.154   6.656 -0.6595 -0.3818 -0.3100
   99MOL   C14625822   5.373   1.211   6.613  0.6388 -0.4836 -0.0493
   99MOL   C14725823   5.466   1.273   6.721 -0.4508  0.2595  0.3187
   99MOL   C14825824   5.509   1.149   6.650  0.2288 -0.5052 -0.1410
   99MOL   C14925825   5.141   1.269   6.667  0.0904  0.8149  0.0263
   99MOL   H15025826   5.243   1.102   6.752 -1.9800 -2.1967 -1.2136
   99MOL   H15125827   5.370   1.268   6.521  2.8632 -0.8549 -0.4039
   99MOL   H15225828   5.515   1.366   6.692  1.2091 -0.5566  0.4861
   99MOL   H15325829   5.454   1.251   6.827 -2.2309  0.1369  0.1135
   99MOL   H15425830   5.498   1.054   6.701  1.6540  0.1161  1.3701
   99MOL   H15525831   5.590   1.153   6.577 -0.6910  0.9050 -1.1066
   99MOL   H15625832   5.176   1.336   6.745 -1.4601  1.5975  0.0654
   99MOL   H15725833   5.151   1.332   6.579  0.5348  0.9388  0.1626
   99MOL   C15825834   4.995   1.253   6.707  0.6616  0.2625 -0.4161
   99MOL   C15925835   4.928   1.388   6.688  0.2184 -0.1726 -0.7944
   99MOL   C16025836   4.861   1.411   6.556 -0.4886  0.3954 -0.1088
   99MOL   C16125837   4.777   1.410   6.677 -0.5073  0.0672  0.3766
   99MOL   C16225838   4.969   1.195   6.843 -0.9018  0.4632 -1.1887
   99MOL   H16325839   4.948   1.192   6.630 -0.6574  1.7296 -0.7869
   99MOL   H16425840   4.979   1.475   6.729 -0.1250  0.0706 -0.8800
   99MOL   H16525841   4.847   1.323   6.494 -1.5386  0.0801  0.5663
   99MOL   H16625842   4.868   1.511   6.515 -0.6163  0.5775  0.3154
   99MOL   H16725843   4.740   1.506   6.713  0.7743  0.7593 -0.1327
   99MOL   H16825844   4.717   1.320   6.667  2.4596 -2.0407  0.5658
   99MOL   H16925845   4.984   1.268   6.922 -3.3312  0.2576 -0.5089
   99MOL   H17025846   5.054   1.126   6.853 -2.4341 -1.3421 -0.3540
   99MOL   C17125847   4.836   1.129   6.884  0.2597 -0.1841 -0.0373
   99MOL   C17225848   4.819   0.999   6.799 -0.6301 -0.0223 -1.1357
   99MOL   C17325849   4.690   0.922   6.761 -0.0869 -0.5059 -0.6866
   99MOL   C17425850   4.765   1.007   6.655 -0.1455  0.2595  0.7269
   99MOL   C17525851   4.832   1.094   7.035  0.5028  0.1646 -0.7964
   99MOL   H17625852   4.755   1.199   6.867  1.9474  1.8330  0.0657
   99MOL   H17725853   4.901   0.928   6.814  0.5499  1.7162  0.8493
   99MOL   H17825854   4.698   0.814   6.767  0.7967 -0.3424  1.3257
   99MOL   H17925855   4.601   0.961   6.809  0.5270 -0.9036  0.7966
   99MOL   H18025856   4.711   1.098   6.631  0.8408  0.1926 -1.8968
   99MOL   H18125857   4.823   0.959   6.577  0.1215  1.6927  0.0417
   99MOL   H18225858   4.933   1.075   7.073  1.2954 -0.3794 -3.0850
   99MOL   H18325859   4.767   1.008   7.050 -2.8689  2.4773 -1.7457
   99MOL   C18425860   4.759   1.203   7.121 -0.6729 -0.4372  0.2003
   99MOL   C18525861   4.840   1.331   7.134 -0.1638 -0.0402 -1.2442
   99MOL   C18625862   4.796   1.462   7.194 -0.1026 -0.5131  0.2876
   99MOL   C18725863   4.820   1.443   7.044  0.5994 -0.7076 -0.0163
   99MOL   C18825864   4.704   1.154   7.268 -1.3368  0.0660  0.8816
   99MOL   H18925865   4.668   1.238   7.073 -0.2302 -0.6773 -0.8187
   99MOL   H19025866   4.946   1.306   7.130  0.8071  3.6572 -1.0644
   99MOL   H19125867   4.867   1.520   7.252  1.9897 -0.9309 -1.8052
   99MOL   H19225868   4.697   1.459   7.239 -1.0752 -2.2185 -1.8603
   99MOL   H19325869   4.901   1.497   6.996  0.0098 -0.2362 -0.4866
   99MOL   H19425870   4.735   1.436   6.976  0.2630 -1.5228  0.4785
   99MOL   H19525871   4.673   1.240   7.326  0.2930  0.5716  1.0446
   99MOL   H19625872   4.791   1.109   7.316 -0.9412 -0.5344 -0.3680
   99MOL   C19725873   4.591   1.048   7.273 -0.6159  0.2098 -0.1596
   99MOL   C19825874   4.456   1.098   7.219  0.1073 -0.9682  0.1149
   99MOL   C19925875   4.353   1.015   7.148 -0.3903 -0.0593  0.3979
   99MOL   C20025876   4.443   1.118   7.068  0.4418  0.3051  0.0910
   99MOL   C20125877   4.572   0.981   7.410 -0.3262  0.5306  1.0520
   99MOL   H20225878   4.631   0.970   7.209 -0.3139  0.2849 -0.0610
   99MOL   H20325879   4.422   1.185   7.275  1.1731  0.1877 -0.9864
   99MOL   H20425880   4.369   0.911   7.122 -0.4938  0.1626 -0.5626
   99MOL   H20525881   4.250   1.038   7.173 -0.1954  1.3996 -0.1072
   99MOL   H20625882   4.532   1.086   7.015  0.1354  0.0373 -0.2638
   99MOL   H20725883   4.398   1.206   7.022  0.1888  1.1847  1.9432
   99MOL   H20825884   4.531   1.060   7.472 -0.2430  0.0381  1.7394
   99MOL   H20925885   4.488   0.912   7.404 -1.6864  2.3220 -1.3972
   99MOL   C21025886   4.706   0.925   7.474 -0.5785 -0.0402 -0.5133
   99MOL   C21125887   4.672   0.866   7.609 -0.1791  0.2995  0.5512
   99MOL   C21225888   4.759   0.873   7.726 -0.4238 -0.6464 -1.6103
   99MOL   C21325889   4.628   0.949   7.718  0.3580  0.4829  0.7355
   99MOL   C21425890   4.773   0.815   7.390 -0.3532  0.3873  0.1344
   99MOL   H21525891   4.778   1.001   7.502 -0.2418  0.0235 -1.5221
   99MOL   H21625892   4.599   0.786   7.594  0.3284 -0.1582  0.4880
   99MOL   H21725893   4.778   0.776   7.771  0.1200  0.3012  0.2427
   99MOL   H21825894   4.848   0.935   7.716 -2.1186  2.4448  1.3542
   99MOL   H21925895   4.551   0.902   7.779  0.6783 -2.6945 -1.1854
   99MOL   H22025896   4.633   1.057   7.727 -2.4150  0.8302 -1.2332
   99MOL   H22125897   4.806   0.736   7.457 -1.7261 -0.9417 -0.7208
   99MOL   H22225898   4.703   0.768   7.322 -1.0358  0.9507  0.4369
   99MOL   C22325899   4.888   0.847   7.300 -0.4133 -0.8230  0.3346
   99MOL   C22425900   4.923   0.731   7.206  0.0732 -0.0982  0.2047
   99MOL   C22525901   4.847   0.698   7.081 -0.8883  0.4437 -0.4806
   99MOL   C22625902   4.999   0.744   7.078 -0.6490 -0.1640 -0.1823
   99MOL   C22725903   5.018   0.888   7.378 -0.1466  0.2084  0.5998
   99MOL   H22825904   4.848   0.928   7.239  0.4835  1.9011  3.2045
   99MOL   H22925905   4.947   0.634   7.247 -1.1818 -0.5455 -0.0887
   99MOL   H23025906   4.824   0.593   7.065 -3.7069  1.3531 -2.8074
   99MOL   H23125907   4.771   0.770   7.052 -0.2835  0.7107 -1.4240
   99MOL   H23225908   5.091   0.686   7.065 -0.8910 -0.7414  0.6901
   99MOL   H23325909   5.011   0.843   7.033 -1.3478  0.2165  0.4703
   99MOL   H23425910   4.999   0.938   7.473  0.9051 -1.0530  1.4808
   99MOL   H23525911   5.057   0.795   7.418  2.2780  0.6286 -0.6862
   99MOL   C23625912   5.135   0.971   7.302 -0.3456  1.1453 -0.0649
   99MOL   C23725913   5.272   0.914   7.354 -0.1134  0.1958 -0.1442
   99MOL   C23825914   5.305   0.766   7.338  0.7439  0.3924  0.5244
   99MOL   C23925915   5.372   0.863   7.247 -0.5121  0.4486  0.0500
   99MOL   C24025916   5.119   1.122   7.322 -0.2051  0.7656  0.4108
   99MOL   H24125917   5.122   0.960   7.195  1.9989  1.1680 -0.3745
   99MOL   H24225918   5.314   0.965   7.440  0.9209  0.5282 -0.8473
   99MOL   H24325919   5.375   0.717   7.405 -0.8186 -0.0310  1.8972
   99MOL   H24425920   5.230   0.696   7.300  1.6722 -0.7758  0.8075
   99MOL   H24525921   5.340   0.862   7.143  0.9845 -0.0749 -0.4180
   99MOL   H24625922   5.475   0.876   7.279 -0.9493  1.9037  0.8901
   99MOL   H24725923   5.022   1.153   7.283  0.4366  3.3308  0.7884
   99MOL   H24825924   5.106   1.137   7.429  0.3726  0.3786  0.5410
   99MOL   C24925925   5.234   1.213   7.280 -0.0282 -0.0449  0.3886
   99MOL   C25025926   5.200   1.352   7.317  0.0294  0.0284  0.0526
   99MOL   C25125927   5.217   1.426   7.451  0.1213 -0.8937  0.2699
   99MOL   C25225928   5.301   1.458   7.319 -0.6400  0.1131  1.1936
   99MOL   C25325929   5.260   1.207   7.131 -0.9318  0.3570 -0.1870
   99MOL   H25425930   5.332   1.184   7.316  1.3335  0.3844 -2.7969
   99MOL   H25525931   5.106   1.380   7.271  1.5851  1.7940 -2.1740
   99MOL   H25625932   5.139   1.493   7.485  0.1068 -1.1257  0.6865
   99MOL   H25725933   5.282   1.390   7.531  0.7810  2.9096  1.5192
   99MOL   H25825934   5.281   1.548   7.261  1.1623 -0.2097 -0.0014
   99MOL   H25925935   5.406   1.429   7.320 -0.5863 -0.0379 -2.0997
   99MOL   H26025936   5.351   1.259   7.100 -0.8673  1.0809  1.2149
   99MOL   H26125937   5.189   1.262   7.069 -2.8083  2.3715  3.6073
   99MOL   H26225938   5.280   1.104   7.098  0.2955  0.9618 -1.4329
  100MOL     C125939   4.319   2.800   3.705  0.6381 -0.2439 -0.4834
  100MOL     C225940   4.464   2.786   3.666 -0.8018 -0.3274  0.1928
  100MOL     C325941   4.516   2.657   3.613  0.4798  0.1678 -0.0332
  100MOL     C425942   4.555   2.708   3.754 -0.5584 -0.1719  0.0600
  100MOL     C525943   4.229   2.855   3.593  0.4057 -0.6647  0.6433
  100MOL     H625944   4.275   2.703   3.728  4.3204 -2.3382 -1.8639
  100MOL     H725945   4.498   2.871   3.607 -0.9814 -1.1761 -1.1390
  100MOL     H825946   4.444   2.575   3.617  0.3308  0.3612  1.6584
  100MOL     H925947   4.607   2.638   3.557  0.7881 -0.1914  0.5758
  100MOL    H1025948   4.662   2.728   3.759 -0.7646  1.1214 -0.5261
  100MOL    H1125949   4.504   2.662   3.838 -1.4338  1.3961  0.4159
  100MOL    H1225950   4.227   2.781   3.512 -1.3130  0.2935 -0.2368
  100MOL    H1325951   4.258   2.942   3.535 -1.3546 -0.4517  0.0262
  100MOL    H1425952   4.322   2.863   3.794  2.0665 -2.2709  0.9418
  100MOL    C1525953   4.085   2.876   3.639  0.0892  0.7874 -0.7332
  100MOL    C1625954   4.083   2.976   3.756  0.1540 -0.4255 -0.1208
  100MOL    C1725955   4.074   2.945   3.902 -0.8357  0.0724 -0.3173
  100MOL    C1825956   3.957   3.008   3.831 -0.2366  0.3366 -0.5328
  100MOL    C1925957   3.991   2.934   3.533  0.1829 -0.1053  0.4332
  100MOL    H2025958   4.044   2.782   3.676  0.6475  1.5840  2.0184
  100MOL    H2125959   4.135   3.066   3.723 -0.3618  0.9189  2.5542
  100MOL    H2225960   4.119   3.007   3.978 -2.0669 -1.8546  2.0456
  100MOL    H2325961   4.071   2.841   3.936  2.6362 -0.1513 -0.4913
  100MOL    H2425962   3.869   2.946   3.815 -2.0066  3.1194 -2.2074
  100MOL    H2525963   3.931   3.113   3.849  0.8829  0.6542 -0.7325
  100MOL    H2625964   4.022   3.033   3.501 -1.0750  0.1796  0.0702
  100MOL    H2725965   3.895   2.960   3.578  0.5849  1.5850  0.3622
  100MOL    C2825966   3.970   2.856   3.402  0.2805 -0.6271  0.0854
  100MOL    C2925967   3.894   2.941   3.302 -0.5710  0.0180  0.6269
  100MOL    C3025968   3.968   3.031   3.214  0.4585  0.0266  0.6775
  100MOL    C3125969   3.902   2.912   3.154 -0.1512 -0.5369 -0.2889
  100MOL    C3225970   3.889   2.731   3.435 -0.5897  0.0619 -0.0305
  100MOL    H3325971   4.073   2.837   3.373  0.9431 -0.1214  1.9966
  100MOL    H3425972   3.794   2.968   3.335 -1.8382 -2.0171 -1.3879
  100MOL    H3525973   4.077   3.031   3.224  0.4161  0.4882  1.2132
  100MOL    H3625974   3.927   3.132   3.221  1.3650  0.5227 -0.9546
  100MOL    H3725975   3.974   2.838   3.120 -0.8164 -1.6973  0.7949
  100MOL    H3825976   3.843   2.949   3.071  2.1339  2.2842 -0.7354
  100MOL    H3925977   3.784   2.759   3.433 -0.8598 -0.9606 -0.2366
  100MOL    H4025978   3.916   2.704   3.537 -1.7197  2.0626  0.8197
  100MOL    C4125979   3.912   2.609   3.348  0.2577  0.2403 -0.0982
  100MOL    C4225980   3.821   2.503   3.396  0.0832 -1.0588  0.2015
  100MOL    C4325981   3.760   2.397   3.306 -0.5400  0.5235  0.2527
  100MOL    C4425982   3.676   2.509   3.369  0.3830  0.3473  0.2052
  100MOL    C4525983   4.064   2.554   3.352 -0.4556  0.0692 -0.3379
  100MOL    H4625984   3.885   2.631   3.245  0.4618  1.0325  0.0113
  100MOL    H4725985   3.855   2.459   3.490  0.9884  2.0312  1.3850
  100MOL    H4825986   3.766   2.419   3.200 -1.3768 -0.2312  0.0398
  100MOL    H4925987   3.738   2.297   3.342 -1.7990  0.5514 -0.3826
  100MOL    H5025988   3.596   2.479   3.436 -0.8529  1.0282 -0.9435
  100MOL    H5125989   3.641   2.581   3.295  1.9874 -0.2225 -1.1591
  100MOL    H5225990   4.086   2.534   3.457  0.0501  0.2809 -0.4033
  100MOL    H5325991   4.139   2.633   3.344  2.1257 -2.4833 -1.9842
  100MOL    C5425992   4.101   2.446   3.254 -0.8203  0.5482 -0.4304
  100MOL    C5525993   4.104   2.505   3.112  0.2937  0.2720  0.4031
  100MOL    C5625994   4.015   2.458   3.002 -0.4856 -0.0055  0.7311
  100MOL    C5725995   4.160   2.420   2.999  0.0705  0.0433  0.7446
  100MOL    C5825996   4.240   2.383   3.303 -0.3450  0.4555 -0.2023
  100MOL    H5925997   4.034   2.360   3.253  0.0137 -0.1875  2.6594
  100MOL    H6025998   4.118   2.613   3.104  1.2400  0.3955  3.1290
  100MOL    H6125999   3.935   2.386   3.016 -0.0042 -0.5594  0.6309
  100MOL    H6226000   3.992   2.529   2.923  0.6027 -1.3732 -0.8359
  100MOL    H6326001   4.218   2.467   2.920 -2.0043 -0.8456 -1.3849
  100MOL    H6426002   4.174   2.312   3.006 -2.3352 -0.2431  1.4739
  100MOL    H6526003   4.281   2.329   3.217  0.7438  2.5600 -1.0736
  100MOL    H6626004   4.306   2.469   3.321 -0.2031  0.2636  0.1960
  100MOL    C6726005   4.237   2.288   3.427 -0.8061  0.0937 -0.3809
  100MOL    C6826006   4.140   2.176   3.409  0.3400 -0.1010  0.1310
  100MOL    C6926007   4.107   2.077   3.518 -0.1583  0.5685 -0.2300
  100MOL    C7026008   4.005   2.184   3.483 -0.4591 -0.6253  0.2763
  100MOL    C7126009   4.380   2.243   3.469  0.1193  0.4773 -0.2289
  100MOL    H7226010   4.206   2.354   3.508 -0.5422  1.1651 -1.1421
  100MOL    H7326011   4.139   2.131   3.310  1.6530  2.2677 -1.0061
  100MOL    H7426012   4.085   1.977   3.481 -2.4694  0.3375  1.6481
  100MOL    H7526013   4.146   2.083   3.619  1.1106  0.7399 -0.7205
  100MOL    H7626014   3.975   2.244   3.569 -1.0287  0.2281 -0.5054
  100MOL    H7726015   3.923   2.158   3.417 -1.4711  1.5820  0.6264
  100MOL    H7826016   4.361   2.170   3.547 -0.4220  0.4726 -0.3635
  100MOL    H7926017   4.436   2.324   3.515 -2.9433  1.9507  1.0650
  100MOL    C8026018   4.470   2.172   3.348  0.7041 -0.4820  0.2345
  100MOL    C8126019   4.420   2.035   3.298 -0.2685 -0.2592 -0.1425
  100MOL    C8226020   4.477   1.962   3.180  0.5675 -0.0761 -0.1574
  100MOL    C8326021   4.333   2.010   3.182  0.0517  0.2753 -0.5356
  100MOL    C8426022   4.616   2.169   3.384  0.0234  0.0617 -0.5861
  100MOL    H8526023   4.459   2.233   3.258  4.7276  0.4613  0.3038
  100MOL    H8626024   4.398   1.965   3.379  3.6768  2.0442  3.1067
  100MOL    H8726025   4.504   1.859   3.201 -2.2297 -0.9517 -0.7164
  100MOL    H8826026   4.556   2.020   3.133 -0.8170  1.1856 -0.9745
  100MOL    H8926027   4.313   2.087   3.108  0.5233 -1.5162 -2.5866
  100MOL    H9026028   4.261   1.930   3.202  1.4342 -1.1806 -1.2189
  100MOL    H9126029   4.633   2.228   3.474 -0.7548 -1.3403  0.5275
  100MOL    H9226030   4.652   2.067   3.399  1.4214  0.5411 -0.5943
  100MOL    C9326031   4.712   2.230   3.281  0.4454  0.5382 -0.8010
  100MOL    C9426032   4.680   2.386   3.278  0.4253  0.3685 -0.0757
  100MOL    C9526033   4.741   2.477   3.174 -0.7153  1.0703  0.0705
  100MOL    C9626034   4.595   2.452   3.177 -0.0492 -0.6681 -0.1358
  100MOL    C9726035   4.862   2.210   3.310  0.4175  0.2991 -0.7898
  100MOL    H9826036   4.699   2.179   3.185 -1.2196  1.1319 -0.8920
  100MOL    H9926037   4.665   2.426   3.378  0.9753  2.4892 -0.8045
  100MOL   H10026038   4.782   2.571   3.210  2.2716  0.7880 -2.3873
  100MOL   H10126039   4.802   2.430   3.097 -0.2241 -0.3503  1.2960
  100MOL   H10226040   4.520   2.524   3.209  1.1826  0.4900  0.1625
  100MOL   H10326041   4.553   2.385   3.103 -2.1803 -0.5758  0.9406
  100MOL   H10426042   4.873   2.244   3.413  0.2390 -0.4700 -0.5159
  100MOL   H10526043   4.936   2.277   3.265  1.2796  0.0182  0.1975
  100MOL   C10626044   4.913   2.061   3.300  0.3000 -0.0321  0.0642
  100MOL   C10726045   4.960   2.025   3.162  0.3065  0.0109  0.4194
  100MOL   C10826046   4.976   1.881   3.127  0.1561  0.2886  0.4885
  100MOL   C10926047   4.866   1.961   3.066  0.2206  0.5426  0.0717
  100MOL   C11026048   5.039   2.048   3.388  0.2593 -0.2168 -0.5942
  100MOL   H11126049   4.850   1.976   3.326  0.1851 -0.5027 -1.6865
  100MOL   H11226050   5.031   2.093   3.117  0.2349  0.6911  1.3238
  100MOL   H11326051   5.065   1.866   3.066 -0.7122  2.0354 -1.2582
  100MOL   H11426052   4.946   1.796   3.187  1.9297 -1.0392 -0.4570
  100MOL   H11526053   4.765   1.955   3.108  0.5683 -1.0054  0.7396
  100MOL   H11626054   4.883   1.968   2.959  1.6846 -1.8391  0.0999
  100MOL   H11726055   5.105   1.973   3.345 -0.2364  0.2367 -2.2027
  100MOL   H11826056   5.094   2.139   3.364  2.6989 -0.9291  1.9277
  100MOL   C11926057   5.011   2.050   3.540  0.1131 -0.1675  0.1697
  100MOL   C12026058   5.058   1.914   3.594 -0.1823 -0.0952 -0.7819
  100MOL   C12126059   4.975   1.787   3.578  0.3617 -0.5068 -0.4574
  100MOL   C12226060   4.995   1.846   3.714 -0.3559 -0.0609  0.5982
  100MOL   C12326061   5.077   2.171   3.603  0.0240 -0.2388 -0.1270
  100MOL   H12426062   4.905   2.055   3.563 -0.0522 -0.1314 -0.5982
  100MOL   H12526063   5.166   1.902   3.583 -0.5807 -2.9984 -1.9526
  100MOL   H12626064   5.035   1.701   3.551 -1.5224 -2.5662  1.6483
  100MOL   H12726065   4.882   1.798   3.523 -0.2149 -1.6486  0.2900
  100MOL   H12826066   4.909   1.894   3.760 -0.5816 -0.7077  0.8616
  100MOL   H12926067   5.060   1.783   3.776 -0.7055 -1.4721 -0.4608
  100MOL   H13026068   5.185   2.166   3.590  0.2597  0.3108  1.4680
  100MOL   H13126069   5.055   2.255   3.538 -2.0294 -1.3720 -0.9275
  100MOL   C13226070   5.033   2.202   3.753  0.3666 -0.5731 -0.2168
  100MOL   C13326071   4.925   2.307   3.744  0.9294 -0.6159  0.1653
  100MOL   C13426072   4.834   2.316   3.860  0.1283  0.0153  0.1615
  100MOL   C13526073   4.778   2.267   3.730 -0.3150 -0.9401 -0.2910
  100MOL   C13626074   5.150   2.252   3.844  0.4486 -0.2393 -0.3229
  100MOL   H13726075   4.993   2.110   3.796 -1.1621  0.6814  1.1557
  100MOL   H13826076   4.960   2.405   3.715  0.5135 -0.9678 -1.5494
  100MOL   H13926077   4.850   2.242   3.938 -0.7835 -0.8144 -0.4115
  100MOL   H14026078   4.819   2.417   3.898  2.1374  0.6449 -0.6344
  100MOL   H14126079   4.767   2.160   3.715  0.2489 -0.9118 -0.9108
  100MOL   H14226080   4.721   2.327   3.660  0.7149  0.9462  0.4354
  100MOL   H14326081   5.218   2.307   3.780 -1.3754  0.2983 -1.8523
  100MOL   H14426082   5.121   2.332   3.912 -1.6943  1.0586 -2.6693
  100MOL   C14526083   5.222   2.158   3.931  0.2244  0.1113  0.4325
  100MOL   C14626084   5.125   2.117   4.034  0.0858  0.0716  0.6307
  100MOL   C14726085   5.162   2.097   4.184  0.6846  0.6667  0.3408
  100MOL   C14826086   5.074   2.209   4.144  0.6873  0.0465 -0.0921
  100MOL   C14926087   5.290   2.048   3.845  0.3516  0.5475 -0.0494
  100MOL   H15026088   5.298   2.218   3.980 -1.2330  1.3587  1.2177
  100MOL   H15126089   5.049   2.054   3.989 -1.0456  0.3405  2.1322
  100MOL   H15226090   5.115   2.017   4.242  1.7877  1.0464  1.7743
  100MOL   H15326091   5.269   2.107   4.196  0.8951 -1.2376  0.2327
  100MOL   H15426092   5.118   2.308   4.151 -2.0150  1.3092  0.0395
  100MOL   H15526093   4.966   2.204   4.157  0.6700  1.9124  0.6714
  100MOL   H15626094   5.221   1.967   3.822  0.6522 -0.4628  2.4891
  100MOL   H15726095   5.325   2.088   3.750  0.0152 -0.6979 -0.7118
  100MOL   C15826096   5.410   1.976   3.910  0.2782  0.1133  0.3096
  100MOL   C15926097   5.538   2.071   3.912 -0.2844  0.0944  0.4061
  100MOL   C16026098   5.584   2.129   4.042 -0.5683  0.3069  0.1272
  100MOL   C16126099   5.675   2.030   3.974  0.6452 -0.5455  0.1196
  100MOL   C16226100   5.446   1.851   3.828 -0.2030 -0.1428 -0.0768
  100MOL   H16326101   5.384   1.954   4.013  0.4546 -1.6364 -0.0017
  100MOL   H16426102   5.544   2.142   3.829 -0.3609  1.5368  1.6005
  100MOL   H16526103   5.510   2.114   4.121 -1.3451  0.1362 -0.6179
  100MOL   H16626104   5.608   2.235   4.038 -1.9255  0.6374  0.3026
  100MOL   H16726105   5.766   2.072   3.930  0.9351 -0.2993  0.9396
  100MOL   H16826106   5.678   1.932   4.022 -2.1282 -0.8415 -0.2264
  100MOL   H16926107   5.554   1.846   3.817 -0.1479 -1.1500  0.8079
  100MOL   H17026108   5.399   1.849   3.729 -0.5700 -0.7658  0.1067
  100MOL   C17126109   5.409   1.722   3.896  0.4981 -0.2706  0.0375
  100MOL   C17226110   5.427   1.604   3.805 -0.0132 -0.2010 -0.1071
  100MOL   C17326111   5.322   1.493   3.796 -0.0385 -0.1267  0.9032
  100MOL   C17426112   5.341   1.585   3.680  0.1280 -1.0121 -0.6006
  100MOL   C17526113   5.483   1.695   4.033 -0.1826 -0.0793 -0.4658
  100MOL   H17626114   5.303   1.722   3.921  0.7627  2.2657  1.3090
  100MOL   H17726115   5.531   1.574   3.800  0.4621  1.7169 -3.3887
  100MOL   H17826116   5.356   1.390   3.798  0.6614  0.1098  1.6469
  100MOL   H17926117   5.233   1.512   3.855 -1.8145  2.0331 -2.3098
  100MOL   H18026118   5.270   1.665   3.660  0.0015 -1.0572 -0.3429
  100MOL   H18126119   5.380   1.546   3.587 -0.9803 -1.0952 -1.0356
  100MOL   H18226120   5.530   1.786   4.071 -3.3507  1.3993  0.0089
  100MOL   H18326121   5.565   1.624   4.017  0.5929  0.8648 -0.7099
  100MOL   C18426122   5.394   1.632   4.144  0.6954  0.7600 -0.3791
  100MOL   C18526123   5.284   1.735   4.185 -0.4129  0.2618 -0.3031
  100MOL   C18626124   5.165   1.701   4.266 -0.8005  0.5101  0.1885
  100MOL   C18726125   5.148   1.731   4.122  0.2294  0.6252  0.0503
  100MOL   C18826126   5.471   1.574   4.267 -0.0070  0.4146 -0.6671
  100MOL   H18926127   5.340   1.550   4.097  0.7249 -0.1686  1.1924
  100MOL   H19026128   5.316   1.839   4.185  0.7878 -0.0602 -2.5881
  100MOL   H19126129   5.148   1.787   4.329 -0.1405  0.6701  0.1533
  100MOL   H19226130   5.138   1.601   4.300 -0.4757  0.2739 -0.2299
  100MOL   H19326131   5.122   1.823   4.069  1.9672  0.2026 -1.6043
  100MOL   H19426132   5.116   1.648   4.059  1.1153 -1.0226  1.7124
  100MOL   H19526133   5.480   1.644   4.350  2.0155 -0.8097  0.1812
  100MOL   H19626134   5.571   1.536   4.244 -0.8496 -1.5455 -1.2146
  100MOL   C19726135   5.385   1.448   4.327 -0.6530  0.1903 -0.2219
  100MOL   C19826136   5.423   1.416   4.470 -0.2647  0.0415 -0.8919
  100MOL   C19926137   5.325   1.341   4.549 -0.5420  0.3711 -0.0332
  100MOL   C20026138   5.353   1.487   4.578  1.4633 -0.1002 -0.5998
  100MOL   C20126139   5.377   1.326   4.236  0.9956 -0.8609  0.4233
  100MOL   H20226140   5.279   1.474   4.329 -0.5952  0.4941 -1.1080
  100MOL   H20326141   5.530   1.406   4.485 -0.2715 -1.1598 -1.5493
  100MOL   H20426142   5.232   1.310   4.501 -0.4915 -1.6598  1.1045
  100MOL   H20526143   5.366   1.269   4.619 -1.6884  0.2165  0.4884
  100MOL   H20626144   5.273   1.555   4.550  1.8261 -0.7488 -3.3583
  100MOL   H20726145   5.404   1.525   4.667 -0.2986 -0.4578  0.5917
  100MOL   H20826146   5.300   1.259   4.275  0.0716  0.2413  0.5101
  100MOL   H20926147   5.337   1.351   4.138  1.1248 -0.2802  0.5210
  100MOL   C21026148   5.509   1.248   4.217  0.2624 -1.0473 -0.3529
  100MOL   C21126149   5.489   1.102   4.253 -0.4649 -0.0444 -0.1287
  100MOL   C21226150   5.594   1.017   4.331  0.4255 -0.0932 -0.4079
  100MOL   C21326151   5.468   1.065   4.395  0.4149  0.3244  0.3893
  100MOL   C21426152   5.549   1.267   4.068  0.4634 -0.0740  0.1291
  100MOL   H21526153   5.588   1.290   4.280 -0.5668  1.3381 -0.8484
  100MOL   H21626154   5.425   1.046   4.186 -1.8269 -1.6446  2.4449
  100MOL   H21726155   5.603   0.910   4.312 -1.9648 -0.7606  2.0153
  100MOL   H21826156   5.688   1.066   4.358 -0.8107  1.6345  0.8402
  100MOL   H21926157   5.387   0.997   4.419  0.2700  0.4600  0.2790
  100MOL   H22026158   5.479   1.147   4.465 -0.1021  2.3708 -1.8851
  100MOL   H22126159   5.471   1.229   4.002 -0.4431  0.1015  1.0790
  100MOL   H22226160   5.565   1.372   4.044  0.3794 -0.1342 -0.1994
  100MOL   C22326161   5.690   1.208   4.021 -0.1082  0.0018  0.5689
  100MOL   C22426162   5.806   1.278   4.095 -0.2785 -0.3350 -0.4635
  100MOL   C22526163   5.905   1.203   4.191 -0.8512 -0.5149  0.5573
  100MOL   C22626164   5.952   1.252   4.057  0.4587  0.1960 -0.1927
  100MOL   C22726165   5.697   1.199   3.865  0.3552 -0.1700 -0.5967
  100MOL   H22826166   5.700   1.105   4.053  2.3339  1.1178  3.6626
  100MOL   H22926167   5.777   1.369   4.146 -0.1097 -0.6217  0.1488
  100MOL   H23026168   5.881   1.098   4.203 -2.8409 -0.1266  0.1852
  100MOL   H23126169   5.937   1.251   4.283  0.0924  0.2047 -0.1296
  100MOL   H23226170   6.020   1.336   4.057 -0.9790  1.4194 -1.6836
  100MOL   H23326171   5.984   1.172   3.990 -0.7481 -0.4904  0.0314
  100MOL   H23426172   5.635   1.280   3.827  1.8725  1.0123 -0.5908
  100MOL   H23526173   5.797   1.227   3.831  0.9228 -1.4277 -0.0203
  100MOL   C23626174   5.653   1.061   3.805  0.1791 -0.0769  0.4256
  100MOL   C23726175   5.784   0.976   3.786  0.5213 -0.5126  0.1462
  100MOL   C23826176   5.812   0.882   3.899  0.5801 -0.5410  0.0888
  100MOL   C23926177   5.768   0.830   3.758  0.3259 -0.1943  0.4357
  100MOL   C24026178   5.581   1.065   3.667 -0.5802  0.3537 -0.4642
  100MOL   H24126179   5.584   1.013   3.875 -0.8918 -1.2260 -1.3679
  100MOL   H24226180   5.880   1.026   3.771 -0.9258  1.8145 -1.6335
  100MOL   H24326181   5.915   0.866   3.928  0.2379  0.0334  1.6674
  100MOL   H24426182   5.744   0.872   3.983 -0.8422  2.9300 -0.5554
  100MOL   H24526183   5.671   0.784   3.744  0.4335 -0.0027 -1.0268
  100MOL   H24626184   5.852   0.790   3.702  0.7552 -0.1686  1.0563
  100MOL   H24726185   5.637   1.131   3.600  0.3779  1.7299  1.6298
  100MOL   H24826186   5.579   0.961   3.634 -1.9550  0.1733  0.1495
  100MOL   C24926187   5.435   1.112   3.669 -0.0807  0.2010  0.5176
  100MOL   C25026188   5.332   1.004   3.707  0.3836  0.1964 -0.6694
  100MOL   C25126189   5.266   1.014   3.847 -0.4143  0.3331  0.1957
  100MOL   C25226190   5.186   1.042   3.725 -0.3590 -0.2855  0.4505
  100MOL   C25326191   5.410   1.163   3.533 -0.2265 -0.3630 -0.5087
  100MOL   H25426192   5.438   1.187   3.748  0.1176 -1.7084  2.3691
  100MOL   H25526193   5.345   0.909   3.656  1.9298 -1.2512  2.2638
  100MOL   H25626194   5.252   0.916   3.892  0.1390 -0.3402 -1.0481
  100MOL   H25726195   5.294   1.097   3.911 -2.0792  2.1894 -1.4110
  100MOL   H25826196   5.104   0.981   3.689 -0.3910  0.0626 -0.0807
  100MOL   H25926197   5.164   1.148   3.708  2.7289  0.3759  0.2364
  100MOL   H26026198   5.476   1.244   3.502 -1.2161  1.1324  1.1905
  100MOL   H26126199   5.306   1.195   3.526  0.3152  1.3222 -1.1441
  100MOL   H26226200   5.422   1.081   3.463  0.8019 -0.0040 -0.7494
  101MOL     C126201   6.198   0.924   1.511  0.8932  0.0731  0.6056
  101MOL     C226202   6.081   0.838   1.551 -0.5040  0.2345 -0.0336
  101MOL     C326203   6.091   0.688   1.532  0.3105 -0.1976 -0.0363
  101MOL     C426204   6.014   0.769   1.434 -0.7836 -0.1987 -0.0099
  101MOL     C526205   6.300   0.945   1.622  0.1645 -0.3389 -0.2089
  101MOL     H626206   6.231   0.873   1.421 -0.0248 -0.2878  0.4751
  101MOL     H726207   6.022   0.879   1.631  1.1038  1.5065  0.5304
  101MOL     H826208   6.185   0.643   1.500  1.1401  0.3050  1.6590
  101MOL     H926209   6.037   0.639   1.611  1.2577 -1.0106  0.1135
  101MOL    H1026210   5.908   0.748   1.442 -0.8932  0.7013  0.9418
  101MOL    H1126211   6.048   0.803   1.336 -2.2266 -0.8265 -0.7434
  101MOL    H1226212   6.319   0.842   1.652 -1.2132 -1.0483 -1.6583
  101MOL    H1326213   6.240   0.996   1.697 -0.2576 -1.7001  0.4057
  101MOL    H1426214   6.145   1.017   1.492  2.4720  1.8092  4.1426
  101MOL    C1526215   6.444   1.003   1.588 -0.5313  0.0988  0.9220
  101MOL    C1626216   6.439   1.116   1.492 -0.2560  0.4348 -0.4295
  101MOL    C1726217   6.425   1.096   1.341  0.2075  0.3848  0.1406
  101MOL    C1826218   6.558   1.143   1.399 -0.5465 -0.2112  0.0470
  101MOL    C1926219   6.520   1.035   1.716  0.3721  0.0817  0.1117
  101MOL    H2026220   6.504   0.921   1.549  0.8831  2.0365 -1.1082
  101MOL    H2126221   6.381   1.202   1.526  2.7603  3.2265 -2.0836
  101MOL    H2226222   6.362   1.164   1.284  1.2917  1.6112  0.3969
  101MOL    H2326223   6.420   0.994   1.304 -1.6699 -0.5491  2.8662
  101MOL    H2426224   6.636   1.068   1.387  0.1943  0.2137  2.1070
  101MOL    H2526225   6.585   1.246   1.379 -0.3678 -0.3172 -0.2620
  101MOL    H2626226   6.453   1.095   1.776  1.8218  1.6956  0.1494
  101MOL    H2726227   6.592   1.109   1.682 -0.5332  0.2227 -1.5668
  101MOL    C2826228   6.583   0.914   1.786  0.2703 -0.4731  0.2032
  101MOL    C2926229   6.616   0.959   1.929 -0.3541  0.1983  0.4629
  101MOL    C3026230   6.533   0.946   2.048  0.1794  0.5458  0.7164
  101MOL    C3126231   6.663   0.866   2.036  0.5747 -0.7043  0.0243
  101MOL    C3226232   6.708   0.864   1.712  0.7356  0.1070  0.3867
  101MOL    H3326233   6.515   0.829   1.786  1.8583 -1.7883 -2.1542
  101MOL    H3426234   6.671   1.053   1.932  0.6154 -0.2937 -0.8457
  101MOL    H3526235   6.440   0.893   2.028  1.2504 -0.9896 -0.3800
  101MOL    H3626236   6.535   1.014   2.133 -0.4207  2.9994 -1.1629
  101MOL    H3726237   6.660   0.757   2.027 -1.0499 -0.8362  1.9873
  101MOL    H3826238   6.746   0.895   2.100  1.2626 -2.2495 -0.1337
  101MOL    H3926239   6.780   0.944   1.695  1.3643 -0.5153  0.1029
  101MOL    H4026240   6.677   0.841   1.610 -1.2704  0.9719  0.7734
  101MOL    C4126241   6.779   0.731   1.756  0.2864 -0.3570  0.2856
  101MOL    C4226242   6.892   0.694   1.668 -0.1769 -0.3061  0.0553
  101MOL    C4326243   7.035   0.664   1.719 -0.0950  0.8860 -0.1011
  101MOL    C4426244   7.008   0.791   1.651  0.3806  0.3368  0.1092
  101MOL    C4526245   6.675   0.619   1.771 -0.3142  0.0506 -1.2510
  101MOL    H4626246   6.811   0.766   1.854  0.2126 -1.0688  0.5671
  101MOL    H4726247   6.862   0.656   1.571 -0.2043  1.4672 -0.6388
  101MOL    H4826248   7.045   0.657   1.828 -0.5050  0.2308 -0.0984
  101MOL    H4926249   7.090   0.588   1.663 -2.1456  0.2457 -1.3111
  101MOL    H5026250   7.025   0.807   1.545  0.7311 -1.0826 -0.0507
  101MOL    H5126251   7.001   0.878   1.716 -0.5985 -0.4533  1.0901
  101MOL    H5226252   6.615   0.615   1.680 -1.8847  2.1962 -0.3604
  101MOL    H5326253   6.604   0.644   1.850  0.6715 -0.4823 -0.1838
  101MOL    C5426254   6.732   0.483   1.820  0.6092 -0.1945 -0.4092
  101MOL    C5526255   6.717   0.474   1.965 -0.6227 -0.5160 -0.4853
  101MOL    C5626256   6.822   0.544   2.049 -0.2823  0.1423  0.1377
  101MOL    C5726257   6.808   0.391   2.051 -1.1915 -0.6369 -0.3989
  101MOL    C5826258   6.660   0.367   1.748  0.0279 -0.2546 -0.1738
  101MOL    H5926259   6.838   0.478   1.793  0.3397  0.3931 -1.5850
  101MOL    H6026260   6.614   0.484   1.998  0.1042 -0.0876  1.6835
  101MOL    H6126261   6.899   0.590   1.987 -0.4761  0.4658  0.1382
  101MOL    H6226262   6.797   0.602   2.137 -0.5582  0.0467  0.1226
  101MOL    H6326263   6.749   0.343   2.128 -0.5204  1.1666  1.2758
  101MOL    H6426264   6.886   0.332   2.003  1.4115  1.4191  1.1685
  101MOL    H6526265   6.695   0.273   1.790  4.2999  1.2067 -0.1978
  101MOL    H6626266   6.557   0.355   1.782  0.1472  0.8950  0.6289
  101MOL    C6726267   6.679   0.364   1.592 -0.1482  0.2893 -0.9214
  101MOL    C6826268   6.795   0.280   1.535  0.5848 -0.0043 -0.0014
  101MOL    C6926269   6.898   0.211   1.616 -0.6078 -0.2000  0.1695
  101MOL    C7026270   6.803   0.126   1.536  0.5327 -0.2280  0.0655
  101MOL    C7126271   6.549   0.335   1.519 -0.1557 -0.5298 -0.5677
  101MOL    H7226272   6.706   0.466   1.565  1.1207 -0.0866 -1.0699
  101MOL    H7326273   6.832   0.319   1.441 -0.9339 -0.7925 -0.9592
  101MOL    H7426274   6.997   0.238   1.579 -1.6685  2.5040 -0.8620
  101MOL    H7526275   6.890   0.210   1.724 -1.4990 -0.2629  0.1059
  101MOL    H7626276   6.750   0.053   1.597  0.3880  1.1667  1.6473
  101MOL    H7726277   6.835   0.074   1.446 -0.0148 -2.7757  1.3093
  101MOL    H7826278   6.465   0.373   1.576  0.3355 -0.4163  0.0818
  101MOL    H7926279   6.538   0.226   1.517  1.4950 -0.7202  0.2137
  101MOL    C8026280   6.544   0.388   1.376 -0.9979 -0.0029 -0.9840
  101MOL    C8126281   6.478   0.528   1.378  0.1335  0.2577 -0.0823
  101MOL    C8226282   6.514   0.628   1.269 -0.0204  0.0976  0.1649
  101MOL    C8326283   6.551   0.652   1.412  0.2625 -0.1386 -0.7817
  101MOL    C8426284   6.473   0.286   1.291 -0.2307  0.2779  0.3405
  101MOL    H8526285   6.648   0.400   1.345 -0.5295 -1.1871  0.0755
  101MOL    H8626286   6.380   0.533   1.425  0.7866  1.8249  1.1507
  101MOL    H8726287   6.429   0.684   1.232 -0.4296  0.6250  1.8578
  101MOL    H8826288   6.583   0.600   1.189 -0.9004  1.6755 -1.1725
  101MOL    H8926289   6.659   0.658   1.421  0.0551 -0.9200  2.6713
  101MOL    H9026290   6.493   0.716   1.477  1.3995  1.7200 -1.5725
  101MOL    H9126291   6.378   0.254   1.333  0.2187  0.1747  1.2810
  101MOL    H9226292   6.433   0.344   1.208  1.4770  1.0687  0.0638
  101MOL    C9326293   6.548   0.155   1.250  0.8286  0.7071  0.0194
  101MOL    C9426294   6.456   0.039   1.227  0.2980 -0.0066  0.4258
  101MOL    C9526295   6.492   7.736   1.269 -0.7011 -0.5423  0.1304
  101MOL    C9626296   6.395   7.817   1.355  0.1709 -0.0276 -0.8174
  101MOL    C9726297   6.650   0.180   1.143 -0.5333  0.4138  0.3484
  101MOL    H9826298   6.612   0.127   1.334 -1.6314  2.2931  2.5002
  101MOL    H9926299   6.389   0.040   1.141  0.5009 -0.2492  0.2663
  101MOL   H10026300   6.443   7.648   1.228 -1.0017  0.1056 -0.9036
  101MOL   H10126301   6.589   7.721   1.316  0.4530 -2.3453 -2.7220
  101MOL   H10226302   6.288   7.805   1.340 -0.0282  2.3254 -1.5072
  101MOL   H10326303   6.427   0.009   1.454 -1.3251  2.9768 -1.2176
  101MOL   H10426304   6.710   0.089   1.142  0.3430  0.9725  1.5338
  101MOL   H10526305   6.719   0.257   1.177 -0.2133  0.9882 -1.5555
  101MOL   C10626306   6.599   0.208   0.993 -0.4280  0.7458 -0.6317
  101MOL   C10726307   6.559   0.357   0.992  0.1296 -0.8571 -0.5910
  101MOL   C10826308   6.506   0.409   0.859 -0.3121  0.2966  0.0682
  101MOL   C10926309   6.421   0.400   0.977  0.0998  0.5295 -0.9394
  101MOL   C11026310   6.701   0.163   0.885  0.5088 -0.3872 -0.2220
  101MOL   H11126311   6.510   0.148   0.974  0.1873  0.5616 -3.1451
  101MOL   H11226312   6.606   0.432   1.055 -2.3762 -0.1852  0.5338
  101MOL   H11326313   6.526   0.511   0.826  2.5354  0.2856  1.6031
  101MOL   H11426314   6.498   0.341   0.775  0.7478  2.2826 -1.6947
  101MOL   H11526315   6.342   0.329   0.957  1.0113  0.0063 -2.8717
  101MOL   H11626316   6.376   0.489   1.020 -0.9250  0.2346 -1.3805
  101MOL   H11726317   6.666   0.192   0.786  1.5239 -1.2292 -0.8435
  101MOL   H11826318   6.780   0.237   0.893 -1.7563  2.0939 -0.1886
  101MOL   C11926319   6.740   0.014   0.881  0.0747  0.5860  0.6259
  101MOL   C12026320   6.616   7.763   0.903  0.1141  0.4068  0.0602
  101MOL   C12126321   6.600   7.621   0.852 -0.2250  0.3497 -0.9835
  101MOL   C12226322   6.509   7.733   0.800 -0.5892 -0.4299 -0.8489
  101MOL   C12326323   6.839   7.815   0.767 -0.1058  0.2294  0.6119
  101MOL   H12426324   6.796   0.005   0.974 -0.7028  0.3642  1.0783
  101MOL   H12526325   6.582   7.779   1.006 -1.7322  0.2819 -0.5050
  101MOL   H12626326   6.552   7.542   0.910  0.9819  0.0368 -0.4035
  101MOL   H12726327   6.675   7.587   0.781 -0.6481  1.4699 -1.9801
  101MOL   H12826328   6.518   7.775   0.700  1.9831  0.5953 -0.2271
  101MOL   H12926329   6.406   7.720   0.829 -1.0372  1.4764 -1.5132
  101MOL   H13026330   6.854   7.707   0.768 -0.5454  0.1173 -1.7376
  101MOL   H13126331   6.791   0.001   0.672  1.6863 -0.8035 -0.6115
  101MOL   C13226332   6.979   0.046   0.772 -0.1825 -0.1400  0.6386
  101MOL   C13326333   7.055   7.837   0.649  0.4064  0.5255 -0.4389
  101MOL   C13426334   7.163   0.075   0.577 -0.2806  0.2917 -0.2892
  101MOL   C13526335   7.023   0.051   0.515  0.2823 -0.2893 -0.5370
  101MOL   C13626336   7.059   0.017   0.900  0.0466 -0.0542  0.1954
  101MOL   H13726337   6.977   0.153   0.754 -0.5088 -0.0371  1.3053
  101MOL   H13826338   7.069   7.729   0.648 -2.8111  0.0736 -2.1158
  101MOL   H13926339   7.192   0.173   0.614 -0.9947  0.5510 -0.4117
  101MOL   H14026340   7.241   0.021   0.524 -0.9160  0.7684 -1.7397
  101MOL   H14126341   6.955   0.136   0.518  0.4502 -0.1784  1.4856
  101MOL   H14226342   7.004   7.822   0.433  1.9375 -1.2622 -0.1500
  101MOL   H14326343   7.025   7.759   0.935 -2.0797  0.1782 -1.0873
  101MOL   H14426344   7.163   7.829   0.885 -0.9193 -3.3816 -0.9033
  101MOL   C14526345   7.046   0.115   1.019 -0.0225 -0.6957  0.6405
  101MOL   C14626346   7.108   0.055   1.144  0.3417  0.6780 -0.1726
  101MOL   C14726347   7.064   0.094   1.286 -0.2325  0.2410  0.6543
  101MOL   C14826348   7.013   7.808   1.223  0.0387 -0.0269 -0.4529
  101MOL   C14926349   7.126   0.243   0.982 -0.1889  0.2002  0.4065
  101MOL   H15026350   6.941   0.127   1.045 -0.0756 -0.5705  0.3689
  101MOL   H15126351   7.212   0.023   1.133  0.0327 -0.4103  0.0683
  101MOL   H15226352   7.127   0.069   1.371  0.0073 -2.2164 -0.2125
  101MOL   H15326353   6.993   0.176   1.303 -1.3758 -0.6866  0.3929
  101MOL   H15426354   6.906   7.804   1.209 -0.0717 -0.2150  0.4188
  101MOL   H15526355   7.056   7.717   1.264  0.3184 -0.4725 -1.7155
  101MOL   H15626356   7.231   0.219   0.966 -0.5611 -0.9326 -0.4095
  101MOL   H15726357   7.108   0.280   0.881  2.8108 -0.9435 -0.5887
  101MOL   C15826358   7.120   0.362   1.080  0.4199 -0.3304  0.2116
  101MOL   C15926359   6.976   0.409   1.094 -0.3104  0.1258 -0.1058
  101MOL   C16026360   6.934   0.541   1.154  0.9161 -0.3553  0.3702
  101MOL   C16126361   6.928   0.523   1.004  0.4153  0.5601  0.3240
  101MOL   C16226362   7.230   0.471   1.060 -0.2261 -0.0271  0.5876
  101MOL   H16326363   7.136   0.321   1.179 -0.2739 -0.0666  0.4417
  101MOL   H16426364   6.903   0.329   1.101  0.2628 -0.1531  3.3703
  101MOL   H16526365   7.011   0.605   1.198 -3.6605  3.7318  2.9749
  101MOL   H16626366   6.838   0.540   1.205  1.2859  3.3403  1.2741
  101MOL   H16726367   6.828   0.515   0.960  0.5007  0.5110  0.1377
  101MOL   H16826368   6.995   0.596   0.958  0.7836 -0.3489 -0.6059
  101MOL   H16926369   7.215   0.546   1.138 -2.4430  0.2254 -0.0455
  101MOL   H17026370   7.216   0.519   0.963 -0.2125  0.8416  1.0089
  101MOL   C17126371   7.381   0.429   1.075  0.5952  0.3303 -0.4680
  101MOL   C17226372   7.474   0.514   0.991 -0.1516  0.0259  0.4339
  101MOL   C17326373   7.576   0.456   0.905 -0.3264  0.0401  0.0395
  101MOL   C17426374   7.455   0.511   0.839 -0.2487  0.4004  0.6213
  101MOL   C17526375   7.424   0.451   1.227 -0.0246  0.1054  0.0217
  101MOL   H17626376   7.395   0.327   1.041  1.9930  0.3183  0.1267
  101MOL   H17726377   7.475   0.617   1.025  1.0499 -0.2871  1.3848
  101MOL   H17826378   7.664   0.517   0.886 -1.3047  0.5338 -3.1695
  101MOL   H17926379   7.592   0.349   0.899 -0.1168  0.1847 -2.1399
  101MOL   H18026380   7.390   0.447   0.780  1.1232 -0.1374 -0.3236
  101MOL   H18126381   7.463   0.608   0.790  0.4927 -1.4802 -3.1569
  101MOL   H18226382   7.342   0.422   1.293 -0.3987 -0.1018 -0.5283
  101MOL   H18326383   7.427   0.553   1.264 -0.0240 -0.1103  0.6269
  101MOL   C18426384   7.553   0.378   1.272 -0.1445  1.0096  0.0175
  101MOL   C18526385   7.541   0.224   1.265 -0.2746  0.0053  0.1517
  101MOL   C18626386   7.662   0.135   1.300  0.2716 -0.0212 -0.5067
  101MOL   C18726387   7.615   0.146   1.155  0.0998 -0.3925 -0.4725
  101MOL   C18826388   7.616   0.431   1.399 -0.3000 -0.2629  0.3225
  101MOL   H18926389   7.621   0.416   1.196  0.5525 -1.0973 -0.4467
  101MOL   H19026390   7.443   0.187   1.293  0.8606 -1.1744  2.7134
  101MOL   H19126391   7.644   0.044   1.357 -1.5060  1.2609  1.0157
  101MOL   H19226392   7.753   0.185   1.331  0.9126 -2.1673  1.2352
  101MOL   H19326393   7.556   0.064   1.115  0.4305 -0.8363 -0.0427
  101MOL   H19426394   7.687   0.193   1.088  0.1788  0.1868  0.0094
  101MOL   H19526395   7.617   0.540   1.387  1.7151 -0.2066  0.8426
  101MOL   H19626396   7.722   0.410   1.386 -0.6695 -1.8173 -0.3203
  101MOL   C19726397   7.548   0.383   1.537 -0.0983  0.0930  0.2095
  101MOL   C19826398   7.478   0.492   1.608  0.4307  0.3998 -0.1053
  101MOL   C19926399   7.368   0.462   1.700  0.0436  0.6706 -0.0598
  101MOL   C20026400   7.338   0.530   1.568  0.2308 -0.5092 -0.2618
  101MOL   C20126401   7.651   0.317   1.631  0.1048 -0.1841  0.9605
  101MOL   H20226402   7.476   0.306   1.510  0.1435  0.0271 -0.2595
  101MOL   H20326403   7.555   0.566   1.633 -0.1772  0.6485  1.0606
  101MOL   H20426404   7.352   0.354   1.703 -1.5925  0.8592 -1.3243
  101MOL   H20526405   7.364   0.504   1.800 -1.3394 -1.9635  1.0439
  101MOL   H20626406   7.273   0.470   1.504 -1.1550  1.2170 -0.4973
  101MOL   H20726407   7.299   0.628   1.592  0.9342 -0.8097  2.2620
  101MOL   H20826408   7.728   0.278   1.564  0.5258  2.4654 -0.1658
  101MOL   H20926409   7.701   0.404   1.672  1.8771 -0.9520  0.4776
  101MOL   C21026410   7.614   0.212   1.744 -0.1629  0.0598 -0.4824
  101MOL   C21126411   7.728   0.104   1.744  0.3950  0.3290  0.1253
  101MOL   C21226412   7.714   7.795   1.793 -0.1836 -0.1447 -0.5484
  101MOL   C21326413   7.719   7.834   1.644 -0.0807  0.6553  0.2205
  101MOL   C21426414   7.584   0.269   1.884 -0.3799 -0.4085 -0.5091
  101MOL   H21526415   7.523   0.159   1.714 -0.7640  1.1967 -0.6925
  101MOL   H21626416   7.824   0.152   1.761  0.4303  0.6528 -0.9176
  101MOL   H21726417   7.802   7.735   1.816  0.1478 -0.4063 -2.4372
  101MOL   H21826418   7.625   7.777   1.853  1.0022  2.0658  1.9972
  101MOL   H21926419   7.808   7.832   1.581 -0.8373 -1.6627 -0.8257
  101MOL   H22026420   7.624   7.821   1.592 -0.5593  0.3270  1.1630
  101MOL   H22126421   7.676   0.310   1.925 -2.5223  2.8230  1.2746
  101MOL   H22226422   7.517   0.355   1.881 -1.9853 -1.4913  2.6292
  101MOL   C22326423   7.534   0.172   1.994  0.3526 -0.6579 -0.1695
  101MOL   C22426424   7.392   0.131   1.986 -0.3929  0.1373 -0.2543
  101MOL   C22526425   7.354   0.028   1.888 -0.2774  0.7884 -0.7519
  101MOL   C22626426   7.325   0.008   2.039  0.1081 -1.2802 -0.1420
  101MOL   C22726427   7.560   0.237   2.134 -0.0237 -0.6430  0.6137
  101MOL   H22826428   7.592   0.080   1.991  0.2257 -0.6973 -2.6861
  101MOL   H22926429   7.321   0.214   1.994  1.1615  1.4234  0.7005
  101MOL   H23026430   7.438   7.816   1.840 -0.0212  1.6437 -1.2199
  101MOL   H23126431   7.272   0.048   1.820 -1.2292  0.5566  0.3189
  101MOL   H23226432   7.225   0.011   2.080 -0.8457  0.7116 -2.4859
  101MOL   H23326433   7.395   7.778   2.086  0.0326 -2.1856 -1.3364
  101MOL   H23426434   7.492   0.322   2.127  0.3260 -0.5407 -1.6513
  101MOL   H23526435   7.510   0.171   2.206 -1.6745 -0.0836 -0.0021
  101MOL   C23626436   7.692   0.286   2.190  0.4973  0.3418 -0.4452
  101MOL   C23726437   7.792   0.173   2.190 -0.0642 -0.0209 -0.8628
  101MOL   C23826438   0.043   0.136   2.075  0.1386 -0.2607  0.2723
  101MOL   C23926439   0.109   0.197   2.199  0.0145 -0.1267  0.1997
  101MOL   C24026440   7.665   0.344   2.330  0.4288  0.0533  0.1474
  101MOL   H24126441   7.730   0.363   2.122  2.0975 -1.5815 -1.7712
  101MOL   H24226442   7.758   0.086   2.246 -0.7359  1.1144  0.5155
  101MOL   H24326443   0.051   0.030   2.051 -1.0009 -0.6190  1.4324
  101MOL   H24426444   0.024   0.205   1.993  0.1998  0.1143  0.5696
  101MOL   H24526445   0.154   0.295   2.185  0.5685 -0.3895  0.1241
  101MOL   H24626446   0.179   0.128   2.246  1.3471  0.9179 -0.2155
  101MOL   H24726447   7.624   0.255   2.378  0.6953 -0.3568 -0.3812
  101MOL   H24826448   7.761   0.361   2.377  0.7387 -0.2119 -0.3883
  101MOL   C24926449   7.578   0.469   2.354 -0.0445 -0.1143  0.0573
  101MOL   C25026450   7.651   0.597   2.314 -0.1885 -0.0520 -0.1646
  101MOL   C25126451   7.623   0.667   2.186 -0.8747  0.4716 -0.1452
  101MOL   C25226452   7.588   0.733   2.319  0.0777  0.4675 -0.4928
  101MOL   C25326453   7.534   0.486   2.504 -0.8090 -0.5028 -0.1463
  101MOL   H25426454   7.492   0.460   2.287 -0.2503  0.0848  0.2945
  101MOL   H25526455   7.750   0.601   2.358 -0.7803 -0.9491  1.2860
  101MOL   H25626456   7.717   0.698   2.139 -0.7230  0.3812  0.0960
  101MOL   H25726457   7.538   0.647   2.121  0.2305  0.9929 -1.7998
  101MOL   H25826458   7.645   0.819   2.351  0.5176  0.3459 -0.9486
  101MOL   H25926459   7.483   0.739   2.347 -0.1425 -0.3845 -1.1063
  101MOL   H26026460   7.497   0.394   2.549  0.0047 -0.5223  0.5087
  101MOL   H26126461   7.462   0.567   2.520  1.4116  1.1092  2.1010
  101MOL   H26226462   7.617   0.517   2.568 -0.7833  1.7380 -1.2095
  102MOL     C126463   1.498   6.874   6.739  0.3188 -0.5790  0.3644
  102MOL     C226464   1.586   6.912   6.625  0.7585  0.0571  0.4349
  102MOL     C326465   1.566   6.868   6.485  0.5182 -0.4881  0.9727
  102MOL     C426466   1.672   6.803   6.560 -0.4235  0.2746 -0.5711
  102MOL     C526467   1.556   6.938   6.874 -0.8020  0.1355 -0.2264
  102MOL     H626468   1.399   6.913   6.718 -0.2754 -0.6988  2.8586
  102MOL     H726469   1.631   7.011   6.628 -0.3824  0.5553  1.4708
  102MOL     H826470   1.479   6.805   6.468 -1.3730  1.7223  2.1700
  102MOL     H926471   1.601   6.943   6.415  1.1081  0.6902  2.4873
  102MOL    H1026472   1.775   6.834   6.549  0.5375 -3.0280 -1.4941
  102MOL    H1126473   1.665   6.699   6.590  3.2135 -0.3491 -1.6680
  102MOL    H1226474   1.594   7.039   6.859  2.5072 -0.9744  0.2627
  102MOL    H1326475   1.645   6.881   6.899  0.5854  2.1060 -0.5453
  102MOL    H1426476   1.482   6.767   6.754 -0.4093 -0.8121 -1.9033
  102MOL    C1526477   1.460   6.955   6.990 -0.2188  0.2527  0.0979
  102MOL    C1626478   1.556   6.980   7.115 -0.2060  0.0366  0.3068
  102MOL    C1726479   1.605   6.864   7.205 -0.0667 -0.9511  0.0811
  102MOL    C1826480   1.506   6.965   7.259  0.0239 -0.0714 -0.0213
  102MOL    C1926481   1.368   7.075   6.970 -0.3311 -0.5318 -0.0697
  102MOL    H2026482   1.404   6.862   7.003 -0.4161  0.3023 -0.3671
  102MOL    H2126483   1.615   7.071   7.110 -0.7862  0.3172 -1.7811
  102MOL    H2226484   1.709   6.882   7.232 -0.8878  0.1753  2.7077
  102MOL    H2326485   1.574   6.760   7.201 -1.0366 -0.6619 -0.0058
  102MOL    H2426486   1.402   6.935   7.261  0.3125 -1.0512  0.5371
  102MOL    H2526487   1.551   7.015   7.345  1.1314 -0.0010 -0.6306
  102MOL    H2626488   1.395   7.133   6.882 -1.6560  0.9292  0.4741
  102MOL    H2726489   1.398   7.152   7.041 -1.6338  0.6539 -0.7700
  102MOL    C2826490   1.216   7.051   6.988  0.5575 -0.1268 -0.4339
  102MOL    C2926491   1.151   6.964   6.885  0.0927  0.5342 -0.7983
  102MOL    C3026492   1.129   6.818   6.908 -0.4132  0.3228 -0.5576
  102MOL    C3126493   1.013   6.907   6.901 -0.3971 -0.8364  0.9619
  102MOL    C3226494   1.142   7.192   7.008 -0.0400  0.1023  0.1042
  102MOL    H3326495   1.206   7.000   7.084 -1.9108  1.6355  0.2770
  102MOL    H3426496   1.182   6.990   6.784  1.2023  0.1320 -0.5677
  102MOL    H3526497   1.171   6.787   7.003  1.1015  1.0685 -0.9595
  102MOL    H3626498   1.174   6.752   6.833  0.2570  0.0038  0.1143
  102MOL    H3726499   0.964   6.934   6.994  0.8260  2.6689  0.6667
  102MOL    H3826500   0.954   6.901   6.809 -1.9170  2.4439  1.6508
  102MOL    H3926501   1.174   7.239   7.100  0.0314  0.8325 -0.2917
  102MOL    H4026502   1.036   7.164   7.017 -0.4355  1.6269  0.2698
  102MOL    C4126503   1.160   7.300   6.897 -0.0897 -0.0134  0.0283
  102MOL    C4226504   1.154   7.441   6.962 -0.5076 -1.0882 -0.8259
  102MOL    C4326505   1.206   7.562   6.895 -0.1747 -0.5073 -0.5843
  102MOL    C4426506   1.282   7.514   7.021  0.6981 -0.2259  0.3666
  102MOL    C4526507   1.050   7.298   6.787  0.3619 -0.1455 -0.4923
  102MOL    H4626508   1.257   7.299   6.848 -0.9975  1.6411 -1.8470
  102MOL    H4726509   1.060   7.459   7.013 -1.2506 -1.8198 -1.8967
  102MOL    H4826510   1.255   7.550   6.798 -0.5247  0.8645 -0.9465
  102MOL    H4926511   1.127   7.637   6.900 -1.7872 -2.2302  0.4419
  102MOL    H5026512   1.279   7.578   7.109  0.7058 -0.8336  0.8092
  102MOL    H5126513   1.377   7.467   6.998  0.7771  0.8463 -1.6802
  102MOL    H5226514   0.974   7.371   6.813  0.9574 -0.1586  1.2974
  102MOL    H5326515   1.010   7.197   6.778  0.7620 -0.3675  0.1916
  102MOL    C5426516   1.108   7.336   6.652 -0.9073  0.6360 -0.3308
  102MOL    C5526517   1.197   7.227   6.595  0.0373  0.2653 -0.1763
  102MOL    C5626518   1.346   7.238   6.608 -0.1836  0.2840 -0.1746
  102MOL    C5726519   1.278   7.258   6.473 -0.0458 -0.3587  0.9381
  102MOL    C5826520   0.999   7.373   6.545 -0.0076 -0.2485  0.0927
  102MOL    H5926521   1.165   7.428   6.666 -0.7257  0.3318  0.9664
  102MOL    H6026522   1.151   7.129   6.585 -0.8632  0.5701  0.8452
  102MOL    H6126523   1.391   7.326   6.654  2.0103 -2.0090  2.1481
  102MOL    H6226524   1.400   7.146   6.625 -0.0041  0.3165 -0.5614
  102MOL    H6326525   1.283   7.175   6.403  0.3592 -0.5272  1.1690
  102MOL    H6426526   1.295   7.359   6.436 -1.3667 -0.6770 -0.5754
  102MOL    H6526527   1.006   7.300   6.464  0.2016  2.3876 -2.3371
  102MOL    H6626528   0.905   7.348   6.594  0.1066  1.9502  1.5184
  102MOL    C6726529   1.001   7.520   6.496 -0.4893  0.3174 -0.1491
  102MOL    C6826530   0.908   7.539   6.375  0.1266  0.5989  0.3037
  102MOL    C6926531   0.883   7.446   6.256  0.7910  0.7591  0.4110
  102MOL    C7026532   0.770   7.485   6.353 -0.2214  0.3264  0.0127
  102MOL    C7126533   0.972   7.622   6.601 -0.4385  0.0674  0.8275
  102MOL    H7226534   1.101   7.527   6.452 -1.4764  0.2200 -2.5120
  102MOL    H7326535   0.930   7.639   6.338 -0.3735  1.5501  2.4844
  102MOL    H7426536   0.877   7.510   6.168  0.2932  1.4050  0.9200
  102MOL    H7526537   0.916   7.343   6.243 -3.0028 -0.3348 -1.2178
  102MOL    H7626538   0.738   7.408   6.424  0.2214  0.5909  0.5070
  102MOL    H7726539   0.704   7.569   6.335  1.6734  2.1948  1.5057
  102MOL    H7826540   1.006   7.582   6.697 -1.7006 -1.3669  0.6978
  102MOL    H7926541   0.865   7.615   6.620 -0.4061  0.9729  1.3776
  102MOL    C8026542   1.012   7.770   6.572 -0.3356  1.1280 -0.0656
  102MOL    C8126543   1.158   7.778   6.541  0.6289 -0.4534  0.4163
  102MOL    C8226544   1.203   0.057   6.459  0.8250 -0.2397 -0.1145
  102MOL    C8326545   1.215   7.759   6.401  0.5745  0.4111 -0.8029
  102MOL    C8426546   0.965   0.010   6.690  0.1637 -0.0986 -0.4656
  102MOL    H8526547   0.963   7.807   6.482  0.8218  1.3984 -0.6058
  102MOL    H8626548   1.219   7.755   6.628  0.4867 -0.6653  0.4616
  102MOL    H8726549   1.291   0.112   6.490  1.1895  0.2099 -1.9076
  102MOL    H8826550   1.137   0.125   6.405  0.3403  0.0791  0.8718
  102MOL    H8926551   1.143   7.729   6.325  0.1985  1.6948 -0.9806
  102MOL    H9026552   1.317   7.722   6.390  0.2195 -1.6439  2.4285
  102MOL    H9126553   1.021   7.813   6.775  3.7274  3.2437 -1.2334
  102MOL    H9226554   1.017   0.106   6.683  1.3480 -0.5139  2.2621
  102MOL    C9326555   0.808   0.033   6.708  0.3569 -0.0074 -0.4322
  102MOL    C9426556   0.772   0.070   6.845  0.0033  0.6618 -0.0362
  102MOL    C9526557   0.640   0.037   6.905  0.4325  0.5301 -0.2277
  102MOL    C9626558   0.768   7.808   6.953  0.5116 -0.2394 -0.2929
  102MOL    C9726559   0.750   0.136   6.608  0.8775 -0.0639  0.3125
  102MOL    H9826560   0.749   7.782   6.690 -0.1026  0.2600 -0.2384
  102MOL    H9926561   0.811   0.162   6.886 -1.8755  1.8164 -0.7526
  102MOL   H10026562   0.603   0.127   6.953  1.4094  1.5248 -1.2866
  102MOL   H10126563   0.565   7.823   6.847  1.2473 -0.7187 -0.1637
  102MOL   H10226564   0.810   7.838   7.049  0.3309 -1.9950  0.3398
  102MOL   H10326565   0.786   7.703   6.931 -1.0040 -0.5423 -0.1541
  102MOL   H10426566   0.797   0.121   6.511  2.4274  0.6459  0.9256
  102MOL   H10526567   0.776   0.236   6.644  0.9063 -0.3572  1.1210
  102MOL   C10626568   0.601   0.145   6.563 -0.9397  0.3734 -0.4103
  102MOL   C10726569   0.574   0.267   6.480  0.8855 -0.1102 -0.3700
  102MOL   C10826570   0.441   0.333   6.462  0.1968 -0.8050 -0.5317
  102MOL   C10926571   0.549   0.397   6.552  0.3264 -0.4005 -0.3597
  102MOL   C11026572   0.572   0.023   6.469 -0.4655  0.5032 -0.4545
  102MOL   H11126573   0.534   0.146   6.650  0.4090 -0.7308  0.6731
  102MOL   H11226574   0.637   0.280   6.393  1.5067 -1.4760 -0.1263
  102MOL   H11326575   0.415   0.376   6.366  0.8151 -0.7841 -0.6909
  102MOL   H11426576   0.349   0.307   6.514  0.6585 -0.2240  0.5823
  102MOL   H11526577   0.535   0.387   6.659  4.3796  0.9419  0.3907
  102MOL   H11626578   0.596   0.489   6.518  1.4635  0.0145  2.2197
  102MOL   H11726579   0.639   0.027   6.383 -0.2148 -0.9497 -0.3342
  102MOL   H11826580   0.603   7.773   6.522  1.5104  0.5874 -1.4258
  102MOL   C11926581   0.430   0.001   6.423  0.2538 -0.3449  0.2463
  102MOL   C12026582   0.423   7.811   6.270  0.0352 -0.3236  0.4512
  102MOL   C12126583   0.416   0.089   6.167  0.3935 -0.4448 -0.3467
  102MOL   C12226584   0.290   0.008   6.189  0.1086 -0.3906  0.3151
  102MOL   C12326585   0.346   7.729   6.500 -0.2873  0.1963 -0.2740
  102MOL   H12426586   0.374   0.094   6.436 -0.0145 -0.5429  0.5165
  102MOL   H12526587   0.484   7.725   6.247  1.4532  0.5402  0.9527
  102MOL   H12626588   0.485   0.077   6.084  1.4122  0.7450  0.3213
  102MOL   H12726589   0.408   0.189   6.210 -1.8316 -0.0203 -1.6582
  102MOL   H12826590   0.211   0.066   6.237 -0.7937 -1.3348 -0.0250
  102MOL   H12926591   0.254   7.793   6.102  1.4594 -0.2382 -0.3560
  102MOL   H13026592   0.265   7.700   6.432 -0.8737  0.2031  0.4234
  102MOL   H13126593   0.412   7.642   6.498  1.7568  1.7243 -1.6561
  102MOL   C13226594   0.290   7.774   6.636 -0.0554 -0.0599  0.3275
  102MOL   C13326595   0.224   7.655   6.707 -0.2444 -0.6126  0.6673
  102MOL   C13426596   0.230   7.634   6.854 -0.4206  0.4949 -0.0641
  102MOL   C13526597   0.312   7.547   6.766 -0.4474 -0.7770 -0.2345
  102MOL   C13626598   0.188   0.045   6.610  0.8093  0.2074  0.1633
  102MOL   H13726599   0.370   7.811   6.700 -0.7465  2.2134 -0.0882
  102MOL   H13826600   0.132   7.629   6.656  0.1815  1.1063 -1.0015
  102MOL   H13926601   0.286   7.705   6.915 -0.4969  0.1967  0.3546
  102MOL   H14026602   0.137   7.594   6.894 -0.9753  0.2824 -1.5210
  102MOL   H14126603   0.420   7.558   6.769 -0.7576  2.7931  0.9105
  102MOL   H14226604   0.271   7.447   6.756 -1.9524 -0.3392  1.2431
  102MOL   H14326605   0.233   0.129   6.557  0.6624 -0.3480 -0.8571
  102MOL   H14426606   0.120   0.008   6.533  0.7709 -0.2677  0.4221
  102MOL   C14526607   0.118   0.103   6.739  0.1615 -0.0071  0.3730
  102MOL   C14626608   0.215   0.213   6.796  0.2627  0.0568 -0.0092
  102MOL   C14726609   0.224   0.245   6.941 -0.2585  0.4196 -0.1432
  102MOL   C14826610   0.341   0.177   6.874  0.3311  0.2778 -0.3495
  102MOL   C14926611   7.823   0.169   6.695 -0.5245 -0.0978  0.4135
  102MOL   H15026612   0.092   0.023   6.808  3.9872 -0.8564  0.9553
  102MOL   H15126613   0.220   0.305   6.737  0.2440  1.5034  2.1860
  102MOL   H15226614   0.230   0.349   6.972  0.7802 -0.1146  1.5397
  102MOL   H15326615   0.164   0.189   7.013 -1.5629  0.7417 -0.9694
  102MOL   H15426616   0.347   0.070   6.893 -0.0296  0.5426  1.3888
  102MOL   H15526617   0.433   0.226   6.844  0.6143  0.1812  0.3529
  102MOL   H15626618   7.839   0.266   6.649 -3.2493  0.8241  1.3135
  102MOL   H15726619   7.775   0.114   6.614 -0.8025  2.5620 -1.2680
  102MOL   C15826620   7.726   0.181   6.816  0.5203  0.2172 -0.2811
  102MOL   C15926621   7.610   0.079   6.790 -0.4673 -0.7071 -0.8581
  102MOL   C16026622   7.631   7.767   6.817 -0.2780 -0.3016 -1.0444
  102MOL   C16126623   7.550   0.013   6.912 -0.0519  0.1825 -0.0101
  102MOL   C16226624   7.672   0.324   6.826  0.3482  0.5247 -0.4907
  102MOL   H16326625   7.786   0.152   6.903  1.4722  0.1728 -0.9449
  102MOL   H16426626   7.538   0.108   6.714  1.8649  3.3299 -1.6890
  102MOL   H16526627   7.727   7.738   6.859 -0.0908 -0.5211 -1.6266
  102MOL   H16626628   7.598   7.698   6.739  1.2947 -3.6464  1.1360
  102MOL   H16726629   7.442   0.004   6.909  0.0006 -0.0136 -2.8737
  102MOL   H16826630   7.595   0.039   7.007  1.1714 -1.6773 -0.0558
  102MOL   H16926631   7.610   0.335   6.736  2.1210 -0.6003 -1.8979
  102MOL   H17026632   7.752   0.396   6.811 -0.7695  1.8270 -0.3170
  102MOL   C17126633   7.596   0.362   6.951  0.3687 -0.5903  0.4343
  102MOL   C17226634   7.690   0.363   7.075 -0.4548 -0.6292  0.6019
  102MOL   C17326635   7.644   0.391   7.219  0.1804  0.0251  1.0217
  102MOL   C17426636   7.686   0.248   7.179  0.2853  0.2295  0.4576
  102MOL   C17526637   7.512   0.482   6.923  0.4423  0.3005  0.2786
  102MOL   H17626638   7.530   0.280   6.978 -0.4899  0.0886  0.4125
  102MOL   H17726639   7.792   0.397   7.060 -0.7680 -0.5292 -1.3857
  102MOL   H17826640   7.709   0.426   7.299  0.8654 -0.1442  0.5467
  102MOL   H17926641   7.542   0.427   7.227  0.9663  2.0476  2.4671
  102MOL   H18026642   7.603   0.179   7.181 -0.4227  1.0855  1.0209
  102MOL   H18126643   7.782   0.219   7.221 -0.4885  0.4978  2.4750
  102MOL   H18226644   7.443   0.489   7.006  1.0776  0.0547  0.8288
  102MOL   H18326645   7.439   0.449   6.849  1.4168  0.3744 -0.7382
  102MOL   C18426646   7.582   0.614   6.878 -0.1395 -0.2812 -0.6014
  102MOL   C18526647   7.666   0.679   6.986 -0.7215  0.4388  0.4311
  102MOL   C18626648   7.769   0.776   6.934  0.3108 -0.3205  0.0618
  102MOL   C18726649   7.809   0.644   7.012  0.1517 -0.5644 -0.3108
  102MOL   C18826650   7.477   0.725   6.845  0.3298 -0.0159 -0.2021
  102MOL   H18926651   7.638   0.586   6.789 -1.6584 -2.1681 -0.9958
  102MOL   H19026652   7.610   0.718   7.070 -0.4217  1.9079 -0.0389
  102MOL   H19126653   7.792   0.868   6.988  1.5167 -0.0444 -0.8892
  102MOL   H19226654   7.791   0.773   6.827 -0.6858 -0.7307 -0.1357
  102MOL   H19326655   0.014   0.656   7.111 -0.1076  0.6716 -0.3361
  102MOL   H19426656   0.025   0.571   6.954  0.3705  1.4690 -2.7360
  102MOL   H19526657   7.536   0.812   6.817  0.9454 -0.8186 -1.4459
  102MOL   H19626658   7.410   0.743   6.929 -1.6820 -0.1732 -1.7260
  102MOL   C19726659   7.380   0.708   6.723 -0.1210 -1.1595  0.2688
  102MOL   C19826660   7.248   0.627   6.745 -0.4094  0.2090 -0.9695
  102MOL   C19926661   7.125   0.662   6.666 -0.5754 -0.1863  0.0864
  102MOL   C20026662   7.126   0.684   6.816 -0.4343 -0.8683 -0.2085
  102MOL   C20126663   7.458   0.650   6.601  0.5362  0.1271 -0.1414
  102MOL   H20226664   7.353   0.810   6.695 -1.9760 -1.1977  1.8054
  102MOL   H20326665   7.267   0.521   6.760 -0.7246  0.5023  1.7126
  102MOL   H20426666   7.131   0.740   6.591 -0.7224 -1.6812 -1.5202
  102MOL   H20526667   7.066   0.574   6.639 -0.4698 -0.4000  0.5478
  102MOL   H20626668   7.130   0.787   6.851 -1.4046 -0.9598  0.2092
  102MOL   H20726669   7.050   0.629   6.871 -1.0273  2.2628  2.2930
  102MOL   H20826670   7.554   0.701   6.595 -0.0444  1.1929 -0.4127
  102MOL   H20926671   7.475   0.548   6.636  0.8633  0.8494  1.9008
  102MOL   C21026672   7.397   0.665   6.454 -0.4649  0.3953 -0.7768
  102MOL   C21126673   7.417   0.792   6.372 -0.1990 -0.1859  0.0094
  102MOL   C21226674   7.336   0.825   6.247 -0.2968 -0.3723 -0.8085
  102MOL   C21326675   7.310   0.906   6.371 -0.4749  0.0055  0.9000
  102MOL   C21426676   7.450   0.545   6.366 -0.6003 -0.1309 -0.1443
  102MOL   H21526677   7.289   0.656   6.458 -0.4165 -0.2796 -1.0564
  102MOL   H21626678   7.523   0.817   6.373  0.1549 -1.6913  0.7989
  102MOL   H21726679   7.376   0.876   6.160 -3.5649 -0.0569 -2.1897
  102MOL   H21826680   7.252   0.760   6.224 -1.1899  1.6027 -3.3641
  102MOL   H21926681   7.341   1.010   6.377 -0.8644  0.1352  0.6543
  102MOL   H22026682   7.222   0.888   6.433  0.1876  0.7289  2.0501
  102MOL   H22126683   7.407   0.567   6.268  0.6618 -2.1997 -1.1982
  102MOL   H22226684   7.558   0.552   6.353 -0.4983 -1.7343 -0.3308
  102MOL   C22326685   7.419   0.393   6.413 -0.2822 -0.0977 -0.0946
  102MOL   C22426686   7.500   0.297   6.322  0.5714  0.4674  0.2018
  102MOL   C22526687   7.654   0.305   6.323 -0.1247 -0.5084  0.0755
  102MOL   C22626688   7.585   0.174   6.360  0.2618  0.0389 -0.5601
  102MOL   C22726689   7.269   0.364   6.413 -0.2152 -0.9759  1.5530
  102MOL   H22826690   7.453   0.373   6.515 -1.0305  1.1506  0.4147
  102MOL   H22926691   7.463   0.280   6.221  1.2042  2.1504 -0.3334
  102MOL   H23026692   7.706   0.340   6.412  0.5598  0.0944 -0.5556
  102MOL   H23126693   7.713   0.308   6.232 -0.6192 -0.1758 -0.2405
  102MOL   H23226694   7.611   0.087   6.300  4.1544 -0.0718  1.0892
  102MOL   H23326695   7.576   0.142   6.464  0.0826 -1.4276 -1.0157
  102MOL   H23426696   7.215   0.415   6.492  2.5479  0.6794  2.4290
  102MOL   H23526697   7.228   0.416   6.327  1.0684 -1.5599  0.5598
  102MOL   C23626698   7.207   0.233   6.398 -0.2297 -0.0574  0.3422
  102MOL   C23726699   7.060   0.256   6.386  0.4786  0.5065  0.7518
  102MOL   C23826700   6.986   0.299   6.258  1.1221  0.0037 -0.6048
  102MOL   C23926701   6.974   0.157   6.311  0.5331 -0.4038  1.1370
  102MOL   C24026702   7.248   0.145   6.511  0.0671 -0.3088  0.4524
  102MOL   H24126703   7.239   0.194   6.302  1.0423  2.3285 -0.2611
  102MOL   H24226704   7.017   0.298   6.476  0.2749  1.1124  0.3820
  102MOL   H24326705   6.895   0.357   6.269  0.4965 -0.9983 -0.4835
  102MOL   H24426706   7.023   0.306   6.156 -2.6935  0.3974 -2.0340
  102MOL   H24526707   7.014   0.084   6.242  0.1410  0.4588 -0.0200
  102MOL   H24626708   6.880   0.138   6.363 -0.4387  1.5079  0.1507
  102MOL   H24726709   7.346   0.166   6.554 -0.5786  1.6829  1.0274
  102MOL   H24826710   7.174   0.169   6.587 -1.8758 -3.2058 -0.4544
  102MOL   C24926711   7.230   7.831   6.487 -0.3509  0.2738  0.0527
  102MOL   C25026712   7.194   7.759   6.619 -0.0293  0.5133  0.0960
  102MOL   C25126713   7.051   7.747   6.674 -0.1763 -0.1308 -0.7922
  102MOL   C25226714   7.135   7.624   6.623  0.7710 -0.3181  0.2361
  102MOL   C25326715   7.351   7.774   6.425 -0.1359  0.5705 -0.1282
  102MOL   H25426716   7.148   7.810   6.419 -1.0732  1.0693  0.6612
  102MOL   H25526717   7.276   7.766   6.689  2.1217  0.6887 -2.3578
  102MOL   H25626718   7.044   7.758   6.781 -1.1542  0.2111 -0.8941
  102MOL   H25726719   6.974   7.788   6.609 -1.1434 -1.7467 -0.6737
  102MOL   H25826720   7.173   7.554   6.697 -0.2610 -1.1159  0.0192
  102MOL   H25926721   7.098   7.572   6.535  2.6699 -1.8655  0.3154
  102MOL   H26026722   7.374   7.821   6.329  4.1661  0.5870  0.7732
  102MOL   H26126723   7.348   7.665   6.413 -3.4063  0.5078  0.8345
  102MOL   H26226724   7.434   7.787   6.495  0.1470 -1.2930 -0.0723
  103MOL     C126725   7.086   1.498   7.136  0.2970  0.0391  0.1478
  103MOL     C226726   7.044   1.604   7.235  0.1398  0.6599 -0.5561
  103MOL     C326727   6.928   1.690   7.221  0.4636 -0.0304  0.0935
  103MOL     C426728   7.064   1.754   7.213 -1.0008 -0.1050 -0.4288
  103MOL     C526729   6.994   1.372   7.147 -0.2024 -0.3148 -0.5088
  103MOL     H626730   7.072   1.542   7.037  0.1410 -0.7529 -0.1895
  103MOL     H726731   7.047   1.568   7.337  0.8082 -2.9574 -1.7740
  103MOL     H826732   6.867   1.691   7.131  2.6284  0.9536 -1.4001
  103MOL     H926733   6.865   1.696   7.309  0.8968  1.6051  0.3123
  103MOL    H1026734   7.097   1.820   7.294 -0.7181 -2.3348  1.3023
  103MOL    H1126735   7.065   1.789   7.110  1.7235 -2.4615 -1.2654
  103MOL    H1226736   6.892   1.404   7.128 -0.2355 -0.0239  0.1278
  103MOL    H1326737   6.995   1.330   7.248 -0.7002 -1.1232 -0.8433
  103MOL    H1426738   7.189   1.469   7.156 -0.3670 -3.7594 -1.3384
  103MOL    C1526739   7.043   1.265   7.055  0.1815 -0.7828  0.1916
  103MOL    C1626740   6.940   1.153   7.059  0.4063  0.1111 -0.3430
  103MOL    C1726741   6.906   1.072   7.186 -0.2444  0.2674  0.4844
  103MOL    C1826742   6.990   1.018   7.081 -0.0113  0.7100 -0.3023
  103MOL    C1926743   7.064   1.308   6.901  0.3750 -0.0365  0.0078
  103MOL    H2026744   7.135   1.226   7.098  1.3197  1.5892 -0.0200
  103MOL    H2126745   6.864   1.158   6.981  1.5357 -0.8135 -1.5342
  103MOL    H2226746   6.806   1.039   7.212 -0.1491  2.6257  4.2164
  103MOL    H2326747   6.965   1.100   7.272  0.4344 -1.1283  0.4811
  103MOL    H2426748   7.094   1.001   7.106 -0.2815 -1.4080 -0.5335
  103MOL    H2526749   6.950   0.937   7.021 -1.1161  1.3079 -0.3848
  103MOL    H2626750   6.998   1.392   6.882 -0.6042 -0.4594  1.5084
  103MOL    H2726751   7.014   1.241   6.831 -1.8790  2.9900 -1.3700
  103MOL    C2826752   7.205   1.353   6.859 -0.5326 -0.0537 -0.3917
  103MOL    C2926753   7.213   1.447   6.740  0.4137 -0.3367 -0.0888
  103MOL    C3026754   7.158   1.588   6.726 -0.0172  0.4922  0.9739
  103MOL    C3126755   7.304   1.570   6.740  0.1052 -0.0699  0.0610
  103MOL    C3226756   7.295   1.225   6.849 -0.2132 -0.0968  0.1194
  103MOL    H3326757   7.242   1.420   6.936 -0.9796  1.7499 -1.7251
  103MOL    H3426758   7.220   1.391   6.647  0.2094 -1.9062  0.8141
  103MOL    H3526759   7.101   1.622   6.813  2.1792  1.8362  1.9295
  103MOL    H3626760   7.123   1.618   6.628 -1.2466 -1.7691  0.6702
  103MOL    H3726761   7.329   1.609   6.839  1.4320  2.3826 -1.2190
  103MOL    H3826762   7.364   1.592   6.652  2.0571 -0.9351  1.1506
  103MOL    H3926763   7.277   1.173   6.755 -1.4136  0.1651  0.1964
  103MOL    H4026764   7.270   1.147   6.921 -0.8605  0.4339  0.4722
  103MOL    C4126765   7.453   1.255   6.842 -0.0845 -0.5357 -1.0159
  103MOL    C4226766   7.532   1.129   6.802 -1.0316  0.0327 -0.1665
  103MOL    C4326767   7.649   1.125   6.702 -0.4583  0.6085 -0.3884
  103MOL    C4426768   7.511   1.086   6.658 -0.0216  0.5717 -0.0290
  103MOL    C4526769   7.512   1.305   6.976 -0.0777 -0.0028  0.0033
  103MOL    H4626770   7.470   1.331   6.766 -1.1712  0.1953 -0.5373
  103MOL    H4726771   7.518   1.056   6.881 -0.9704 -0.8497 -0.9592
  103MOL    H4826772   7.698   1.220   6.682  2.4705 -0.7124  0.2923
  103MOL    H4926773   7.718   1.044   6.725 -0.0502  1.0605  0.0031
  103MOL    H5026774   7.501   0.979   6.641  1.4442  0.5438 -0.7216
  103MOL    H5126775   7.457   1.155   6.592 -0.9835  0.4988  0.6622
  103MOL    H5226776   7.495   1.221   7.042 -0.1839  0.3111  0.3747
  103MOL    H5326777   7.452   1.392   7.001 -1.8893 -1.3604  0.4750
  103MOL    C5426778   7.655   1.376   6.988  0.0745 -0.0297 -0.7818
  103MOL    C5526779   7.659   1.521   6.935  0.4355 -0.3475  0.2683
  103MOL    C5626780   7.669   1.553   6.789 -0.4813  0.0864 -0.2998
  103MOL    C5726781   7.780   1.584   6.886 -0.5721  0.2855  0.6216
  103MOL    C5826782   7.704   1.382   7.139 -0.8514  0.1294 -0.1903
  103MOL    H5926783   7.732   1.319   6.936 -0.3477 -1.7884  0.4522
  103MOL    H6026784   7.601   1.588   6.999  0.7532  0.5217 -0.3472
  103MOL    H6126785   7.686   1.470   6.721  0.9524  0.8697 -0.9125
  103MOL    H6226786   7.603   1.635   6.760 -0.3097  0.4952  0.4623
  103MOL    H6326787   7.796   1.691   6.898  0.1459  0.4555 -1.5725
  103MOL    H6426788   0.028   1.519   6.896 -0.8376 -0.5981 -2.3045
  103MOL    H6526789   7.766   1.471   7.136 -0.0839 -0.3611  1.0540
  103MOL    H6626790   7.618   1.401   7.202 -0.1157  2.0331  0.2480
  103MOL    C6726791   7.791   1.268   7.197 -0.2717 -0.3069  0.2398
  103MOL    C6826792   0.078   1.237   7.110 -0.2930 -0.3565 -0.5731
  103MOL    C6926793   0.132   1.093   7.113  0.2867  0.5613  0.3209
  103MOL    C7026794   0.079   1.146   6.988 -0.9710 -0.3938  0.2537
  103MOL    C7126795   0.005   1.291   7.344 -0.4471  0.9591 -0.1616
  103MOL    H7226796   7.725   1.180   7.198  0.8173 -1.1239  2.1461
  103MOL    H7326797   0.155   1.312   7.131  0.1041 -1.0916  0.6800
  103MOL    H7426798   0.239   1.080   7.126  0.3060  0.9350  0.5550
  103MOL    H7526799   0.070   1.025   7.172 -0.3924  1.7507  1.0019
  103MOL    H7626800   7.820   1.117   6.951 -0.4250  0.1835 -1.7008
  103MOL    H7726801   0.146   1.182   6.911 -3.2697  2.5523 -0.4454
  103MOL    H7826802   0.061   1.384   7.336  0.1192  0.5275 -1.3170
  103MOL    H7926803   0.068   1.210   7.380 -0.7673  1.6869  2.1569
  103MOL    C8026804   7.738   1.307   7.453 -0.0680  0.5302 -0.2071
  103MOL    C8126805   7.805   1.357   7.575 -0.6881  0.3467  0.3717
  103MOL    C8226806   7.734   1.433   7.686 -1.1743  0.3017 -0.5946
  103MOL    C8326807   0.001   1.504   7.604 -0.1849 -0.0342  0.6035
  103MOL    C8426808   7.658   1.172   7.479  0.1260  0.5593  0.4951
  103MOL    H8526809   7.676   1.388   7.414 -1.4905 -0.8852 -0.9406
  103MOL    H8626810   0.045   1.294   7.614 -1.6789 -0.3094  1.3451
  103MOL    H8726811   7.750   1.398   7.787  0.5867  2.2960 -0.1592
  103MOL    H8826812   7.645   1.493   7.668  0.4061  3.1279  0.6591
  103MOL    H8926813   7.796   1.585   7.546 -0.0427 -0.5961 -0.3091
  103MOL    H9026814   0.099   1.520   7.649  0.3962 -1.1863 -0.2011
  103MOL    H9126815   7.642   1.107   7.392  0.6632 -1.0188  1.5441
  103MOL    H9226816   7.730   1.118   7.540  0.8470  0.5833 -0.3276
  103MOL    C9326817   7.518   1.187   7.552 -0.2360 -0.5878 -0.1771
  103MOL    C9426818   7.409   1.246   7.461  0.0855  0.1592 -0.6239
  103MOL    C9526819   7.266   1.290   7.490  0.1230 -0.0246 -0.0105
  103MOL    C9626820   7.374   1.392   7.459 -0.2494 -0.7542 -0.4584
  103MOL    C9726821   7.454   1.054   7.597  0.4989  0.1638 -0.1880
  103MOL    H9826822   7.535   1.255   7.634 -0.0069  0.0904 -0.7823
  103MOL    H9926823   7.422   1.197   7.364  0.3775  1.1199 -1.0696
  103MOL   H10026824   7.188   1.277   7.416 -0.5078 -0.1898  0.6693
  103MOL   H10126825   7.235   1.277   7.594  0.3243 -1.3130 -0.0974
  103MOL   H10226826   7.377   1.434   7.359  0.2029 -1.8375 -0.9028
  103MOL   H10326827   7.408   1.461   7.536 -1.3094 -0.2176 -0.4657
  103MOL   H10426828   7.437   0.984   7.515  0.5178 -2.3153  1.8347
  103MOL   H10526829   7.356   1.077   7.639  1.0956  2.0714  0.2111
  103MOL   C10626830   7.526   0.980   7.719 -0.1721 -0.4878  0.0531
  103MOL   C10726831   7.528   1.066   0.015 -0.2543  0.4161 -0.1546
  103MOL   C10826832   7.608   1.017   0.139 -0.2242 -0.5175  0.8716
  103MOL   C10926833   7.655   1.138   0.059  0.2163  0.0706 -0.1754
  103MOL   C11026834   7.463   0.846   7.756 -0.4654  0.3501 -0.1334
  103MOL   H11126835   7.631   0.967   7.697  0.6857  4.1429  0.8583
  103MOL   H11226836   7.429   1.102   0.041 -0.6726 -1.0025  0.2507
  103MOL   H11326837   7.572   1.051   0.236 -1.0107 -0.6418  0.6198
  103MOL   H11426838   7.677   0.933   0.136 -0.8524 -0.9960 -0.4741
  103MOL   H11526839   7.738   1.124   7.829 -0.3400 -0.0862 -0.8233
  103MOL   H11626840   7.638   1.239   0.096 -0.7577 -0.9326  2.2213
  103MOL   H11726841   7.513   0.803   0.004 -1.7814 -1.8507 -0.4099
  103MOL   H11826842   7.358   0.864   7.780 -1.3195 -1.3272 -2.4278
  103MOL   C11926843   7.476   0.733   7.647 -0.0545  0.5364  0.4358
  103MOL   C12026844   7.622   0.687   7.652  0.4969  0.3477 -0.4152
  103MOL   C12126845   7.725   0.736   7.554  0.0145 -0.2317 -0.3592
  103MOL   C12226846   7.692   0.586   7.555 -0.3359 -0.4103 -0.4079
  103MOL   C12326847   7.372   0.612   7.657  0.3080  0.5698 -0.0850
  103MOL   H12426848   7.459   0.775   7.548 -0.1224 -0.7623 -0.1125
  103MOL   H12526849   7.660   0.684   7.754  0.7535  1.9956 -0.4420
  103MOL   H12626850   7.826   0.752   7.591 -0.3362  1.1859  0.0481
  103MOL   H12726851   7.693   0.792   7.466 -0.5120  1.0338  0.6204
  103MOL   H12826852   7.636   0.550   7.469 -2.2642 -0.0044  0.6548
  103MOL   H12926853   7.765   0.516   7.596 -0.5165  0.1563  0.9064
  103MOL   H13026854   7.377   0.546   7.571 -4.5691  0.5680 -0.5359
  103MOL   H13126855   7.385   0.542   7.739 -0.3098  2.1426  1.4013
  103MOL   C13226856   7.223   0.651   7.659  0.4236 -0.4321 -0.5031
  103MOL   C13326857   7.134   0.532   7.678 -0.0192  0.0871 -0.4890
  103MOL   C13426858   7.017   0.516   7.774  0.5270  0.7137  0.7551
  103MOL   C13526859   7.145   0.443   7.796 -0.1223 -0.3365 -0.8298
  103MOL   C13626860   7.179   0.740   7.536 -0.2940 -0.3098  0.2492
  103MOL   H13726861   7.208   0.709   7.750 -1.2510 -0.2438 -0.8832
  103MOL   H13826862   7.140   0.473   7.587 -1.0002  1.2369 -1.3127
  103MOL   H13926863   6.979   0.590   0.005 -1.8175 -0.5924  0.9215
  103MOL   H14026864   6.932   0.459   7.737  0.8342  1.3489 -0.9694
  103MOL   H14126865   7.223   0.476   0.025  0.4499 -0.4579 -1.4179
  103MOL   H14226866   7.134   0.335   7.787 -3.4734 -0.0906 -0.3149
  103MOL   H14326867   7.252   0.816   7.508  0.4879 -0.3596  2.0504
  103MOL   H14426868   7.176   0.683   7.444  1.5591 -1.9818  1.1832
  103MOL   C14526869   7.050   0.817   7.564 -0.1993  0.7525 -0.9692
  103MOL   C14626870   7.084   0.953   7.630  0.2120  0.0807 -0.6573
  103MOL   C14726871   6.996   1.059   7.692 -0.0268 -0.1345  0.8370
  103MOL   C14826872   7.062   0.959   7.784  0.0844 -0.6711 -0.3584
  103MOL   C14926873   6.956   0.845   7.444  0.0825  0.7356  0.4508
  103MOL   H15026874   6.985   0.769   7.638 -1.0797  0.3146 -2.0251
  103MOL   H15126875   7.168   1.003   7.582 -1.1031  3.2520  0.2224
  103MOL   H15226876   7.041   1.158   7.692 -0.3201  0.0065 -1.1748
  103MOL   H15326877   6.892   1.052   7.663  0.4453  0.5671 -1.0362
  103MOL   H15426878   6.994   0.888   7.830 -0.4334 -0.7898 -1.2981
  103MOL   H15526879   7.151   0.991   7.838 -1.6081  0.8524  1.5907
  103MOL   H15626880   6.900   0.934   7.474 -1.0514  1.3678 -3.2550
  103MOL   H15726881   7.025   0.870   7.364  0.0947 -0.5834  0.0323
  103MOL   C15826882   6.861   0.732   7.409 -1.2401  0.2511 -0.6509
  103MOL   C15926883   6.903   0.671   7.282 -0.0714 -0.4399 -0.3091
  103MOL   C16026884   6.998   0.547   7.286  0.2288  0.2152  0.3927
  103MOL   C16126885   6.855   0.532   7.233 -0.1773 -0.0819 -0.1373
  103MOL   C16226886   6.711   0.774   7.404  0.2563 -0.4335 -0.0598
  103MOL   H16326887   6.871   0.654   7.484 -0.1612 -1.8592 -2.9220
  103MOL   H16426888   6.909   0.739   7.197 -1.0104 -1.6561 -1.3664
  103MOL   H16526889   7.022   0.505   7.383  1.9719  1.6178  0.5937
  103MOL   H16626890   7.083   0.556   7.218  0.0598 -1.8213 -0.1056
  103MOL   H16726891   6.840   0.518   7.126 -2.2655  0.1872  0.1140
  103MOL   H16826892   6.777   0.499   7.300 -0.0805 -0.1448 -0.0562
  103MOL   H16926893   6.658   0.683   7.377 -0.3312  0.7671 -3.1634
  103MOL   H17026894   6.703   0.837   7.316 -0.2001  2.3181  1.8714
  103MOL   C17126895   6.648   0.827   7.537  0.3115 -0.5528  0.0677
  103MOL   C17226896   6.529   0.920   7.503  0.5560  0.6489  0.4485
  103MOL   C17326897   6.511   1.054   7.564  0.7409 -0.0608 -0.9287
  103MOL   C17426898   6.542   1.050   7.423  0.0195 -0.4092 -0.2193
  103MOL   C17526899   6.604   0.707   7.627 -0.7092  0.8620  0.7015
  103MOL   H17626900   6.719   0.886   7.596 -2.2899  1.4731  1.2735
  103MOL   H17726901   6.435   0.866   7.505  0.5573  0.5695 -0.9412
  103MOL   H17826902   6.411   1.094   7.579  1.2697  1.3487 -1.1211
  103MOL   H17926903   6.584   1.086   7.638 -0.1276 -0.2195  0.0041
  103MOL   H18026904   6.645   1.081   7.405  0.3289 -1.4420 -0.2783
  103MOL   H18126905   6.456   1.061   7.357  0.2601  2.0409 -0.1681
  103MOL   H18226906   6.691   0.648   7.656 -1.4196 -0.2403  0.6126
  103MOL   H18326907   6.536   0.638   7.576  2.7276  0.0443 -3.0350
  103MOL   C18426908   6.527   0.742   7.759 -0.8714  0.0974 -0.5305
  103MOL   C18526909   6.611   0.707   0.046 -0.2919  0.0255  0.2227
  103MOL   C18626910   6.617   0.808   0.155  0.6775 -0.1726 -0.1186
  103MOL   C18726911   6.736   0.796   0.071 -0.8934 -0.3365  0.2707
  103MOL   C18826912   6.382   0.700   7.775  0.1734 -0.0157 -0.4846
  103MOL   H18926913   6.514   0.850   7.753  1.5244  0.5665  1.8691
  103MOL   H19026914   6.612   0.599   0.063 -1.1823  0.1729  1.2562
  103MOL   H19126915   6.627   0.780   0.260 -2.0788  1.2985  0.5966
  103MOL   H19226916   6.577   0.907   0.134  0.4968  0.0869  1.4194
  103MOL   H19326917   6.819   0.741   0.115 -0.6728 -0.9864 -0.9355
  103MOL   H19426918   6.750   0.880   0.003 -0.5875 -1.6811 -1.3403
  103MOL   H19526919   6.333   0.741   7.687 -2.5044 -2.2066 -0.0903
  103MOL   H19626920   6.339   0.758   0.017 -1.5266  0.9151 -2.0143
  103MOL   C19726921   6.351   0.551   7.805  0.2031  0.5520 -0.0367
  103MOL   C19826922   6.378   0.449   7.691 -0.2254 -0.6534 -0.9967
  103MOL   C19926923   6.403   0.304   7.727 -0.1595 -0.0381  0.0624
  103MOL   C20026924   6.514   0.384   7.670 -0.5765  0.0947  0.1485
  103MOL   C20126925   6.203   0.539   0.003 -0.0819  0.0926 -0.6068
  103MOL   H20226926   6.412   0.518   0.050 -1.4104  1.0882  1.3714
  103MOL   H20326927   6.334   0.468   7.593  0.5908  1.6061 -0.9445
  103MOL   H20426928   6.408   0.277   7.832 -1.4541  2.6793  0.8855
  103MOL   H20526929   6.363   0.228   7.660 -1.5401  1.5428 -0.9523
  103MOL   H20626930   6.595   0.408   7.738 -0.0704  3.5448 -1.5329
  103MOL   H20726931   6.541   0.381   7.565 -0.9337 -0.0725  0.0633
  103MOL   H20826932   6.144   0.585   7.762  0.4133 -0.7671 -1.4678
  103MOL   H20926933   6.162   0.438   0.005 -0.2062  0.1538  2.0579
  103MOL   C21026934   6.151   0.598   0.137 -0.4876 -0.4742 -0.5355
  103MOL   C21126935   6.000   0.626   0.136  0.2054 -0.3110  0.9185
  103MOL   C21226936   5.945   0.751   0.199 -0.4278  0.8952 -0.0463
  103MOL   C21326937   5.926   0.733   0.054  0.2856 -0.6487  0.5010
  103MOL   C21426938   6.194   0.516   0.256 -0.1067  0.0642  0.6595
  103MOL   H21526939   6.199   0.697   0.142  0.5830 -1.0469  0.8641
  103MOL   H21626940   5.941   0.539   0.165  0.4047 -0.2384  1.5348
  103MOL   H21726941   5.858   0.746   0.264  0.1874 -0.2934  0.7165
  103MOL   H21826942   6.028   0.812   0.233  0.3333  0.5929 -1.3036
  103MOL   H21926943   5.833   0.699   0.009 -0.4404  0.9874  0.7422
  103MOL   H22026944   5.995   0.785   7.826  0.7213 -0.1564  1.3258
  103MOL   H22126945   6.136   0.425   0.247  1.2810 -0.7287 -0.4301
  103MOL   H22226946   6.295   0.484   0.230 -1.3380 -1.5129 -2.3879
  103MOL   C22326947   6.192   0.584   0.393  0.0889 -0.1411 -0.4917
  103MOL   C22426948   6.324   0.650   0.421 -0.5366 -0.0495 -0.3773
  103MOL   C22526949   6.333   0.798   0.395  0.2038  0.1608 -0.0108
  103MOL   C22626950   6.343   0.760   0.534 -0.5726  0.1970  0.3996
  103MOL   C22726951   6.150   0.489   0.513 -0.3786 -0.3964  0.2890
  103MOL   H22826952   6.123   0.667   0.382  0.3412  0.0303 -0.7910
  103MOL   H22926953   6.407   0.584   0.396  3.5201  3.4319  2.9051
  103MOL   H23026954   6.251   0.860   0.360  1.2810  1.7324  0.2084
  103MOL   H23126955   6.424   0.826   0.342 -2.1414  1.1065 -3.7208
  103MOL   H23226956   6.445   0.761   0.572  0.4023  0.1473 -2.1181
  103MOL   H23326957   6.256   0.801   0.585 -0.3786 -1.7395  2.3243
  103MOL   H23426958   6.219   0.405   0.520 -0.5553 -0.4551  1.4154
  103MOL   H23526959   6.165   0.537   0.610  0.0473  0.4592 -0.1918
  103MOL   C23626960   6.008   0.438   0.496  0.2372 -0.4758 -0.2692
  103MOL   C23726961   5.909   0.514   0.590  0.2524  0.0714  0.3994
  103MOL   C23826962   5.874   0.662   0.570 -0.2801 -0.9296 -0.1462
  103MOL   C23926963   5.775   0.560   0.536 -0.1439  0.3365  0.4215
  103MOL   C24026964   6.004   0.285   0.528  0.7572 -0.0809 -0.8767
  103MOL   H24126965   5.984   0.456   0.391  1.4206  1.6148 -0.2102
  103MOL   H24226966   5.914   0.481   0.693  2.4393 -1.4905 -0.1798
  103MOL   H24326967   5.860   0.717   0.663 -1.9279  1.8734 -1.9717
  103MOL   H24426968   5.942   0.719   0.507 -2.6135  1.9661 -0.1909
  103MOL   H24526969   5.756   0.541   0.431 -1.3071  0.6790  0.5658
  103MOL   H24626970   5.698   0.528   0.607 -0.5729 -0.2857 -0.3189
  103MOL   H24726971   6.088   0.235   0.481  0.8904 -1.6910  1.0304
  103MOL   H24826972   6.005   0.277   0.636 -0.2650 -0.5288 -0.8907
  103MOL   C24926973   5.884   0.208   0.474  0.0827 -0.8621 -0.7179
  103MOL   C25026974   5.870   0.082   0.546  0.2441  0.4466 -0.2208
  103MOL   C25126975   5.795   0.062   0.671  0.0034 -0.4076  0.1555
  103MOL   C25226976   5.729   0.013   0.547  0.9071  0.2951  0.4508
  103MOL   C25326977   5.882   0.187   0.321  0.4543 -0.3274  0.2216
  103MOL   H25426978   5.789   0.259   0.488  0.2999 -0.2728 -1.2935
  103MOL   H25526979   5.952   0.011   0.535 -2.5965 -2.9985  0.1214
  103MOL   H25626980   5.843   7.826   0.732 -1.8369 -1.1833  0.6615
  103MOL   H25726981   5.766   0.155   0.719 -1.5317 -1.1601  0.7248
  103MOL   H25826982   5.710   7.746   0.539  0.2511  0.5583 -1.6188
  103MOL   H25926983   5.639   0.064   0.514  1.0279  1.3094  1.6395
  103MOL   H26026984   5.977   0.151   0.281  0.9102  1.1224 -0.0566
  103MOL   H26126985   5.859   0.279   0.267 -3.5251  0.3514  2.9361
  103MOL   H26226986   5.801   0.118   0.297 -0.7998  1.3605 -0.5169
  104MOL     C126987   1.029   2.851   6.905  0.3344  0.0788 -0.1414
  104MOL     C226988   1.031   2.759   6.789  0.3171 -0.1652 -0.0995
  104MOL     C326989   0.980   2.623   6.799  0.3386 -0.5141 -0.6452
  104MOL     C426990   1.124   2.645   6.783 -0.2113  0.1646  0.0726
  104MOL     C526991   0.894   2.930   6.900 -0.0553  0.5287 -0.2561
  104MOL     H626992   1.052   2.807   7.002  0.6946 -0.2307 -0.3645
  104MOL     H726993   1.016   2.812   6.695 -1.2992 -1.5931 -0.6629
  104MOL     H826994   0.972   2.574   6.896 -1.8182 -0.1993 -0.6306
  104MOL     H926995   0.922   2.575   6.720 -1.5565 -0.0114  0.3968
  104MOL    H1026996   1.158   2.614   6.684  0.3088  1.0245 -0.0228
  104MOL    H1126997   1.192   2.629   6.866 -0.8657  1.0410  0.7966
  104MOL    H1226998   0.813   2.857   6.899 -0.5053  1.0123  0.5369
  104MOL    H1326999   0.883   2.975   6.801 -0.5406 -0.0942 -0.4892
  104MOL    H1427000   1.105   2.921   6.869  0.5071  0.5570  1.1480
  104MOL    C1527001   0.879   3.039   7.009  0.7793  0.1899 -0.8091
  104MOL    C1627002   0.892   2.986   7.148  0.6506 -0.1047  0.0119
  104MOL    C1727003   0.765   2.927   7.218  0.1089 -0.0320  0.1388
  104MOL    C1827004   0.824   3.052   7.268  0.5762 -0.4228 -0.5601
  104MOL    C1927005   0.971   3.154   6.984 -0.3143 -0.5712  0.3102
  104MOL    H2027006   0.780   3.070   6.977  1.1790  2.4445  0.0880
  104MOL    H2127007   0.988   2.946   7.177 -0.8048 -2.4484  1.7152
  104MOL    H2227008   0.782   2.828   7.262 -0.6864  0.3677  1.3738
  104MOL    H2327009   0.676   2.938   7.155 -0.0003 -0.5206  0.1992
  104MOL    H2427010   0.774   3.145   7.241 -0.9915 -1.1965 -0.4061
  104MOL    H2527011   0.873   3.050   7.365  0.7203  1.0054 -0.5945
  104MOL    H2627012   0.981   3.181   6.879 -2.6544 -1.1119 -0.0894
  104MOL    H2727013   1.070   3.122   7.016 -0.3588 -2.4991 -1.3925
  104MOL    C2827014   0.943   3.294   7.056  0.1948 -0.9891 -0.9057
  104MOL    C2927015   0.822   3.362   6.989 -0.0926 -0.7860  0.0577
  104MOL    C3027016   0.680   3.363   7.049 -0.1347 -0.1043 -0.4408
  104MOL    C3127017   0.756   3.490   7.037 -0.0465  0.1855  0.2975
  104MOL    C3227018   1.056   3.394   7.027 -0.9981  0.0182  0.0855
  104MOL    H3327019   0.924   3.282   7.162 -1.0817 -0.1239 -1.0217
  104MOL    H3427020   0.815   3.363   6.881  2.4624  4.0699 -0.2154
  104MOL    H3527021   0.668   3.320   7.148 -0.8745  0.7691 -0.1525
  104MOL    H3627022   0.600   3.345   6.977  0.8978  0.2885 -1.7150
  104MOL    H3727023   0.785   3.537   7.130  1.5821  1.1136 -0.6424
  104MOL    H3827024   0.728   3.568   6.966 -1.6914  0.3131  1.0728
  104MOL    H3927025   1.025   3.463   6.948  1.0420 -0.2773 -1.0171
  104MOL    H4027026   1.145   3.353   6.980  0.1222  1.0499  1.2470
  104MOL    C4127027   1.081   3.475   7.157  0.1583 -0.0841 -0.2777
  104MOL    C4227028   1.151   3.608   7.118  0.1046  0.2008  0.1429
  104MOL    C4327029   1.132   3.739   7.195  0.4844  0.4124 -0.0907
  104MOL    C4427030   1.065   3.721   7.060  0.1803  0.4271 -0.7270
  104MOL    C4527031   1.173   3.395   7.254 -0.5141  0.0082  0.2318
  104MOL    H4627032   0.992   3.492   7.217 -0.2962 -0.6162 -0.7951
  104MOL    H4727033   1.254   3.603   7.081 -0.4629 -2.6337 -1.1851
  104MOL    H4827034   1.067   3.738   7.283  2.4266  1.4161  1.3954
  104MOL    H4927035   1.202   3.823   7.198 -0.9896  1.6201  2.1644
  104MOL    H5027036   1.111   3.771   6.975 -3.6153  1.7300 -2.1251
  104MOL    H5127037   0.957   3.715   7.058  0.0993  0.4255  1.7166
  104MOL    H5227038   1.269   3.384   7.205 -0.2737  3.5978 -0.2098
  104MOL    H5327039   1.147   3.290   7.270 -1.3609  0.2596  0.5342
  104MOL    C5427040   1.199   3.462   7.392  0.0245 -0.0359  0.7284
  104MOL    C5527041   1.123   3.396   7.507 -0.4635  0.4650 -0.3626
  104MOL    C5627042   0.972   3.389   7.518 -0.1261 -0.4095 -0.2936
  104MOL    C5727043   1.039   3.488   7.605  0.0717 -0.3036  0.0542
  104MOL    C5827044   1.352   3.472   7.428  0.4753 -0.2580  0.1781
  104MOL    H5927045   1.152   3.559   7.388 -0.3384 -0.2855 -1.5343
  104MOL    H6027046   1.169   3.304   7.543 -0.3186  0.4948 -0.4674
  104MOL    H6127047   0.904   3.427   7.442 -0.2053  2.5373  1.1919
  104MOL    H6227048   0.943   3.300   7.574 -0.8558  0.0678  0.0912
  104MOL    H6327049   1.035   3.456   7.709  1.5215  0.0334  0.2303
  104MOL    H6427050   1.041   3.595   7.586  0.7244 -0.3955 -0.4256
  104MOL    H6527051   1.383   3.369   7.448 -0.5585 -0.2125  2.1234
  104MOL    H6627052   1.411   3.500   7.341  0.2634 -1.2560 -0.2969
  104MOL    C6727053   1.401   3.551   7.548  0.2108  0.0394 -0.1573
  104MOL    C6827054   1.538   3.481   7.590  1.0128 -0.1409 -0.0188
  104MOL    C6927055   1.588   3.477   7.732 -1.3999  0.0102  0.1634
  104MOL    C7027056   1.533   3.356   7.671 -0.2569 -0.5932 -0.3967
  104MOL    C7127057   1.405   3.702   7.531  0.2742  0.3924 -0.7282
  104MOL    H7227058   1.331   3.528   7.627  2.5386  1.1605  2.2947
  104MOL    H7327059   1.607   3.478   7.506  1.6988  0.1443  0.5311
  104MOL    H7427060   1.695   3.495   7.744 -1.4343 -1.1650  2.4562
  104MOL    H7527061   1.534   3.532   7.808 -1.1474  0.0707  0.2973
  104MOL    H7627062   1.440   3.330   7.723 -0.4110  0.5248 -0.0963
  104MOL    H7727063   1.604   3.282   7.635  0.4563 -0.7137  1.1894
  104MOL    H7827064   1.306   3.722   7.490 -0.5992  2.6061  2.2883
  104MOL    H7927065   1.487   3.726   7.463  1.2175  0.3795  0.4060
  104MOL    C8027066   1.410   3.799   7.647  0.8607  0.3901  0.1712
  104MOL    C8127067   1.278   3.789   7.733  0.6097 -0.0442 -0.3254
  104MOL    C8227068   1.285   3.850   0.038  0.9920 -0.1598  0.7395
  104MOL    C8327069   1.270   3.696   0.015 -0.1175 -1.4223 -0.2213
  104MOL    C8427070   1.426   3.945   7.600 -0.8337 -0.0554 -0.1946
  104MOL    H8527071   1.488   3.776   7.719  1.0363 -1.7918 -0.6782
  104MOL    H8627072   1.183   3.802   7.681  0.5483 -1.2010 -0.5070
  104MOL    H8727073   1.198   3.904   0.075  1.4857  0.9298  0.3068
  104MOL    H8827074   1.384   3.883   0.069  0.7822  0.3112  0.9049
  104MOL    H8927075   1.358   3.647   0.056  2.5094  2.0134 -1.5024
  104MOL    H9027076   1.179   3.641   0.039 -0.2791 -1.4273 -0.8482
  104MOL    H9127077   1.365   3.973   7.514  0.5248 -0.0481 -1.1862
  104MOL    H9227078   1.393   4.017   7.675  0.0054 -0.5314  0.6462
  104MOL    C9327079   1.570   3.982   7.567  0.4133 -0.5267  0.5211
  104MOL    C9427080   1.567   4.115   7.492  0.8860  0.1809 -0.3688
  104MOL    C9527081   1.653   4.173   7.385 -0.8145  0.4160  0.0152
  104MOL    C9627082   1.524   4.113   7.344 -0.6192  0.3299 -0.2365
  104MOL    C9727083   1.657   4.001   7.695  0.4911 -0.2674  0.0652
  104MOL    H9827084   1.606   3.896   7.510 -0.6083 -1.5789  1.4241
  104MOL    H9927085   1.507   4.190   7.543 -1.1059 -2.2033  0.8772
  104MOL   H10027086   1.660   4.278   7.416 -2.4434  0.9749 -1.4484
  104MOL   H10127087   1.745   4.119   7.363 -1.4445 -0.3932 -0.6117
  104MOL   H10227088   1.446   4.183   7.312  0.2807  0.4824 -2.1845
  104MOL   H10327089   1.548   4.029   7.280  0.0790 -0.3758  0.9350
  104MOL   H10427090   1.633   3.922   7.767  2.0164 -1.5271 -0.7804
  104MOL   H10527091   1.627   4.091   7.749  0.8050 -0.0102 -0.1857
  104MOL   C10627092   1.810   4.006   7.660 -0.5141 -0.5021 -0.0897
  104MOL   C10727093   1.886   4.074   7.771 -0.3580 -0.2794  0.0379
  104MOL   C10827094   2.021   4.142   7.746  0.1397 -0.4306 -0.4769
  104MOL   C10927095   1.895   4.218   7.782 -0.3564  0.2205 -0.0451
  104MOL   C11027096   1.866   3.867   7.640  0.3824  0.3548  0.2784
  104MOL   H11127097   1.821   4.065   7.570 -2.2347  3.5954  2.2510
  104MOL   H11227098   1.872   4.023   0.027 -0.7182  3.6358  2.1730
  104MOL   H11327099   2.089   4.101   7.820 -0.0855  1.7334  0.9756
  104MOL   H11427100   2.056   4.138   7.643 -2.7708  2.7512 -1.6976
  104MOL   H11527101   1.857   4.281   7.702  0.7690  0.0572 -0.7194
  104MOL   H11627102   1.903   4.271   0.037  1.3040  0.3175 -0.2230
  104MOL   H11727103   1.861   3.824   7.740 -0.2217 -1.2110 -0.4119
  104MOL   H11827104   1.796   3.802   7.589 -0.9203  1.3285  0.8042
  104MOL   C11927105   2.012   3.848   7.578 -0.4393 -0.2298 -0.4227
  104MOL   C12027106   2.060   3.701   7.594  0.3597 -0.7084  0.2373
  104MOL   C12127107   2.119   3.667   7.722 -0.4427  0.3966  0.5099
  104MOL   C12227108   2.208   3.662   7.599  0.7117 -0.2833  0.3679
  104MOL   C12327109   2.016   3.889   7.433 -0.2027  0.0465  0.2705
  104MOL   H12427110   2.077   3.914   7.635  0.0382 -0.5036 -0.6478
  104MOL   H12527111   1.991   3.623   7.562 -0.6187  0.3758 -0.3237
  104MOL   H12627112   2.084   3.575   7.769 -0.1666  0.0299 -0.0043
  104MOL   H12727113   2.145   3.745   7.793 -1.1055 -2.9918  4.7122
  104MOL   H12827114   2.289   3.735   7.600  1.4800 -1.0718 -1.2223
  104MOL   H12927115   2.231   3.561   7.565 -0.8574 -0.2080 -0.9916
  104MOL   H13027116   1.958   3.815   7.377 -1.3508  0.8010  0.4482
  104MOL   H13127117   1.965   3.984   7.419 -0.6789  0.2820  3.2188
  104MOL   C13227118   2.161   3.918   7.374  0.4532  0.0116 -0.1076
  104MOL   C13327119   2.208   4.057   7.418  0.0844  0.2258  0.2934
  104MOL   C13427120   2.350   4.099   7.401  0.1636  0.1383  0.0412
  104MOL   C13527121   2.303   4.056   7.538  0.0150  0.0184 -0.5412
  104MOL   C13627122   2.150   3.911   7.223  0.0892 -0.5113  0.0876
  104MOL   H13727123   2.232   3.839   7.399  1.4800  0.5546 -1.2554
  104MOL   H13827124   2.128   4.130   7.424  0.3913  0.5928 -0.0032
  104MOL   H13927125   2.418   4.032   7.350  0.7488  0.3926  0.4747
  104MOL   H14027126   2.370   4.200   7.364  0.8977 -0.5132 -1.3710
  104MOL   H14127127   2.343   3.964   7.579  3.0278 -0.5895 -4.5703
  104MOL   H14227128   2.285   4.136   7.610 -2.7052 -2.6942  1.9298
  104MOL   H14327129   2.077   3.982   7.184  1.4151 -0.2315 -2.0000
  104MOL   H14427130   2.247   3.954   7.198  0.2956 -0.7050  0.5543
  104MOL   C14527131   2.151   3.774   7.148  0.4027 -0.3463  0.0450
  104MOL   C14627132   2.280   3.697   7.179  0.2704 -0.3675 -0.2906
  104MOL   C14727133   2.352   3.622   7.069 -0.0494  0.2422 -0.6176
  104MOL   C14827134   2.417   3.752   7.115  0.2421  0.0673 -0.2812
  104MOL   C14927135   2.036   3.684   7.152  0.7094 -0.2160  0.8691
  104MOL   H15027136   2.171   3.799   7.044  2.4275  2.4133  1.0304
  104MOL   H15127137   2.281   3.658   7.280 -0.9400 -0.9757 -0.5134
  104MOL   H15227138   2.409   3.532   7.093  0.0948  0.2154 -1.0494
  104MOL   H15327139   2.313   3.627   6.967 -1.3520  0.8851 -0.1026
  104MOL   H15427140   2.418   3.840   7.051  1.6065 -1.4964 -2.4637
  104MOL   H15527141   2.503   3.744   7.181 -1.7604 -0.1513  2.3930
  104MOL   H15627142   2.067   3.612   7.076  0.9560  1.0177 -0.2274
  104MOL   H15727143   2.045   3.636   7.249 -0.8970 -1.3294  0.4922
  104MOL   C15827144   1.894   3.740   7.118  0.2934 -0.0115  0.3899
  104MOL   C15927145   1.784   3.649   7.165 -0.3262  0.2577 -0.4117
  104MOL   C16027146   1.777   3.585   7.304 -0.1835 -0.0131  0.5861
  104MOL   C16127147   1.676   3.692   7.263  0.2861  0.5395  0.9342
  104MOL   C16227148   1.866   3.806   6.979  0.2650  0.2557  0.3309
  104MOL   H16327149   1.900   3.827   7.183  0.4620  0.1221  0.1964
  104MOL   H16427150   1.771   3.563   7.100  1.0498 -1.2809  1.3012
  104MOL   H16527151   1.848   3.611   7.382  0.8487 -0.6847 -0.1188
  104MOL   H16627152   1.734   3.486   7.315 -0.7441  0.0054 -1.2155
  104MOL   H16727153   1.578   3.668   7.224  0.6347 -2.6880  1.8815
  104MOL   H16827154   1.682   3.790   7.311 -1.9554  0.8404  0.6287
  104MOL   H16927155   1.859   3.724   6.908 -0.1522 -0.0597  0.7375
  104MOL   H17027156   1.952   3.868   6.953  1.0750 -0.8696  0.2918
  104MOL   C17127157   1.754   3.906   6.979  0.1899  0.9779  0.3809
  104MOL   C17227158   1.790   4.037   7.055  0.0503 -0.2215  0.0377
  104MOL   C17327159   1.880   4.155   7.001  0.8790  0.0604  0.3494
  104MOL   C17427160   1.730   4.173   7.019  0.7053  0.2488 -0.9165
  104MOL   C17527161   1.700   3.931   6.837 -0.0740 -0.5136  0.0640
  104MOL   H17627162   1.674   3.866   7.041  2.3798 -2.3960  1.1462
  104MOL   H17727163   1.784   4.026   7.163  0.0454  0.5017  0.1138
  104MOL   H17827164   1.950   4.185   7.079 -0.9144  0.6457  1.7638
  104MOL   H17927165   1.917   4.155   6.898 -0.5259 -1.3057 -0.1746
  104MOL   H18027166   1.666   4.172   6.931 -0.2154  2.0735 -0.3032
  104MOL   H18127167   1.689   4.237   7.097  0.8141 -2.5343  1.4924
  104MOL   H18227168   1.714   3.853   6.762  0.1256 -0.2672 -0.1569
  104MOL   H18327169   1.756   4.013   6.792  0.4921  0.0872  1.8254
  104MOL   C18427170   1.541   3.964   6.826 -0.5016  0.0281 -0.7913
  104MOL   C18527171   1.461   3.834   6.816  0.2893 -0.1841 -0.2922
  104MOL   C18627172   1.316   3.836   6.856 -0.6561  0.4788 -0.1373
  104MOL   C18727173   1.420   3.772   6.942  0.0906 -0.6775  0.2729
  104MOL   C18827174   1.521   4.049   6.699  0.1239 -0.4536  0.0648
  104MOL   H18927175   1.506   4.019   6.913 -0.6203 -0.8228 -0.2912
  104MOL   H19027176   1.476   3.779   6.723  0.8406  1.0858 -0.9713
  104MOL   H19127177   1.254   3.770   6.795  0.9856  0.7765 -2.2150
  104MOL   H19227178   1.275   3.926   6.901 -1.1533 -0.5106  1.4177
  104MOL   H19327179   1.416   3.664   6.944  1.5997 -0.8065 -1.8011
  104MOL   H19427180   1.437   3.823   7.036  0.7997 -3.0732  1.4599
  104MOL   H19527181   1.541   3.988   6.610 -0.3002 -0.3185 -0.1239
  104MOL   H19627182   1.596   4.128   6.688  0.1303 -0.1709  2.0281
  104MOL   C19727183   1.381   4.118   6.679 -0.6396  0.5493 -0.2636
  104MOL   C19827184   1.348   4.125   6.535  0.0638 -0.1972 -0.5628
  104MOL   C19927185   1.205   4.135   6.487  0.3550  0.1808 -0.0429
  104MOL   C20027186   1.279   4.008   6.460  0.3471 -0.1700 -1.0904
  104MOL   C20127187   1.374   4.250   6.756  0.4373  0.5141 -0.5319
  104MOL   H20227188   1.307   4.049   6.720 -0.1398 -0.1860 -0.5828
  104MOL   H20327189   1.421   4.183   6.481  1.5564 -0.7093  0.8559
  104MOL   H20427190   1.126   4.135   6.562  1.3135  0.1741  0.9779
  104MOL   H20527191   1.169   4.193   6.403  0.7455 -0.5728 -0.7378
  104MOL   H20627192   1.252   3.917   6.512  0.9127 -0.2778 -0.9812
  104MOL   H20727193   1.300   3.985   6.356 -0.7155 -3.2427 -0.6552
  104MOL   H20827194   1.444   4.246   6.838  0.8958 -1.1833 -0.9868
  104MOL   H20927195   1.417   4.327   6.691 -2.3635  1.3947 -1.4379
  104MOL   C21027196   1.240   4.289   6.822 -0.7930  0.1825 -0.2108
  104MOL   C21127197   1.177   4.181   6.917 -0.1619 -0.4683  0.4600
  104MOL   C21227198   1.036   4.196   6.983  0.2817  0.2410  0.1191
  104MOL   C21327199   1.064   4.093   6.881 -0.3206  0.6907 -0.2119
  104MOL   C21427200   1.278   4.418   6.895 -0.0958 -0.3095  0.6237
  104MOL   H21527201   1.165   4.309   6.745  0.1496 -0.9054 -1.4328
  104MOL   H21627202   1.244   4.143   6.993  1.0582 -0.7538 -0.7391
  104MOL   H21727203   1.023   4.150   7.080 -2.0623  0.7197  0.0424
  104MOL   H21827204   0.979   4.284   6.958  0.8173  0.2825 -0.9983
  104MOL   H21927205   1.061   3.985   6.895  0.8806  0.7176  0.3348
  104MOL   H22027206   1.015   4.113   6.786 -0.6741  3.9534  0.5947
  104MOL   H22127207   1.197   4.431   6.968 -0.3102 -2.3017  0.7583
  104MOL   H22227208   1.371   4.405   6.951  0.7583  0.3441 -0.6158
  104MOL   C22327209   1.282   4.547   6.800  0.1093  0.7180 -0.4862
  104MOL   C22427210   1.401   4.631   6.838 -0.4393 -0.0130 -0.5206
  104MOL   C22527211   1.535   4.607   6.783  0.4694  0.5059 -0.3380
  104MOL   C22627212   1.461   4.737   6.744 -0.3852 -0.5417  0.1254
  104MOL   C22727213   1.146   4.630   6.796  0.3837 -0.2147 -0.2419
  104MOL   H22827214   1.295   4.509   6.699  0.6450  0.6484 -0.3918
  104MOL   H22927215   1.421   4.649   6.944  0.5099  0.4192 -0.7713
  104MOL   H23027216   1.557   4.526   6.713 -1.4518  0.6220 -1.1094
  104MOL   H23127217   1.621   4.629   6.846  0.4303 -0.1019 -0.0651
  104MOL   H23227218   1.495   4.830   6.790  0.1584  0.0280 -1.4042
  104MOL   H23327219   1.435   4.742   6.639 -0.6620 -1.4139  0.1543
  104MOL   H23427220   1.065   4.566   6.832  0.7984  0.4849  1.9850
  104MOL   H23527221   1.150   4.711   6.869 -1.7460 -1.0361  0.8416
  104MOL   C23627222   1.105   4.699   6.665 -0.5793 -0.3217 -0.0840
  104MOL   C23727223   1.043   4.833   6.690 -0.1883  0.5818 -0.6802
  104MOL   C23827224   1.124   4.957   6.719 -0.4993 -0.7045 -0.1886
  104MOL   C23927225   1.050   4.945   6.591  0.8489  0.0083 -0.0490
  104MOL   C24027226   1.015   4.616   6.567  0.4270 -0.0178 -0.8701
  104MOL   H24127227   1.196   4.722   6.609 -0.8507 -1.0072 -0.8041
  104MOL   H24227228   0.955   4.836   6.755  1.1720  2.0125  1.1557
  104MOL   H24327229   1.079   5.043   6.767  1.8188 -0.8623  2.4187
  104MOL   H24427230   1.232   4.960   6.707 -0.5496  1.4781 -0.2333
  104MOL   H24527231   1.113   4.932   6.504  2.3230  0.2635  0.9761
  104MOL   H24627232   0.956   4.997   6.571  1.5993  1.4747  0.1800
  104MOL   H24727233   0.922   4.588   6.616  1.2950 -0.4457  0.5610
  104MOL   H24827234   0.985   4.692   6.495 -0.4798  1.5342  1.1083
  104MOL   C24927235   1.091   4.514   6.474  0.4188  0.2713 -0.0843
  104MOL   C25027236   1.194   4.578   6.382 -0.2619 -0.1511  0.2745
  104MOL   C25127237   1.340   4.555   6.412 -0.1814  0.2116 -0.1492
  104MOL   C25227238   1.282   4.499   6.282  0.0563 -0.2176  0.5256
  104MOL   C25327239   0.974   4.442   6.395  0.4208 -0.5502 -0.4162
  104MOL   H25427240   1.132   4.445   6.548 -0.3547  0.0674  0.1616
  104MOL   H25527241   1.171   4.681   6.356  0.4071  0.4171  1.8889
  104MOL   H25627242   1.406   4.638   6.388 -0.4385  0.9104  1.5216
  104MOL   H25727243   1.367   4.478   6.484 -0.7598  0.8647  0.7756
  104MOL   H25827244   1.303   4.550   6.189 -0.2449 -2.0663 -0.5651
  104MOL   H25927245   1.272   4.391   6.279  1.9140 -0.4176  0.9032
  104MOL   H26027246   0.879   4.421   6.444  0.1913  0.2997 -0.4795
  104MOL   H26127247   1.014   4.345   6.366  0.8878 -0.1270 -1.2233
  104MOL   H26227248   0.957   4.504   6.307  0.2806 -0.0152 -0.0145
  105MOL     C127249   4.510   2.293   1.964  0.4959  0.4651 -0.6309
  105MOL     C227250   4.518   2.443   1.946 -0.1071  0.2254 -0.2365
  105MOL     C327251   4.637   2.512   2.001 -0.1788 -0.5366 -0.0881
  105MOL     C427252   4.495   2.531   2.066 -0.2547  0.6773 -0.2783
  105MOL     C527253   4.374   2.250   1.911 -0.3448  0.3093 -0.2520
  105MOL     H627254   4.590   2.236   1.916  2.1652  1.8092  0.5213
  105MOL     H727255   4.493   2.475   1.845 -1.0334  0.2219 -0.0143
  105MOL     H827256   4.711   2.445   2.044  0.5998  0.7680  0.6612
  105MOL     H927257   4.670   2.602   1.949 -1.5375 -0.9446 -1.6969
  105MOL    H1027258   4.445   2.624   2.041 -1.6501 -0.1186 -0.4462
  105MOL    H1127259   4.477   2.487   2.163 -0.4399 -1.3099 -1.1910
  105MOL    H1227260   4.368   2.281   1.807 -0.3773  0.9331 -0.0645
  105MOL    H1327261   4.300   2.316   1.957 -0.5912  0.2796 -0.6126
  105MOL    H1427262   4.522   2.271   2.070  0.6000 -1.6453 -1.0695
  105MOL    C1527263   4.331   2.103   1.946 -0.5151 -0.3503  0.3197
  105MOL    C1627264   4.180   2.078   1.931 -0.3205 -0.3097 -0.0068
  105MOL    C1727265   4.082   2.101   2.043 -0.6385  0.7141 -1.5440
  105MOL    C1827266   4.116   1.960   1.994  0.0417 -0.2582  0.0878
  105MOL    C1927267   4.408   2.020   1.837 -0.1937 -0.3091 -0.1035
  105MOL    H2027268   4.368   2.090   2.048 -0.2855 -2.6363 -0.0303
  105MOL    H2127269   4.147   2.102   1.831  1.8542  1.1806 -0.4172
  105MOL    H2227270   3.988   2.149   2.019 -0.2270  1.2859 -2.0431
  105MOL    H2327271   4.122   2.129   2.141 -3.5895  0.9250 -0.3505
  105MOL    H2427272   4.179   1.894   2.054 -0.7992 -2.1670 -1.0751
  105MOL    H2527273   4.034   1.907   1.946  0.0380  1.2488 -1.6263
  105MOL    H2627274   4.499   2.064   1.797 -0.7428  0.2446 -0.7525
  105MOL    H2727275   4.338   2.000   1.755 -0.5256 -0.7804  0.2897
  105MOL    C2827276   4.446   1.879   1.889  0.8990 -0.5302 -0.4180
  105MOL    C2927277   4.534   1.880   2.011  0.0225  0.6674  0.0300
  105MOL    C3027278   4.480   1.887   2.156 -0.0274 -0.3858 -0.1188
  105MOL    C3127279   4.539   1.762   2.111  0.1599  0.1798 -0.9827
  105MOL    C3227280   4.513   1.801   1.772  0.1018  0.4853 -0.1640
  105MOL    H3327281   4.357   1.830   1.927  0.5348  0.8759  0.6139
  105MOL    H3427282   4.636   1.912   1.990 -0.5202  1.0904 -2.1105
  105MOL    H3527283   4.377   1.867   2.185  0.0848 -0.6597  0.0877
  105MOL    H3627284   4.540   1.930   2.236  1.6152 -2.8360  0.0190
  105MOL    H3727285   4.458   1.689   2.104 -1.7790  2.0051  1.3803
  105MOL    H3827286   4.627   1.730   2.166 -0.3317 -2.4305 -1.6342
  105MOL    H3927287   4.588   1.730   1.807  0.4813  0.2156 -1.5183
  105MOL    H4027288   4.571   1.862   1.703  0.5978  0.5416  0.2981
  105MOL    C4127289   4.408   1.733   1.682  0.5988 -0.0617 -0.7278
  105MOL    C4227290   4.348   1.610   1.760 -0.0979 -0.1488  0.2984
  105MOL    C4327291   4.236   1.525   1.705 -0.0361 -0.7498  0.2211
  105MOL    C4427292   4.205   1.629   1.807  0.2431  0.3783 -0.1829
  105MOL    C4527293   4.461   1.687   1.543 -0.1665 -0.1444  0.3731
  105MOL    H4627294   4.331   1.807   1.662 -0.1067 -0.6482 -0.2062
  105MOL    H4727295   4.424   1.563   1.822  0.5343  0.7880  0.2541
  105MOL    H4827296   4.188   1.534   1.608 -0.0248  1.1247  0.3653
  105MOL    H4927297   4.223   1.428   1.752  0.3350 -0.5496  0.7379
  105MOL    H5027298   4.184   1.601   1.910  0.6867 -2.8510 -0.9410
  105MOL    H5127299   4.152   1.718   1.772  0.2392  0.2212 -0.5695
  105MOL    H5227300   4.404   1.599   1.512  0.9248 -0.3328 -1.1571
  105MOL    H5327301   4.565   1.654   1.548 -0.0730  0.2956  1.4188
  105MOL    C5427302   4.446   1.787   1.434 -0.7509  0.4144 -0.1685
  105MOL    C5527303   4.526   1.748   1.319 -0.1647 -0.0140 -0.0236
  105MOL    C5627304   4.677   1.747   1.330 -0.3880 -0.2760 -0.2622
  105MOL    C5727305   4.611   1.844   1.233 -0.0873  0.3344  0.0748
  105MOL    C5827306   4.294   1.808   1.401  0.0959  0.0920 -0.3357
  105MOL    H5927307   4.491   1.880   1.469  1.5703  0.0623 -2.0950
  105MOL    H6027308   4.483   1.663   1.265 -0.0389 -1.2060  1.7168
  105MOL    H6127309   4.723   1.776   1.425 -0.4886 -1.5243  0.1655
  105MOL    H6227310   4.718   1.665   1.272  0.0465 -0.9865  1.0461
  105MOL    H6327311   4.616   1.827   1.126  0.8062  4.1380 -0.5674
  105MOL    H6427312   4.609   1.950   1.261 -0.1386  0.4407 -0.3327
  105MOL    H6527313   4.251   1.721   1.352 -1.5588  1.2357 -0.9760
  105MOL    H6627314   4.235   1.827   1.491 -0.6320  0.2774 -0.8433
  105MOL    C6727315   4.269   1.920   1.297 -0.0672  0.0395 -0.6412
  105MOL    C6827316   4.116   1.910   1.254 -0.5632  0.0740 -0.1707
  105MOL    C6927317   4.080   1.901   1.105 -0.1770 -0.1345  0.5736
  105MOL    C7027318   4.050   1.786   1.196  0.2566 -0.2473 -0.0185
  105MOL    C7127319   4.311   2.057   1.356 -0.5835 -0.3742 -0.0456
  105MOL    H7227320   4.336   1.904   1.213  1.8336 -0.3749  0.8958
  105MOL    H7327321   4.052   1.970   1.318 -2.0194 -0.8597 -0.7362
  105MOL    H7427322   4.011   1.981   1.079  0.4371 -0.1027 -0.9943
  105MOL    H7527323   4.167   1.892   1.042 -1.4861  2.0975 -1.6510
  105MOL    H7627324   4.107   1.693   1.193  0.2350 -0.3269  1.3165
  105MOL    H7727325   3.953   1.759   1.239  0.4368 -1.2849 -0.2506
  105MOL    H7827326   4.412   2.056   1.399 -0.0739 -3.5994 -1.1982
  105MOL    H7927327   4.245   2.078   1.440 -0.5462  2.0586 -0.5661
  105MOL    C8027328   4.288   2.182   1.264 -0.1719 -0.0636 -0.7682
  105MOL    C8127329   4.419   2.203   1.180  0.2899 -0.0769  0.4487
  105MOL    C8227330   4.413   2.279   1.048 -0.4509 -0.5172  0.4183
  105MOL    C8327331   4.444   2.133   1.047  0.3230 -0.0594 -0.2267
  105MOL    C8427332   4.256   2.313   1.346  0.4763 -0.7334  0.7616
  105MOL    H8527333   4.203   2.165   1.197 -0.7247 -0.8087  0.1226
  105MOL    H8627334   4.505   2.220   1.244  0.5920  2.5318 -0.5918
  105MOL    H8727335   4.491   2.350   1.024 -1.0137  0.9363  2.7293
  105MOL    H8827336   4.312   2.312   1.024 -0.2667 -0.0288  0.3179
  105MOL    H8927337   4.375   2.064   1.000 -1.5812  1.7675 -0.1657
  105MOL    H9027338   4.549   2.115   1.025  1.1914  2.4694  1.6308
  105MOL    H9127339   4.317   2.308   1.436  0.2858 -3.5710  0.7889
  105MOL    H9227340   4.287   2.397   1.284  1.7682 -0.9339  1.1227
  105MOL    C9327341   4.109   2.325   1.391 -0.6537 -0.3759 -0.7050
  105MOL    C9427342   4.090   2.436   1.496 -0.9507 -0.3558  0.5539
  105MOL    C9527343   3.973   2.469   1.589 -0.0828  0.7652 -0.0158
  105MOL    C9627344   4.101   2.428   1.652 -0.2317  0.4792 -0.4796
  105MOL    C9727345   4.009   2.322   1.269  0.0105  0.2344  0.4306
  105MOL    H9827346   4.083   2.235   1.446 -0.4567 -1.3975 -2.2301
  105MOL    H9927347   4.124   2.529   1.449  1.6994 -0.6041  1.8772
  105MOL   H10027348   3.939   2.572   1.578 -1.2681  0.4043  0.1629
  105MOL   H10127349   3.896   2.396   1.612  2.1254 -1.1199  1.6727
  105MOL   H10227350   4.160   2.506   1.700 -1.0358  0.7981 -0.0039
  105MOL   H10327351   4.104   2.326   1.690  3.0357  0.1618 -1.4187
  105MOL   H10427352   3.905   2.329   1.301 -0.8703  0.2155 -2.2632
  105MOL   H10527353   4.016   2.224   1.223  0.2437  1.0177 -1.2621
  105MOL   C10627354   4.022   2.426   1.151 -0.0807  0.1772 -0.2878
  105MOL   C10727355   3.945   2.373   1.031 -0.0200 -0.2474 -0.0252
  105MOL   C10827356   4.000   2.396   0.891  0.3170  0.2248 -0.1026
  105MOL   C10927357   3.989   2.258   0.952 -0.1735 -0.3441 -0.5238
  105MOL   C11027358   3.978   2.571   1.188 -0.3455 -0.6742  0.5682
  105MOL   H11127359   4.127   2.428   1.124 -0.0880  1.3888 -0.2206
  105MOL   H11227360   3.837   2.384   1.039  0.1862  0.3334  2.1950
  105MOL   H11327361   3.931   2.412   0.809  0.7125 -1.5724 -0.8219
  105MOL   H11427362   4.099   2.438   0.873  0.5149 -1.4564 -3.3301
  105MOL   H11527363   4.088   2.216   0.968 -0.5281 -0.7369  0.7271
  105MOL   H11627364   3.922   2.182   0.911  1.7755 -2.8223  0.7050
  105MOL   H11727365   3.874   2.553   1.217 -0.5001 -0.0367  0.4290
  105MOL   H11827366   4.045   2.596   1.270  0.4013  1.7484 -0.7311
  105MOL   C11927367   3.997   2.694   1.093  0.2553  0.2439 -0.6075
  105MOL   C12027368   3.940   2.815   1.162  0.3709 -0.4522 -0.3538
  105MOL   C12127369   3.796   2.825   1.192  0.5111 -1.2035  0.0887
  105MOL   C12227370   3.862   2.920   1.092 -0.6120  1.0355  0.6225
  105MOL   C12327371   4.149   2.715   1.067 -0.0806 -0.4494  0.2488
  105MOL   H12427372   3.950   2.669   0.997 -1.3582  1.9835 -0.3045
  105MOL   H12527373   4.009   2.863   1.230  2.0060 -3.3503  0.1197
  105MOL   H12627374   3.781   2.861   1.294  0.3514  2.8298 -1.2709
  105MOL   H12727375   3.724   2.752   1.158  0.3569 -1.2879  0.5841
  105MOL   H12827376   3.835   2.899   0.988 -2.5608 -0.0945  1.3144
  105MOL   H12927377   3.866   3.025   1.119 -0.8993  1.4150 -0.7522
  105MOL   H13027378   4.206   2.740   1.156 -0.1987  0.6670  0.0154
  105MOL   H13127379   4.187   2.622   1.025  0.2163 -0.9131  1.5240
  105MOL   C13227380   4.180   2.826   0.959  0.1087  0.1079  0.9231
  105MOL   C13327381   4.144   2.793   0.812 -0.3614  0.4007  0.5142
  105MOL   C13427382   4.161   2.886   0.695  0.2915  0.2191  0.3447
  105MOL   C13527383   4.027   2.869   0.758 -0.2936 -0.7986 -0.3410
  105MOL   C13627384   4.323   2.878   0.965  0.6718  0.0549 -0.5013
  105MOL   H13727385   4.120   2.911   0.991 -3.0040 -2.1548  1.2481
  105MOL   H13827386   4.170   2.693   0.780  3.7276  1.3748  0.4614
  105MOL   H13927387   4.191   2.990   0.704  2.8428 -0.4543  0.0104
  105MOL   H14027388   4.208   2.820   0.621 -0.3583 -0.3648  0.4521
  105MOL   H14127389   3.991   2.953   0.816  2.0356  0.2397 -0.3257
  105MOL   H14227390   3.946   2.808   0.718 -0.4414 -0.1606 -1.0278
  105MOL   H14327391   4.340   2.964   0.901  2.6017 -1.3303 -1.9236
  105MOL   H14427392   4.324   2.925   1.063 -0.0884 -1.1424  0.0994
  105MOL   C14527393   4.441   2.779   0.969  0.0396 -1.0212 -0.0170
  105MOL   C14627394   4.471   2.709   0.836  0.5028 -0.0441  0.5557
  105MOL   C14727395   4.565   2.588   0.827 -0.0586 -0.5769  0.2827
  105MOL   C14827396   4.412   2.574   0.800 -1.0215 -0.1109 -0.4299
  105MOL   C14927397   4.564   2.849   1.019  0.3871 -0.2892  0.2044
  105MOL   H15027398   4.421   2.703   1.044 -1.2268  0.4931  1.2040
  105MOL   H15127399   4.495   2.776   0.754  0.4650  0.9601  1.3575
  105MOL   H15227400   4.626   2.578   0.738 -0.1655  2.3617 -0.1634
  105MOL   H15327401   4.598   2.541   0.920 -2.4954  1.7340  2.3756
  105MOL   H15427402   4.346   2.534   0.876 -1.6639  1.8752  0.0923
  105MOL   H15527403   4.383   2.557   0.696  2.9667  0.9138 -1.7834
  105MOL   H15627404   4.659   2.818   0.977  0.0931 -0.1560 -0.5766
  105MOL   H15727405   4.553   2.950   0.980  0.1053 -0.9943 -1.6115
  105MOL   C15827406   4.585   2.841   1.173  0.9825  0.1014  0.2565
  105MOL   C15927407   4.651   2.971   1.229  0.5927 -0.3708  0.0726
  105MOL   C16027408   4.566   3.092   1.250  0.3391 -0.6078 -0.1629
  105MOL   C16127409   4.629   3.031   1.375 -0.2418  0.4893 -0.7484
  105MOL   C16227410   4.663   2.720   1.220  0.4547 -0.3586  0.0814
  105MOL   H16327411   4.484   2.843   1.215  0.4107 -0.1365 -1.0625
  105MOL   H16427412   4.742   3.004   1.181 -0.8774  0.4032 -2.2671
  105MOL   H16527413   4.459   3.079   1.233  0.5259  1.0020 -2.9689
  105MOL   H16627414   4.614   3.176   1.200 -1.4771  0.7207  0.2686
  105MOL   H16727415   4.710   3.080   1.428 -0.6968  0.5490 -0.1088
  105MOL   H16827416   4.550   2.995   1.441  0.2859 -0.3598 -0.5828
  105MOL   H16927417   4.763   2.744   1.184  0.8161 -0.8305  0.7706
  105MOL   H17027418   4.630   2.635   1.159 -1.3389  1.2611 -1.2523
  105MOL   C17127419   4.663   2.681   1.372  0.3496 -0.2988 -0.4192
  105MOL   C17227420   4.529   2.606   1.403 -0.5806  0.1112 -0.3738
  105MOL   C17327421   4.462   2.607   1.547 -0.2349  0.5000  0.1101
  105MOL   C17427422   4.406   2.681   1.430 -0.2066 -0.3651  0.2767
  105MOL   C17527423   4.790   2.594   1.408 -0.2725 -0.3486  0.3428
  105MOL   H17627424   4.668   2.770   1.434  0.4960  0.5089 -1.5796
  105MOL   H17727425   4.513   2.518   1.342  0.6382 -0.3370 -0.0639
  105MOL   H17827426   4.408   2.522   1.590  0.9164  0.3415  1.2843
  105MOL   H17927427   4.513   2.673   1.618  1.8912 -1.8180  0.8372
  105MOL   H18027428   4.410   2.789   1.422 -1.3280 -0.4319 -1.4963
  105MOL   H18127429   4.323   2.642   1.372 -0.7858  0.1973  0.7282
  105MOL   H18227430   4.871   2.644   1.354 -0.2085  0.0530  0.8161
  105MOL   H18327431   4.788   2.495   1.361  1.5915 -0.4328  0.3818
  105MOL   C18427432   4.832   2.579   1.556  0.0773 -0.6451  0.5090
  105MOL   C18527433   4.881   2.713   1.610  0.4086  0.1854 -0.5387
  105MOL   C18627434   4.877   2.750   1.750 -0.0658  1.0091 -0.2928
  105MOL   C18727435   4.789   2.829   1.648  0.4459 -0.6397 -0.0465
  105MOL   C18827436   4.942   2.476   1.586  0.4720  0.2979 -0.0775
  105MOL   H18927437   4.739   2.546   1.602 -0.2705 -1.6036 -0.8360
  105MOL   H19027438   4.964   2.740   1.545  0.4589 -2.0298 -1.4613
  105MOL   H19127439   4.962   2.807   1.787  0.6198 -0.1723 -0.0532
  105MOL   H19227440   4.819   2.690   1.819  1.0539 -0.3367 -0.5127
  105MOL   H19327441   4.824   2.920   1.601 -0.4836 -1.0390 -1.5560
  105MOL   H19427442   4.680   2.829   1.652  0.3533 -0.5456 -1.9661
  105MOL   H19527443   4.955   2.482   1.694 -1.7733 -2.0855  0.3781
  105MOL   H19627444   5.031   2.499   1.528  0.3488 -1.4368 -1.0020
  105MOL   C19727445   4.909   2.320   1.572 -0.3273 -0.3219 -0.3450
  105MOL   C19827446   4.771   2.268   1.607 -0.4515  0.7266 -0.2167
  105MOL   C19927447   4.712   2.139   1.545  0.0415  0.1021 -0.2424
  105MOL   C20027448   4.645   2.275   1.516  0.5631 -0.4959 -0.3406
  105MOL   C20127449   5.029   2.232   1.637  0.5268 -0.5427 -0.7566
  105MOL   H20227450   4.913   2.297   1.466  2.4839 -0.6504 -0.2055
  105MOL   H20327451   4.745   2.266   1.713 -2.6207 -0.2719 -0.7300
  105MOL   H20427452   4.764   2.103   1.457  2.0568 -0.4111  1.1214
  105MOL   H20527453   4.675   2.071   1.622  2.2938  0.0286  0.7921
  105MOL   H20627454   4.671   2.317   1.419  1.1307 -0.2648 -0.0942
  105MOL   H20727455   4.550   2.294   1.565  2.0277 -1.1151  2.8834
  105MOL   H20827456   5.041   2.263   1.741 -1.1242 -0.3619 -0.6148
  105MOL   H20927457   5.004   2.126   1.632  0.7816 -0.7221  1.3031
  105MOL   C21027458   5.167   2.249   1.568 -1.1579 -0.0758  0.1187
  105MOL   C21127459   5.275   2.184   1.656  0.1136 -0.6443 -0.1267
  105MOL   C21227460   5.413   2.258   1.668 -0.5360 -0.3222  0.0199
  105MOL   C21327461   5.321   2.254   1.788 -0.0004  0.2073 -0.5430
  105MOL   C21427462   5.168   2.174   1.433  0.6878  0.0689 -0.4553
  105MOL   H21527463   5.206   2.350   1.558  2.1161 -1.0507  2.3876
  105MOL   H21627464   5.285   2.076   1.651 -0.2277 -0.6781 -0.1025
  105MOL   H21727465   5.495   2.188   1.652 -0.0911  0.5034 -1.3389
  105MOL   H21827466   5.423   2.357   1.625 -0.5836 -0.5440 -0.5142
  105MOL   H21927467   5.360   2.190   1.867 -1.5821  0.7193  0.6928
  105MOL   H22027468   5.271   2.344   1.824 -1.4910 -0.5569 -0.6650
  105MOL   H22127469   5.179   2.069   1.459  1.0708  0.2683  0.2263
  105MOL   H22227470   5.067   2.185   1.395  0.1806  0.8837  1.0602
  105MOL   C22327471   5.275   2.210   1.333 -0.4554 -0.0346  0.7386
  105MOL   C22427472   5.228   2.339   1.267  0.2057  0.0147 -0.0571
  105MOL   C22527473   5.290   2.472   1.304  0.1114  0.4126 -0.2707
  105MOL   C22627474   5.300   2.409   1.165  0.6572  0.0633  0.0343
  105MOL   C22727475   5.290   2.084   1.233 -0.0704  0.2272 -0.5744
  105MOL   H22827476   5.370   2.211   1.386  1.4022 -0.3464 -2.4454
  105MOL   H22927477   5.121   2.342   1.247  0.0965  0.4958  0.5868
  105MOL   H23027478   5.369   2.468   1.380 -2.0587  3.3788  2.2818
  105MOL   H23127479   5.225   2.555   1.328  1.3151  0.9521  1.2379
  105MOL   H23227480   5.250   2.451   1.078 -1.7681 -0.6096  1.0772
  105MOL   H23327481   5.400   2.372   1.143  0.1479 -0.5827 -1.2732
  105MOL   H23427482   5.296   2.002   1.304 -0.5982 -0.9450 -1.8844
  105MOL   H23527483   5.198   2.075   1.176 -0.5010 -0.1651  0.1825
  105MOL   C23627484   5.400   2.079   1.126  0.1339 -0.3205  0.3254
  105MOL   C23727485   5.376   1.958   1.035 -0.3378  0.0943  0.4085
  105MOL   C23827486   5.253   1.958   0.950 -0.0663  0.9185  0.1277
  105MOL   C23927487   5.385   1.976   0.883 -0.2254  0.2574 -0.1348
  105MOL   C24027488   5.531   2.063   1.198  0.2723 -0.2535 -0.3506
  105MOL   H24127489   5.393   2.171   1.069 -0.1108 -0.6784 -0.2305
  105MOL   H24227490   5.411   1.860   1.067 -0.8773 -0.1778  0.1670
  105MOL   H24327491   5.194   1.866   0.955  0.3535  0.6283 -0.2071
  105MOL   H24427492   5.189   2.044   0.967 -2.4084 -0.3142 -2.0361
  105MOL   H24527493   5.406   2.074   0.840  1.9901 -0.2029 -0.1790
  105MOL   H24627494   5.438   1.900   0.827 -1.1569 -1.5036  1.3383
  105MOL   H24727495   5.534   2.132   1.282  2.3619 -0.1558 -0.4971
  105MOL   H24827496   5.511   1.965   1.242 -4.4835 -0.2268 -2.0864
  105MOL   C24927497   5.661   2.061   1.127  0.3812 -0.0208  0.0011
  105MOL   C25027498   5.784   2.033   1.213  0.2491 -0.3980  0.3133
  105MOL   C25127499   5.821   1.893   1.240 -0.4186 -0.3359  0.4406
  105MOL   C25227500   5.899   1.966   1.139 -0.0327  0.9918 -0.5240
  105MOL   C25327501   5.681   2.190   1.042  0.2045  0.4259  0.0268
  105MOL   H25427502   5.658   1.984   1.051  0.5153 -1.6904  1.6589
  105MOL   H25527503   5.814   2.115   1.278  1.3049  1.8797 -2.8723
  105MOL   H25627504   5.867   1.870   1.336 -0.8963 -2.7586  0.1250
  105MOL   H25727505   5.762   1.810   1.202  0.4844 -0.6850 -0.2230
  105MOL   H25827506   5.998   1.997   1.171  0.2145  1.2132 -1.5043
  105MOL   H25927507   5.886   1.939   1.035  0.6421 -1.5581  0.0300
  105MOL   H26027508   5.692   2.274   1.110  0.3220 -0.9679  1.7503
  105MOL   H26127509   5.594   2.231   0.991  0.4122  0.9603  0.1050
  105MOL   H26227510   5.761   2.186   0.967 -0.2561 -0.3404 -0.4345
  106MOL     C127511   2.639   7.456   6.339 -0.8342  0.9147 -0.9145
  106MOL     C227512   2.775   7.421   6.381  0.5231 -0.2745 -0.9127
  106MOL     C327513   2.891   7.516   6.366  0.1067 -0.0950  0.8580
  106MOL     C427514   2.882   7.389   6.281 -0.0176  0.1305 -0.0895
  106MOL     C527515   2.571   7.332   6.287 -0.2984 -1.1283 -0.6079
  106MOL     H627516   2.582   7.493   6.424 -0.5795 -2.0196  0.5928
  106MOL     H727517   2.779   7.353   6.465  3.6308  1.4185  0.3895
  106MOL     H827518   2.883   7.609   6.311  1.7042 -1.3791 -1.6754
  106MOL     H927519   2.961   7.523   6.448 -0.4849  1.4997  1.2487
  106MOL    H1027520   2.949   7.304   6.291 -1.6014 -0.8893  2.0707
  106MOL    H1127521   2.852   7.405   6.177 -0.9937 -1.6481 -0.0820
  106MOL    H1227522   2.562   7.256   6.365 -0.1981  0.6500  1.1864
  106MOL    H1327523   2.629   7.290   6.205  0.1930 -0.6298 -0.5209
  106MOL    H1427524   2.651   7.531   6.261  0.2609  0.5177 -1.1306
  106MOL    C1527525   2.425   7.367   6.239 -0.0583  0.8734 -0.7778
  106MOL    C1627526   2.432   7.443   6.109 -0.2078  0.0068 -0.5863
  106MOL    C1727527   2.447   7.594   6.107  0.6077  0.3272 -0.1711
  106MOL    C1827528   2.320   7.536   6.051  0.0728  0.3564  0.0495
  106MOL    C1927529   2.339   7.234   6.209  0.4962  0.1846  0.1180
  106MOL    H2027530   2.370   7.414   6.320  0.1535 -1.5224  0.7955
  106MOL    H2127531   2.489   7.388   6.035  0.7709  0.9869 -0.5783
  106MOL    H2227532   2.518   7.627   6.031 -0.3703 -0.9962 -1.7243
  106MOL    H2327533   2.446   7.649   6.200 -0.1087 -0.8040  0.5107
  106MOL    H2427534   2.235   7.567   6.112 -0.1319  1.0652 -0.5740
  106MOL    H2527535   2.299   7.520   5.945  0.0589  0.6053  0.0131
  106MOL    H2627536   2.409   7.153   6.190  0.5848  0.5659 -1.2123
  106MOL    H2727537   2.288   7.245   6.113 -1.3961 -1.3312  0.9291
  106MOL    C2827538   2.241   7.194   6.318  0.1735 -0.4866  0.3139
  106MOL    C2927539   2.176   7.071   6.272  0.1386 -0.3018  0.8058
  106MOL    C3027540   2.255   6.939   6.252  0.0763 -1.1129  0.2009
  106MOL    C3127541   2.171   6.965   6.379  0.0380 -0.4778  0.7400
  106MOL    C3227542   2.131   7.299   6.336  0.1593  0.1272 -0.3797
  106MOL    H3327543   2.297   7.176   6.410 -2.3433 -2.3636  1.5471
  106MOL    H3427544   2.096   7.081   6.199 -0.2123 -1.6031  0.9934
  106MOL    H3527545   2.363   6.948   6.257 -0.1967  3.8909 -0.5217
  106MOL    H3627546   2.223   6.878   6.168  0.0541  0.8709 -1.2564
  106MOL    H3727547   2.234   6.984   6.465 -0.7576 -0.2237  1.2806
  106MOL    H3827548   2.075   6.916   6.392  0.1848 -0.8366  0.4810
  106MOL    H3927549   2.062   7.304   6.251  1.5394  1.3756 -1.4633
  106MOL    H4027550   2.171   7.400   6.340 -0.9738  0.6047 -0.9748
  106MOL    C4127551   2.055   7.288   6.467  0.4055 -0.0197  0.2724
  106MOL    C4227552   1.927   7.362   6.462 -0.5785  0.3954  0.2406
  106MOL    C4327553   1.808   7.309   6.527 -0.4035  0.6024  0.2822
  106MOL    C4427554   1.813   7.318   6.379 -0.2052 -0.3917 -0.1987
  106MOL    C4527555   2.144   7.332   6.589 -0.4707  0.7649  0.3337
  106MOL    H4627556   2.033   7.183   6.483  3.2741 -0.5490  1.0581
  106MOL    H4727557   1.930   7.466   6.430 -0.4109 -0.2227 -1.8829
  106MOL    H4827558   1.807   7.213   6.579 -2.9007  1.3218  1.6266
  106MOL    H4927559   1.745   7.385   6.573 -0.8071 -0.2163  1.1129
  106MOL    H5027560   1.745   7.396   6.346  2.2313  0.2008 -4.1630
  106MOL    H5127561   1.822   7.221   6.332  2.7531 -1.3122  2.0962
  106MOL    H5227562   2.099   7.414   6.645  1.4061  2.6134 -0.8345
  106MOL    H5327563   2.233   7.378   6.548 -0.0927 -0.4113 -0.1788
  106MOL    C5427564   2.181   7.216   6.693 -0.1891  0.8110 -0.3614
  106MOL    C5527565   2.303   7.264   6.787 -0.1320 -0.2285 -0.2155
  106MOL    C5627566   2.437   7.297   6.728  0.2280  0.6630  0.3894
  106MOL    C5727567   2.420   7.169   6.807  0.2402 -0.3710  0.1392
  106MOL    C5827568   2.057   7.183   6.783  0.7956  0.3632  0.0817
  106MOL    H5927569   2.218   7.131   6.636  0.9223  2.6812 -2.5052
  106MOL    H6027570   2.278   7.335   6.866  1.3253  1.1337 -0.9454
  106MOL    H6127571   2.455   7.282   6.622 -0.4439  1.1268  0.2036
  106MOL    H6227572   2.491   7.379   6.775  2.7057 -1.0465  0.6318
  106MOL    H6327573   2.463   7.164   6.907  0.4231 -0.0478  0.0765
  106MOL    H6427574   2.423   7.081   6.743  0.1230  0.3874 -0.9229
  106MOL    H6527575   2.034   7.270   6.843  1.2716  2.9484 -3.2981
  106MOL    H6627576   1.974   7.165   6.714  0.8943 -1.3822  0.3958
  106MOL    C6727577   2.068   7.053   6.860  0.4087  0.0918 -0.2826
  106MOL    C6827578   1.949   7.033   6.951  0.4437  0.5567 -0.5542
  106MOL    C6927579   1.980   6.979   7.092  0.9158 -0.2004  0.0547
  106MOL    C7027580   1.921   7.119   7.070 -0.4422  0.3272  0.1813
  106MOL    C7127581   2.086   6.926   6.768  0.1392 -0.4126  0.9383
  106MOL    H7227582   2.163   7.061   6.913 -0.3847  3.1650  0.7712
  106MOL    H7327583   1.852   7.012   6.906 -0.0426  1.0237  0.2628
  106MOL    H7427584   1.907   6.920   7.146 -1.6876  1.3628 -1.6342
  106MOL    H7527585   2.086   6.954   7.101  0.9354  0.3025  1.2913
  106MOL    H7627586   1.984   7.207   7.081  0.1370  0.2177 -2.1228
  106MOL    H7727587   1.820   7.152   7.091 -0.5076 -0.9195  2.0331
  106MOL    H7827588   2.161   6.936   6.690 -1.0190 -1.3610 -0.3177
  106MOL    H7927589   1.993   6.921   6.711  1.7216 -1.1004 -1.6695
  106MOL    C8027590   2.105   6.791   6.845 -0.0331 -0.0530  0.3385
  106MOL    C8127591   2.243   6.729   6.826 -0.0549 -0.3805  0.2537
  106MOL    C8227592   2.319   6.686   6.946  0.8875  0.1716  0.1089
  106MOL    C8327593   2.360   6.813   6.878 -0.0995 -0.1888  0.8538
  106MOL    C8427594   1.994   6.699   6.800 -0.6664  0.1486  0.4783
  106MOL    H8527595   2.092   6.806   6.952 -1.6135 -4.4736  0.9051
  106MOL    H8627596   2.254   6.684   6.728 -3.1868 -0.0013 -0.3325
  106MOL    H8727597   2.384   6.600   6.931  0.0406 -0.5528  0.5785
  106MOL    H8827598   2.264   6.679   7.039 -0.2700 -0.1496 -0.5856
  106MOL    H8927599   2.334   6.903   6.935 -0.8557 -0.1679  0.4900
  106MOL    H9027600   2.440   6.833   6.807 -1.9534  1.9560 -0.7171
  106MOL    H9127601   1.896   6.743   6.816 -1.9360 -2.2387 -0.3907
  106MOL    H9227602   1.998   6.677   6.693  0.9897  0.6210  0.4353
  106MOL    C9327603   1.984   6.571   6.890  0.2434 -0.0004  0.3309
  106MOL    C9427604   1.907   6.599   7.020  0.4963  0.2216 -0.0527
  106MOL    C9527605   1.880   6.491   7.129  1.0699  0.2475 -0.4911
  106MOL    C9627606   1.978   6.598   7.155  0.4476 -0.1693 -0.4189
  106MOL    C9727607   1.912   6.462   6.811  0.2297  0.0379  0.3829
  106MOL    H9827608   2.086   6.545   6.916  0.5457  0.0259 -0.8137
  106MOL    H9927609   1.821   6.665   7.011 -0.1163 -0.5847 -0.1085
  106MOL   H10027610   1.789   6.496   7.189  0.8199 -2.7820 -0.5499
  106MOL   H10127611   1.911   6.389   7.109  3.1998 -0.0146  3.5372
  106MOL   H10227612   1.947   6.682   7.217 -2.6822 -2.1668  0.8617
  106MOL   H10327613   2.084   6.577   7.155  0.9798  2.3137 -1.4881
  106MOL   H10427614   1.824   6.513   6.772  1.0995  1.7241  0.6133
  106MOL   H10527615   1.882   6.384   6.882 -2.3828  0.0818 -0.6105
  106MOL   C10627616   1.988   6.398   6.694 -0.3448  0.1651 -0.0028
  106MOL   C10727617   2.095   6.307   6.748 -0.6449 -0.6653 -0.0113
  106MOL   C10827618   2.209   6.279   6.652 -0.2226 -0.2141 -0.0119
  106MOL   C10927619   2.241   6.349   6.791  0.7236  0.1607 -0.4223
  106MOL   C11027620   1.888   6.326   6.600 -0.0158  0.3742 -0.5731
  106MOL   H11127621   2.042   6.475   6.639  1.0745 -0.2000  0.8740
  106MOL   H11227622   2.060   6.219   6.802 -0.9117 -0.3291  0.3692
  106MOL   H11327623   2.241   6.176   6.636 -1.8562 -0.4042 -2.2504
  106MOL   H11427624   2.195   6.327   6.555 -0.1181 -0.3351 -0.0866
  106MOL   H11527625   2.260   6.456   6.787 -0.9809  0.4371 -2.0307
  106MOL   H11627626   2.278   6.278   6.864 -1.4794 -2.0355 -1.3380
  106MOL   H11727627   1.934   6.249   6.538  0.8168  0.2715  0.1671
  106MOL   H11827628   1.826   6.264   6.665  1.0681  2.1260  2.2230
  106MOL   C11927629   1.818   6.416   6.485  0.3841  0.3946 -1.0129
  106MOL   C12027630   1.918   6.452   6.379 -0.5034 -0.0290 -0.9904
  106MOL   C12127631   1.993   6.582   6.398 -0.2957  0.1332 -0.1295
  106MOL   C12227632   1.888   6.560   6.283  1.2203 -0.2124  0.2330
  106MOL   C12327633   1.703   6.320   6.417  1.1849 -0.2886 -0.6608
  106MOL   H12427634   1.779   6.503   6.539  1.4644 -0.1788  0.7176
  106MOL   H12527635   1.975   6.366   6.343  0.7990 -0.1121  1.1843
  106MOL   H12627636   2.098   6.579   6.372 -0.8421 -0.9464 -2.4064
  106MOL   H12727637   1.966   6.649   6.479  0.8722 -0.5632  0.8478
  106MOL   H12827638   1.795   6.615   6.295  1.5542  0.4036  0.0539
  106MOL   H12927639   1.922   6.565   6.180 -3.9257  2.4638 -1.4863
  106MOL   H13027640   1.678   6.350   6.315 -1.2626 -1.8747 -0.5786
  106MOL   H13127641   1.752   6.225   6.394  3.8404  0.9758 -0.3751
  106MOL   C13227642   1.580   6.296   6.505 -0.0013  0.3409 -0.0316
  106MOL   C13327643   1.504   6.183   6.447  0.4069 -0.1954  0.1746
  106MOL   C13427644   1.418   6.098   6.534 -0.1110 -0.1126  0.1313
  106MOL   C13527645   1.540   6.034   6.484  0.2285  0.2076  0.0323
  106MOL   C13627646   1.490   6.427   6.496  0.1916 -0.2728 -0.3541
  106MOL   H13727647   1.607   6.273   6.608 -0.8079 -0.8534 -0.0651
  106MOL   H13827648   1.453   6.208   6.354 -0.2105 -2.2636 -0.0541
  106MOL   H13927649   1.405   6.134   6.635 -0.5120  0.4712 -0.1247
  106MOL   H14027650   1.326   6.064   6.486 -0.1416  0.7368 -0.4325
  106MOL   H14127651   1.629   6.017   6.544  1.8317 -0.2638 -2.4175
  106MOL   H14227652   1.539   5.967   6.397  0.4200 -1.1439  1.0553
  106MOL   H14327653   1.547   6.516   6.471 -0.9611  1.0054  1.4487
  106MOL   H14427654   1.411   6.418   6.422 -0.8869 -3.4034  1.0704
  106MOL   C14527655   1.408   6.447   6.623 -0.0474 -0.1281  0.3381
  106MOL   C14627656   1.505   6.480   6.742 -0.2113  0.2133  0.0478
  106MOL   C14727657   1.440   6.472   6.881 -0.2165  1.1304  0.7033
  106MOL   C14827658   1.540   6.369   6.839 -0.2711 -0.4519  0.4993
  106MOL   C14927659   1.301   6.561   6.604 -0.5869  0.1451 -0.0662
  106MOL   H15027660   1.353   6.357   6.651 -0.4398 -0.1280 -0.4298
  106MOL   H15127661   1.574   6.562   6.721  0.4869 -0.4093 -0.0800
  106MOL   H15227662   1.472   6.552   6.948 -0.7535  2.0759 -0.1516
  106MOL   H15327663   1.335   6.442   6.884  0.6137 -1.7799  2.3228
  106MOL   H15427664   1.506   6.269   6.816  0.4806 -0.6561  0.2678
  106MOL   H15527665   1.639   6.363   6.884  0.6659  0.8676 -1.3188
  106MOL   H15627666   1.274   6.601   6.702 -0.6213 -0.2036  0.0680
  106MOL   H15727667   1.366   6.636   6.560 -0.5673  1.1779  1.6714
  106MOL   C15827668   1.170   6.518   6.520 -0.1147  0.1133  0.1418
  106MOL   C15927669   1.151   6.626   6.414  0.2259 -0.3794  0.0557
  106MOL   C16027670   1.217   6.621   6.280  0.3215  0.5698 -0.6677
  106MOL   C16127671   1.071   6.601   6.289  0.2196  0.0640  0.2333
  106MOL   C16227672   1.051   6.504   6.612  0.1240 -0.3062 -0.4400
  106MOL   H16327673   1.178   6.425   6.464 -0.2396  0.0048  0.3046
  106MOL   H16427674   1.150   6.727   6.455 -1.1958 -0.5027  0.3445
  106MOL   H16527675   1.275   6.533   6.253  1.1784  1.0603 -0.4271
  106MOL   H16627676   1.252   6.712   6.230 -0.1592  0.7582 -0.6703
  106MOL   H16727677   0.998   6.672   6.252 -0.7215 -1.2653 -0.5142
  106MOL   H16827678   1.036   6.500   6.268 -0.2176  0.1367  0.6120
  106MOL   H16927679   0.956   6.513   6.560 -0.2855  1.1987  0.5473
  106MOL   H17027680   1.046   6.595   6.671 -1.1068 -0.1755 -0.7202
  106MOL   C17127681   1.047   6.377   6.703 -0.7471 -0.5138  0.5913
  106MOL   C17227682   0.951   6.404   6.822  0.8336  0.5546  0.0715
  106MOL   C17327683   0.968   6.349   6.960  0.6973 -0.1046 -0.3001
  106MOL   C17427684   0.981   6.497   6.933 -0.5070  0.1313  0.1840
  106MOL   C17527685   1.015   6.247   6.630  0.6781  0.1523  0.7925
  106MOL   H17627686   1.143   6.363   6.753 -0.7708 -3.2803 -0.0659
  106MOL   H17727687   0.850   6.392   6.785  1.3807  3.6828 -2.7530
  106MOL   H17827688   0.874   6.306   6.995  1.5671 -1.5859  0.2600
  106MOL   H17927689   1.064   6.305   6.986  1.5561 -0.2342 -3.5553
  106MOL   H18027690   1.083   6.530   6.953 -0.4123  0.0509 -0.1628
  106MOL   H18127691   0.900   6.563   6.962 -0.4423  0.6576 -0.7822
  106MOL   H18227692   1.082   6.254   6.544  2.5439  0.8505  2.2765
  106MOL   H18327693   0.915   6.263   6.588  0.2807 -1.4478  1.0731
  106MOL   C18427694   1.015   6.115   6.700  0.2892  0.2236 -0.4437
  106MOL   C18527695   1.145   6.052   6.723 -0.1513  0.0539  0.4025
  106MOL   C18627696   1.169   5.969   6.845  0.2845 -0.3864  0.3052
  106MOL   C18727697   1.227   6.105   6.836 -0.3948 -0.2873  0.4288
  106MOL   C18827698   0.919   6.006   6.646 -0.1394 -0.1370 -0.0488
  106MOL   H18927699   0.983   6.128   6.803  1.1839  1.6353 -0.3375
  106MOL   H19027700   1.195   6.019   6.632  2.2426 -0.4553  1.8718
  106MOL   H19127701   1.235   5.887   6.817  1.1620  0.7223 -0.9429
  106MOL   H19227702   1.096   5.940   6.921 -0.7310  0.9907 -0.1364
  106MOL   H19327703   1.335   6.092   6.840 -0.5732 -2.3685 -0.5110
  106MOL   H19427704   1.193   6.175   6.911  1.5216  1.5417 -0.3706
  106MOL   H19527705   0.975   5.914   6.632  1.3928  0.9198 -0.9400
  106MOL   H19627706   0.885   6.024   6.544 -0.7451  2.0403  0.5091
  106MOL   C19727707   0.801   5.970   6.737  0.2548 -0.0106  0.2302
  106MOL   C19827708   0.750   5.831   6.691 -0.6335 -0.3861  0.2069
  106MOL   C19927709   0.697   5.731   6.792 -0.2313 -0.0944 -0.6311
  106MOL   C20027710   0.822   5.694   6.717 -0.2375 -0.3504  0.2657
  106MOL   C20127711   0.684   6.072   6.737  0.0891 -0.3266 -0.5917
  106MOL   H20227712   0.845   5.947   6.834  3.0173 -1.1748 -1.2537
  106MOL   H20327713   0.695   5.837   6.597 -1.8179 -2.0379  0.7544
  106MOL   H20427714   0.699   5.767   6.894 -0.4389 -0.6727 -0.4246
  106MOL   H20527715   0.610   5.675   6.759 -0.2895  1.2580 -2.8836
  106MOL   H20627716   0.924   5.704   6.753 -0.3192 -0.8439  0.6498
  106MOL   H20727717   0.808   5.605   6.655  0.0478 -1.0412  1.1788
  106MOL   H20827718   0.726   6.172   6.740 -1.0582  0.1539 -0.4461
  106MOL   H20927719   0.644   6.072   6.635 -0.0123  3.3504 -0.5971
  106MOL   C21027720   0.576   6.059   6.851  0.2677 -0.0038 -0.2347
  106MOL   C21127721   0.611   6.130   6.983 -0.7017 -0.3244  0.0736
  106MOL   C21227722   0.567   6.077   7.116  0.2903  0.2670  0.4382
  106MOL   C21327723   0.710   6.061   7.080  0.1677  0.1453  0.1949
  106MOL   C21427724   0.439   6.122   6.797  0.6360  1.1549 -0.6078
  106MOL   H21527725   0.571   5.953   6.875  1.7424 -0.6866 -2.6765
  106MOL   H21627726   0.617   6.239   6.980  1.0739 -0.3419  2.1734
  106MOL   H21727727   0.547   6.145   7.198  0.3018  0.5740  0.1868
  106MOL   H21827728   0.505   5.988   7.107  1.0062 -0.3672  1.7120
  106MOL   H21927729   0.778   6.124   7.137 -0.7385 -0.1295  1.5860
  106MOL   H22027730   0.749   5.969   7.036 -2.9421 -0.7340 -0.8254
  106MOL   H22127731   0.440   6.230   6.808 -1.1328  1.2864 -1.4384
  106MOL   H22227732   0.422   6.114   6.689  0.0870  1.9330 -0.5829
  106MOL   C22327733   0.306   6.061   6.858  0.1953 -0.2097 -0.1284
  106MOL   C22427734   0.283   5.916   6.816 -0.0204  0.3419 -0.5859
  106MOL   C22527735   0.329   5.802   6.892  0.2694  0.3964  0.3352
  106MOL   C22627736   0.183   5.834   6.888  0.1318 -0.2691  0.6238
  106MOL   C22727737   0.183   6.150   6.826  1.2006 -0.7601 -0.5486
  106MOL   H22827738   0.323   6.062   6.966  2.6109  0.1206 -0.4742
  106MOL   H22927739   0.293   5.917   6.707  0.3656  1.3207 -0.5394
  106MOL   H23027740   0.384   5.827   6.982  1.0865  1.8401 -0.5363
  106MOL   H23127741   0.358   5.709   6.844  1.0062  0.2980  0.9743
  106MOL   H23227742   0.119   5.778   6.821  0.8059 -1.6788  1.1297
  106MOL   H23327743   0.149   5.871   6.985  2.5164  0.2417  1.2915
  106MOL   H23427744   0.172   6.159   6.718 -1.9049  1.1814 -0.1138
  106MOL   H23527745   0.089   6.109   6.861  0.8627  0.4022 -0.0801
  106MOL   C23627746   0.187   6.296   6.874 -0.2046 -0.0304 -0.9110
  106MOL   C23727747   0.230   6.304   7.018  0.0660 -0.2621  0.1567
  106MOL   C23827748   0.180   6.403   7.115 -0.1200  0.4519 -0.8605
  106MOL   C23927749   0.138   6.259   7.127 -0.0464  0.6904  0.0977
  106MOL   C24027750   0.059   6.368   6.835  0.7370 -0.1578  0.9056
  106MOL   H24127751   0.263   6.352   6.819 -0.1871  2.2763  1.3535
  106MOL   H24227752   0.332   6.269   7.034 -0.7215 -1.8426  1.8558
  106MOL   H24327753   0.248   6.441   7.191 -0.2481 -1.7400  0.4066
  106MOL   H24427754   0.099   6.469   7.085 -1.5241 -0.7793  0.1378
  106MOL   H24527755   0.034   6.230   7.110  0.0667  0.7544 -0.7212
  106MOL   H24627756   0.187   6.198   7.203  0.3390 -0.0738 -0.7529
  106MOL   H24727757   0.024   6.344   6.734 -0.2040  2.8958  0.4225
  106MOL   H24827758   7.820   6.329   6.900 -0.1966 -1.0242 -0.7096
  106MOL   C24927759   0.072   6.523   6.828 -0.9234  0.8697 -0.5385
  106MOL   C25027760   7.774   6.586   6.840  0.0050  0.8431  0.0110
  106MOL   C25127761   7.705   6.614   6.968  0.3377 -0.3481 -0.0195
  106MOL   C25227762   7.772   6.726   6.884 -0.4082 -0.0989  0.2469
  106MOL   C25327763   0.157   6.581   6.706 -0.1219 -0.0094  0.2906
  106MOL   H25427764   0.136   6.560   6.907  0.1511  1.6040 -1.7410
  106MOL   H25527765   7.712   6.582   6.751 -0.1325 -1.5183  0.1817
  106MOL   H25627766   7.598   6.595   6.971  0.2590  0.0388 -0.4994
  106MOL   H25727767   7.756   6.604   7.064  2.4981  1.8768 -0.9019
  106MOL   H25827768   7.708   6.802   6.838  0.1725  0.8023  0.9109
  106MOL   H25927769   0.031   6.765   6.907 -0.1478 -0.0588 -0.8655
  106MOL   H26027770   0.259   6.544   6.715 -0.3934 -0.3152  2.2119
  106MOL   H26127771   0.155   6.689   6.690  0.3196  0.2253  1.7874
  106MOL   H26227772   0.129   6.534   6.611 -0.6204 -2.0609  1.4277
  107MOL     C127773   6.867   5.934   6.658  0.9047  0.2223  0.4681
  107MOL     C227774   6.897   5.832   6.777  0.6792 -0.2356  0.5754
  107MOL     C327775   6.786   5.779   6.874 -0.2124 -0.4373 -0.1411
  107MOL     C427776   6.877   5.888   6.918 -0.0224  0.0147 -0.4544
  107MOL     C527777   6.840   5.851   6.527 -0.0782  0.1226 -0.6369
  107MOL     H627778   6.773   5.988   6.671  0.2196 -1.1363  1.2802
  107MOL     H727779   6.991   5.778   6.770  1.0796  0.7490 -2.0782
  107MOL     H827780   6.688   5.804   6.837 -0.4596 -0.8368  0.2319
  107MOL     H927781   6.801   5.679   6.915 -2.0691 -0.6590  0.0048
  107MOL    H1027782   6.945   5.861   6.999  0.8394 -2.5128 -1.9703
  107MOL    H1127783   6.831   5.986   6.918  1.5675  0.7689 -0.4621
  107MOL    H1227784   6.744   5.800   6.534 -0.4929  0.9788  0.0603
  107MOL    H1327785   6.925   5.790   6.497  1.6702  2.8315 -1.3349
  107MOL    H1427786   6.946   6.007   6.640 -0.6390  1.9114  0.4323
  107MOL    C1527787   6.814   5.944   6.401 -0.4351  0.4239  0.0411
  107MOL    C1627788   6.935   6.034   6.376 -0.0153 -0.8820  0.7426
  107MOL    C1727789   6.944   6.175   6.435 -0.2325 -0.3677 -0.2545
  107MOL    C1827790   6.927   6.153   6.281 -0.5143  0.6962 -0.1561
  107MOL    C1927791   6.781   5.859   6.282 -0.4088 -0.6460 -0.2467
  107MOL    H2027792   6.722   5.996   6.430  0.3755  0.3181  2.9410
  107MOL    H2127793   7.037   5.999   6.376 -0.0099 -0.8643  0.1126
  107MOL    H2227794   7.041   6.218   6.459 -0.1787 -0.1578 -0.8521
  107MOL    H2327795   6.855   6.206   6.490 -0.8276  0.7911 -1.8526
  107MOL    H2427796   6.832   6.174   6.234 -1.0803  0.7916  1.0117
  107MOL    H2527797   7.008   6.160   6.209 -0.4762 -2.2202 -0.4431
  107MOL    H2627798   6.726   5.771   6.315  0.3557 -0.7081  0.8862
  107MOL    H2727799   6.869   5.815   6.234  0.2576  0.6093 -0.2025
  107MOL    C2827800   6.683   5.918   6.172 -0.4032  0.7059 -0.1688
  107MOL    C2927801   6.548   5.954   6.238 -0.0217  0.0764 -0.4524
  107MOL    C3027802   6.511   6.099   6.261 -0.3054  0.0198 -0.2648
  107MOL    C3127803   6.436   6.013   6.165  1.1955 -0.2701  0.8216
  107MOL    C3227804   6.676   5.816   6.061  0.1772 -0.9334  0.1297
  107MOL    H3327805   6.720   6.008   6.122  2.9093 -1.1334 -1.1529
  107MOL    H3427806   6.520   5.882   6.315  1.8918 -0.5986 -0.3697
  107MOL    H3527807   6.584   6.168   6.219  1.0310 -1.2035 -0.0348
  107MOL    H3627808   6.448   6.129   6.345  1.4324 -1.6118  1.7096
  107MOL    H3727809   6.456   6.033   6.060  0.9264  0.5901  0.9332
  107MOL    H3827810   6.339   5.968   6.185  0.8610 -1.1377 -2.4137
  107MOL    H3927811   6.591   5.841   5.997  1.0756  0.3049 -0.6175
  107MOL    H4027812   6.649   5.721   6.105  2.5225  0.0360  3.8562
  107MOL    C4127813   6.794   5.794   5.966 -0.0580 -0.0834  0.2639
  107MOL    C4227814   6.827   5.922   5.891 -0.2942 -0.7512  0.3646
  107MOL    C4327815   6.965   5.949   5.836  0.1202 -0.2819  0.4285
  107MOL    C4427816   6.918   6.013   5.962 -0.0073 -0.4333  0.5417
  107MOL    C4527817   6.769   5.673   5.868  0.4729  0.0915 -0.4441
  107MOL    H4627818   6.882   5.769   6.026  0.3607  1.1182  0.1682
  107MOL    H4727819   6.742   5.960   5.834  0.9778  1.2676 -0.2474
  107MOL    H4827820   7.041   5.873   5.849 -0.9301 -1.8980 -2.5205
  107MOL    H4927821   6.975   6.008   5.745  2.2416 -0.5233  0.4913
  107MOL    H5027822   6.905   6.121   5.958  0.1005 -0.3579  1.9179
  107MOL    H5127823   6.963   5.967   6.050  0.7624 -0.3868  0.1763
  107MOL    H5227824   6.818   5.684   5.771 -0.6287 -0.3405 -1.0516
  107MOL    H5327825   6.664   5.674   5.841 -0.0844 -4.1298  1.2285
  107MOL    C5427826   6.794   5.532   5.925  0.4115 -0.2286 -0.4762
  107MOL    C5527827   6.721   5.427   5.838 -0.1139 -1.1906  1.2427
  107MOL    C5627828   6.573   5.418   5.814  0.0465 -0.1100  0.7874
  107MOL    C5727829   6.645   5.317   5.904  0.3950  0.0543 -0.1828
  107MOL    C5827830   6.948   5.510   5.921 -0.2809 -0.7049 -0.1403
  107MOL    H5927831   6.764   5.524   6.030  0.4401  0.7570 -0.3899
  107MOL    H6027832   6.786   5.404   5.753 -0.8803 -0.4533  0.4559
  107MOL    H6127833   6.500   5.483   5.861 -0.1891  0.0647  0.1796
  107MOL    H6227834   6.562   5.403   5.707  2.4303 -0.4338  0.5519
  107MOL    H6327835   6.654   5.221   5.854 -1.6942  0.6833 -1.8305
  107MOL    H6427836   6.651   5.321   6.012 -0.9558  2.7288 -0.1651
  107MOL    H6527837   6.974   5.497   5.816 -0.6638  0.9917 -0.4636
  107MOL    H6627838   6.995   5.603   5.952 -2.0659 -0.0113  0.5727
  107MOL    C6727839   7.004   5.389   5.991 -0.0095  0.5425 -0.4195
  107MOL    C6827840   7.131   5.358   5.925  0.0683  0.6167 -0.3382
  107MOL    C6927841   7.154   5.213   5.885 -0.1213 -0.5651  0.6357
  107MOL    C7027842   7.142   5.312   5.775 -0.7909  0.5039  0.8909
  107MOL    C7127843   7.027   5.418   6.143  0.0017  0.0027  0.0199
  107MOL    H7227844   6.929   5.313   5.968 -1.3023  2.1263 -1.5333
  107MOL    H7327845   7.216   5.415   5.961 -2.0933  3.5334  0.2970
  107MOL    H7427846   7.245   5.158   5.905  0.9358  1.9172  2.9021
  107MOL    H7527847   7.069   5.146   5.898  0.0287 -0.2767  3.2426
  107MOL    H7627848   7.048   5.323   5.720  0.1492  1.7207 -0.4918
  107MOL    H7727849   7.221   5.363   5.720 -0.9789 -0.3069 -0.1530
  107MOL    H7827850   6.947   5.481   6.184  1.0603  0.5367  1.3108
  107MOL    H7927851   7.111   5.487   6.149  1.1886 -1.6268  2.6530
  107MOL    C8027852   7.042   5.299   6.236 -0.2328  0.7074  0.3517
  107MOL    C8127853   6.913   5.216   6.236  0.5028  0.2656  0.1529
  107MOL    C8227854   6.884   5.095   6.318  0.5043  0.1080 -0.1887
  107MOL    C8327855   6.891   5.087   6.163  0.6396 -0.3920 -0.2170
  107MOL    C8427856   7.087   5.345   6.378  0.2410  0.0138 -0.6602
  107MOL    H8527857   7.118   5.232   6.196 -0.9668 -0.5035  0.9669
  107MOL    H8627858   6.828   5.284   6.237  2.8502  3.2934 -0.9749
  107MOL    H8727859   6.791   5.096   6.373  1.3439  2.5912  1.2995
  107MOL    H8827860   6.969   5.050   6.369 -0.9081 -0.6614  1.5131
  107MOL    H8927861   6.973   5.035   6.114  1.6590  0.2090  0.8029
  107MOL    H9027862   6.793   5.079   6.117  0.0773  2.2073  0.4155
  107MOL    H9127863   7.031   5.438   6.378 -1.4961 -1.0237 -1.3171
  107MOL    H9227864   7.038   5.282   6.453  2.0034  0.7973  1.2033
  107MOL    C9327865   7.235   5.347   6.408 -0.4595  0.2941 -0.8659
  107MOL    C9427866   7.261   5.411   6.546 -1.0389  0.1923  0.4449
  107MOL    C9527867   7.368   5.506   6.563  0.3559 -0.0156  0.1526
  107MOL    C9627868   7.228   5.557   6.563 -0.2142  0.7016  0.5631
  107MOL    C9727869   7.295   5.206   6.410 -0.4982  0.0279 -0.0855
  107MOL    H9827870   7.279   5.419   6.339 -2.7972  1.2647 -1.3924
  107MOL    H9927871   7.226   5.358   6.634 -1.0542  0.4788  0.6128
  107MOL   H10027872   7.419   5.507   6.659 -1.6914  0.6519  1.2541
  107MOL   H10127873   7.434   5.547   6.486 -0.1359 -0.9112 -0.7689
  107MOL   H10227874   7.198   5.582   6.664 -1.8166  0.1084  0.2530
  107MOL   H10327875   7.188   5.612   6.478  1.2166 -0.4672 -0.9014
  107MOL   H10427876   7.265   5.143   6.327 -0.5330  0.1780 -0.1865
  107MOL   H10527877   7.249   5.153   6.493 -1.4597  1.6730  0.4443
  107MOL   C10627878   7.450   5.180   6.424  0.0225 -0.2409 -0.4166
  107MOL   C10727879   7.477   5.034   6.429  0.2862  0.0855  0.1763
  107MOL   C10827880   7.588   4.981   6.501 -0.2054  0.0515  0.3051
  107MOL   C10927881   7.458   4.957   6.556 -0.2760  0.1882  0.4823
  107MOL   C11027882   7.539   5.267   6.327 -1.1490  0.2936 -0.2252
  107MOL   H11127883   7.458   5.219   6.526 -2.1025 -2.1454  0.5087
  107MOL   H11227884   7.460   4.986   6.333  2.3276 -0.8313  0.2416
  107MOL   H11327885   7.644   4.899   6.457  0.3854  0.7117 -0.1890
  107MOL   H11427886   7.649   5.051   6.558  0.0693  0.0345  0.0355
  107MOL   H11527887   7.439   5.016   6.645  1.0966  1.2080  0.1261
  107MOL   H11627888   7.407   4.861   6.552 -0.0590 -0.0098  2.2203
  107MOL   H11727889   7.502   5.247   6.226 -0.5944 -0.4174 -0.2991
  107MOL   H11827890   7.523   5.373   6.346 -1.0149  0.3693 -0.5253
  107MOL   C11927891   7.693   5.254   6.337 -0.0185  0.3939  0.6854
  107MOL   C12027892   7.757   5.319   6.212 -0.5067  0.0099 -0.2887
  107MOL   C12127893   7.711   5.278   6.074  0.5532 -0.0658 -0.4732
  107MOL   C12227894   0.004   5.234   6.122 -0.0812 -0.4689 -0.3128
  107MOL   C12327895   7.755   5.318   6.464 -0.8835  1.1250 -0.4728
  107MOL   H12427896   7.713   5.147   6.332  2.8473  0.7425  2.8140
  107MOL   H12527897   7.809   5.413   6.226  1.2783 -0.9211 -0.4346
  107MOL   H12627898   7.695   5.357   6.001  0.2989  1.3177  1.0375
  107MOL   H12727899   7.629   5.206   6.073  1.0837 -0.6714 -0.9443
  107MOL   H12827900   0.023   5.130   6.146  2.2262  0.1950  0.8449
  107MOL   H12927901   0.085   5.282   6.068 -0.3384  0.6029  0.2382
  107MOL   H13027902   7.748   5.426   6.450  0.5693  1.2282 -0.4997
  107MOL   H13127903   7.689   5.290   6.546 -0.5955 -0.9496 -0.9231
  107MOL   C13227904   0.063   5.283   6.504 -0.1331 -0.1454 -0.5598
  107MOL   C13327905   0.069   5.138   6.555 -0.4371 -0.3849 -0.0081
  107MOL   C13427906   0.193   5.055   6.561 -0.2634 -0.6893  0.0999
  107MOL   C13527907   0.085   5.021   6.459  0.3912  0.5849  0.3772
  107MOL   C13627908   0.121   5.386   6.613 -0.3939  0.3489  0.0456
  107MOL   H13727909   0.117   5.298   6.410  0.1573  1.2962 -0.1727
  107MOL   H13827910   0.008   5.120   6.644  0.1209  0.1053  0.4749
  107MOL   H13927911   0.286   5.105   6.540  0.2337 -1.1514  1.1286
  107MOL   H14027912   0.205   4.973   6.633  1.6298 -2.4960 -2.2057
  107MOL   H14127913   0.111   5.035   6.354 -0.7949  3.4140  0.4267
  107MOL   H14227914   0.019   4.937   6.481 -1.4802  1.3490 -2.0390
  107MOL   H14327915   0.079   5.487   6.607 -2.0705 -0.2357  1.4904
  107MOL   H14427916   0.076   5.363   6.709  0.0272 -0.7006 -0.0090
  107MOL   C14527917   0.279   5.396   6.624 -0.6960  0.7125 -0.6815
  107MOL   C14627918   0.322   5.501   6.526  0.5401  0.3924  0.0758
  107MOL   C14727919   0.460   5.504   6.464 -0.2345 -0.3265 -0.6629
  107MOL   C14827920   0.343   5.452   6.382  0.8210 -1.3684  0.2575
  107MOL   C14927921   0.320   5.443   6.767  0.2934 -0.3758  0.2101
  107MOL   H15027922   0.330   5.303   6.599  0.7785  0.9049  1.4958
  107MOL   H15127923   0.272   5.598   6.534  0.4250  0.3247  0.1846
  107MOL   H15227924   0.502   5.601   6.436 -1.2204 -0.5518 -3.0814
  107MOL   H15327925   0.541   5.434   6.484 -1.3293 -0.9232  1.8387
  107MOL   H15427926   0.339   5.345   6.363 -0.9974 -1.2857  0.0946
  107MOL   H15527927   0.310   5.518   6.302  0.4287  0.8750  2.2071
  107MOL   H15627928   0.423   5.474   6.781 -0.1429  0.3906  2.0006
  107MOL   H15727929   0.267   5.539   6.769  2.2652  0.7291  0.2749
  107MOL   C15827930   0.278   5.352   6.887 -0.2781 -0.2663 -0.6180
  107MOL   C15927931   0.312   5.422   7.012 -0.1824 -0.1518  0.1604
  107MOL   C16027932   0.219   5.529   7.065 -0.0561  0.4911  0.9577
  107MOL   C16127933   0.238   5.401   7.139  0.8788 -0.3148  0.5021
  107MOL   C16227934   0.334   5.212   6.872  0.5696 -0.1191  0.0731
  107MOL   H16327935   0.169   5.349   6.886 -0.3380  1.5511 -1.1075
  107MOL   H16427936   0.415   5.455   7.014 -0.5170  1.0811 -2.2077
  107MOL   H16527937   0.145   5.551   6.987  2.5296  2.5128 -1.0244
  107MOL   H16627938   0.276   5.615   7.098 -0.1581  1.3212 -0.9184
  107MOL   H16727939   0.304   5.411   7.226  0.7288  0.9648  0.4818
  107MOL   H16827940   0.149   5.340   7.148 -0.0348  0.9227  0.0735
  107MOL   H16927941   0.441   5.218   6.857  0.3061  2.7379 -0.9811
  107MOL   H17027942   0.297   5.174   6.777  0.3128  1.3863 -0.4449
  107MOL   C17127943   0.284   5.107   6.976 -0.3893  0.0149  0.3680
  107MOL   C17227944   0.142   5.064   6.938 -0.5668 -0.1161  0.8025
  107MOL   C17327945   0.037   5.024   7.042 -0.7427  0.2822 -0.2935
  107MOL   C17427946   0.019   5.150   6.959  0.5760  0.0141 -0.2181
  107MOL   C17527947   0.387   4.996   7.007  0.3446 -0.1076  0.3122
  107MOL   H17627948   0.272   5.162   7.069  1.2745  0.6825  0.2192
  107MOL   H17727949   0.150   4.996   6.853 -0.5328 -1.5981  1.9633
  107MOL   H17827950   7.821   4.938   7.006 -0.7998  0.8684 -1.6327
  107MOL   H17927951   0.039   5.051   7.147  3.4990 -1.2351  0.1169
  107MOL   H18027952   0.029   5.251   6.999 -0.8580 -0.4503  1.3476
  107MOL   H18127953   7.780   5.143   6.884  0.0854 -0.1608  0.3161
  107MOL   H18227954   0.407   4.954   6.908 -1.5282 -0.5710  0.1141
  107MOL   H18327955   0.335   4.928   7.074 -1.8337  1.1030 -0.1165
  107MOL   C18427956   0.518   5.026   7.086 -0.3732  0.3562  0.3480
  107MOL   C18527957   0.485   5.109   7.211 -0.1034  0.4961  0.0889
  107MOL   C18627958   0.552   5.090   7.346 -0.4432 -0.0331  0.1046
  107MOL   C18727959   0.411   5.036   7.319 -0.3086 -0.3402  0.7107
  107MOL   C18827960   0.613   5.104   6.993  0.1792  0.4048  0.0069
  107MOL   H18927961   0.551   4.929   7.124  0.7141  0.7581  0.4175
  107MOL   H19027962   0.444   5.210   7.200 -3.3979 -0.8931 -0.8864
  107MOL   H19127963   0.557   5.173   7.417  0.8141 -0.3760  0.4341
  107MOL   H19227964   0.630   5.014   7.354 -1.0207 -0.9367 -2.3996
  107MOL   H19327965   0.337   5.087   7.380 -0.3728  0.8428 -0.3485
  107MOL   H19427966   0.403   4.927   7.325  1.3676 -0.5781 -0.9694
  107MOL   H19527967   0.590   5.210   6.997  2.2810  0.9836 -2.3529
  107MOL   H19627968   0.609   5.066   6.892  0.6546 -2.6128  1.0728
  107MOL   C19727969   0.759   5.093   7.041  0.8671  0.1697  0.0446
  107MOL   C19827970   0.824   5.201   6.958 -0.3161 -0.1849  0.1426
  107MOL   C19927971   0.948   5.272   7.009  0.1139 -0.3135  0.7180
  107MOL   C20027972   0.817   5.345   6.999 -0.1092 -0.3528  0.4511
  107MOL   C20127973   0.807   4.955   7.002  0.4182  0.0810 -0.1556
  107MOL   H20227974   0.773   5.126   7.144 -0.7297  0.3225  0.2281
  107MOL   H20327975   0.814   5.182   6.851  0.7020  0.9278 -0.1555
  107MOL   H20427976   0.982   5.249   7.110  0.0759  0.3788  0.8913
  107MOL   H20527977   1.018   5.305   6.933  0.0075 -1.9594 -0.1193
  107MOL   H20627978   0.761   5.367   7.090  0.5792  2.0817  0.3142
  107MOL   H20727979   0.806   5.420   6.921  0.2981 -0.8676 -0.1011
  107MOL   H20827980   0.749   4.911   6.921 -0.3477  1.1889 -0.2183
  107MOL   H20927981   0.904   4.980   6.959  0.6722  0.9197  0.8813
  107MOL   C21027982   0.826   4.851   7.119 -0.1734 -0.0217  0.6127
  107MOL   C21127983   0.839   4.710   7.065  0.8194  0.2298  0.1965
  107MOL   C21227984   0.793   4.587   7.137 -0.9357  0.0372  0.7834
  107MOL   C21327985   0.722   4.637   7.003  0.3856 -0.0710 -0.3371
  107MOL   C21427986   0.953   4.900   7.199 -0.3520  0.0904 -0.2291
  107MOL   H21527987   0.749   4.851   7.196 -1.7819  0.3821 -0.9501
  107MOL   H21627988   0.927   4.690   7.004  0.8332  0.4846  0.1352
  107MOL   H21727989   0.840   4.489   7.135 -2.5499 -0.7577 -2.5139
  107MOL   H21827990   0.756   4.602   7.238 -2.2882 -1.2714  0.4954
  107MOL   H21927991   0.725   4.584   6.908 -1.6266  0.1268 -0.5453
  107MOL   H22027992   0.629   4.694   6.999  1.1885  1.1786 -1.7522
  107MOL   H22127993   1.027   4.924   7.122  1.1566  1.9639  1.7371
  107MOL   H22227994   0.932   4.996   7.247  0.2767  0.0953  0.0366
  107MOL   C22327995   1.027   4.805   7.297 -0.2961 -0.4279 -0.4750
  107MOL   C22427996   1.062   4.878   7.425 -0.7542 -0.1237  0.3339
  107MOL   C22527997   0.971   4.928   7.528 -0.2352 -0.1557  0.7219
  107MOL   C22627998   1.052   4.807   7.561  0.1880 -0.2125  0.2621
  107MOL   C22727999   1.144   4.734   7.239  0.0067 -0.4045 -0.6388
  107MOL   H22828000   0.949   4.732   7.314 -0.1384 -0.6108 -0.5406
  107MOL   H22928001   1.152   4.938   7.420  0.8203 -2.4000  0.2047
  107MOL   H23028002   0.865   4.931   7.503  0.4772 -1.8685 -2.8165
  107MOL   H23128003   0.987   5.006   7.602 -1.9691  0.7041  0.2197
  107MOL   H23228004   1.133   4.820   7.633 -1.8509 -1.7409  2.9325
  107MOL   H23328005   0.997   4.713   7.563  1.7471 -1.1603 -0.0182
  107MOL   H23428006   1.116   4.701   7.139  0.0801 -1.7163 -0.2296
  107MOL   H23528007   1.212   4.818   7.228 -3.1233  2.4364  0.6052
  107MOL   C23628008   1.202   4.617   7.319  0.1234 -0.6647 -0.9240
  107MOL   C23728009   1.337   4.572   7.260  0.2484  0.6308  0.2732
  107MOL   C23828010   1.458   4.651   7.293  0.3338 -0.3619 -0.4963
  107MOL   C23928011   1.440   4.510   7.345  0.1925 -0.0806 -0.4127
  107MOL   C24028012   1.114   4.489   7.339  0.2940  0.7987  0.0840
  107MOL   H24128013   1.222   4.664   7.415 -0.5093  0.1825 -1.1991
  107MOL   H24228014   1.334   4.523   7.163 -0.6354  2.7327 -0.8109
  107MOL   H24328015   1.538   4.667   7.222  0.1769 -1.0522 -0.8247
  107MOL   H24428016   1.434   4.744   7.346 -0.9387 -0.7289 -0.4190
  107MOL   H24528017   1.422   4.495   7.451 -1.0790 -1.0293 -0.7526
  107MOL   H24628018   1.478   4.418   7.301  1.7247 -0.7187  2.1273
  107MOL   H24728019   1.014   4.533   7.337 -0.5366 -0.9286  1.8863
  107MOL   H24828020   1.123   4.437   7.243  0.8024 -0.1892  0.6632
  107MOL   C24928021   1.145   4.391   7.456  0.5568  0.2263  0.5726
  107MOL   C25028022   1.057   4.269   7.464  0.8316 -0.1751 -0.3459
  107MOL   C25128023   0.928   4.238   7.385  0.0893 -0.4237 -0.1326
  107MOL   C25228024   1.058   4.170   7.355  0.0270 -0.5051  0.0001
  107MOL   C25328025   1.129   4.457   7.598 -0.0366 -0.4582  0.1319
  107MOL   H25428026   1.242   4.343   7.449 -0.5264 -1.9808  0.2197
  107MOL   H25528027   1.055   4.223   7.563 -0.9632  1.1785  0.2545
  107MOL   H25628028   0.848   4.176   7.424 -0.1316  0.6562  1.1872
  107MOL   H25728029   0.890   4.317   7.320 -1.2528 -0.8280  0.1354
  107MOL   H25828030   1.054   4.064   7.381  1.9747 -0.5559  0.1482
  107MOL   H25928031   1.119   4.206   7.272  2.7324 -0.4362  1.9628
  107MOL   H26028032   1.206   4.533   7.609 -0.4670  0.1016 -0.6670
  107MOL   H26128033   1.142   4.396   7.687 -0.1091 -0.7543 -0.0627
  107MOL   H26228034   1.029   4.501   7.606 -1.3790 -3.6086  1.3184
  108MOL     C128035   1.109   3.739   1.843  0.2310 -0.5889 -0.0484
  108MOL     C228036   1.156   3.607   1.773 -0.3458  0.4531  0.3286
  108MOL     C328037   1.236   3.604   1.648  1.0321  0.0062  0.0712
  108MOL     C428038   1.086   3.574   1.637 -0.3672  0.4328  0.1533
  108MOL     C528039   1.001   3.714   1.954 -0.3478 -0.2638 -0.4566
  108MOL     H628040   1.196   3.796   1.875  0.6147 -1.1648 -0.0560
  108MOL     H728041   1.187   3.527   1.840 -0.1859 -0.6082 -0.9855
  108MOL     H828042   1.266   3.697   1.600 -0.3519  0.3266 -0.1876
  108MOL     H928043   1.311   3.525   1.650  0.3834 -0.5826  2.4922
  108MOL    H1028044   1.019   3.641   1.583 -0.6959  0.2720  0.3592
  108MOL    H1128045   1.065   3.469   1.617  0.8756 -0.0833  1.4844
  108MOL    H1228046   1.040   3.642   2.026 -1.1657 -0.0530  0.2120
  108MOL    H1328047   0.912   3.663   1.916  0.7822 -0.3456 -3.0367
  108MOL    H1428048   1.067   3.800   1.763  1.1048  0.4537  0.2829
  108MOL    C1528049   0.963   3.843   2.027  0.5913 -0.2035  0.3804
  108MOL    C1628050   0.844   3.822   2.123  0.8975  0.4718  1.1034
  108MOL    C1728051   0.699   3.820   2.071 -0.5832  0.1722  0.4863
  108MOL    C1828052   0.752   3.930   2.166  0.1375 -0.9719 -0.3656
  108MOL    C1928053   1.090   3.898   2.109 -0.0172 -0.9121 -0.2039
  108MOL    H2028054   0.926   3.914   1.953  1.2518  0.8782  1.0913
  108MOL    H2128055   0.860   3.753   2.206 -1.3144 -0.3641  0.8650
  108MOL    H2228056   0.631   3.741   2.103 -1.6575  0.7719 -0.2427
  108MOL    H2328057   0.686   3.855   1.968  1.5532 -1.6794 -0.4486
  108MOL    H2428058   0.759   4.028   2.120 -2.7953 -0.0138  1.1021
  108MOL    H2528059   0.698   3.928   2.261 -1.2543  0.7435 -1.1048
  108MOL    H2628060   1.182   3.890   2.052  0.3836 -0.9209  0.4289
  108MOL    H2728061   1.107   3.826   2.190 -2.9201 -1.7850 -0.3380
  108MOL    C2828062   1.089   4.045   2.163 -0.7206  0.3356  1.0409
  108MOL    C2928063   1.119   4.147   2.050 -0.2459 -0.0387  0.3233
  108MOL    C3028064   1.016   4.209   1.951  0.0628  0.4793 -0.7213
  108MOL    C3128065   1.080   4.291   2.058 -0.4219  0.7935  0.3351
  108MOL    C3228066   1.195   4.061   2.275 -0.0594 -0.3213 -0.0829
  108MOL    H3328067   0.996   4.074   2.213 -0.3596  1.8465  0.8599
  108MOL    H3428068   1.209   4.116   1.997 -0.9874  2.2335 -2.3538
  108MOL    H3528069   0.915   4.171   1.968  0.9818 -1.0720  1.5392
  108MOL    H3628070   1.056   4.228   1.852 -0.0883  0.2204 -0.8340
  108MOL    H3728071   1.036   4.295   2.157  3.0284 -0.8622  2.0518
  108MOL    H3828072   1.168   4.352   2.036  0.3498  1.1250  4.0378
  108MOL    H3928073   1.235   4.162   2.280 -1.2320  0.0337  3.4183
  108MOL    H4028074   1.283   3.997   2.265  0.7892  0.2857  2.8227
  108MOL    C4128075   1.141   4.038   2.419  0.5495 -0.6545 -1.0392
  108MOL    C4228076   1.091   3.900   2.450  0.6641  0.4443  0.2489
  108MOL    C4328077   1.106   3.837   2.587 -0.1985 -0.3380  0.0750
  108MOL    C4428078   1.187   3.787   2.464  0.4415  0.2207 -0.8755
  108MOL    C4528079   1.035   4.149   2.465  0.4133 -0.0990 -1.2512
  108MOL    H4628080   1.231   4.057   2.477  0.4212  0.2588 -1.1289
  108MOL    H4728081   0.997   3.868   2.406  1.1887  1.0964 -1.3704
  108MOL    H4828082   1.145   3.913   2.655 -2.7411 -0.5569  1.8391
  108MOL    H4928083   1.033   3.772   2.635  1.4867 -2.4798 -0.1659
  108MOL    H5028084   1.158   3.688   2.429 -0.5041  0.3378 -0.4569
  108MOL    H5128085   1.293   3.811   2.467  0.2478  1.0737 -0.6806
  108MOL    H5228086   0.991   4.117   2.559 -0.1913 -0.6637 -1.7170
  108MOL    H5328087   0.956   4.142   2.390 -0.7112 -0.1780 -0.0820
  108MOL    C5428088   1.079   4.298   2.493 -0.8954 -0.5768  0.1537
  108MOL    C5528089   0.957   4.388   2.495 -0.6218 -0.1982  0.1467
  108MOL    C5628090   0.920   4.476   2.377  0.0687  0.4033 -1.0562
  108MOL    C5728091   0.992   4.531   2.497  1.0452 -1.2563  0.2135
  108MOL    C5828092   1.172   4.302   2.617  0.5521  0.2599 -0.3285
  108MOL    H5928093   1.128   4.321   2.398  0.2198  0.4887  0.9879
  108MOL    H6028094   0.876   4.354   2.559 -0.8138  1.1964  0.6785
  108MOL    H6128095   0.988   4.467   2.292  0.0890  1.1043 -1.1193
  108MOL    H6228096   0.813   4.489   2.365 -0.1686  1.2590  1.7008
  108MOL    H6328097   0.923   4.589   2.559  2.5990  2.2616 -1.1846
  108MOL    H6428098   1.091   4.572   2.476  0.9737 -2.5057 -2.8555
  108MOL    H6528099   1.113   4.347   2.697  0.9354 -0.7944  0.5691
  108MOL    H6628100   1.202   4.203   2.652 -0.3164  0.3493  0.6979
  108MOL    C6728101   1.303   4.383   2.602 -0.3503  0.7147 -0.5088
  108MOL    C6828102   1.365   4.433   2.734 -0.5223 -0.0026 -0.0546
  108MOL    C6928103   1.436   4.566   2.743 -0.5507  0.6602 -0.2444
  108MOL    C7028104   1.309   4.543   2.816 -0.4609  0.7262 -0.8747
  108MOL    C7128105   1.406   4.308   2.520 -0.1843 -0.2165  0.2435
  108MOL    H7228106   1.273   4.476   2.554  0.1387 -0.1922 -2.6123
  108MOL    H7328107   1.416   4.353   2.787  2.6168  2.7945  1.2261
  108MOL    H7428108   1.536   4.569   2.786  0.7113 -0.4882 -2.9124
  108MOL    H7528109   1.426   4.629   2.655 -0.8234  1.2548  0.2105
  108MOL    H7628110   1.224   4.601   2.782 -1.0161  1.4076  1.5332
  108MOL    H7728111   1.322   4.553   2.924 -0.5305  0.2712 -0.8222
  108MOL    H7828112   1.352   4.255   2.442 -0.1209 -1.3470  0.9589
  108MOL    H7928113   1.445   4.233   2.588 -0.8238  0.0981  0.9678
  108MOL    C8028114   1.524   4.396   2.461  0.0558 -0.4853 -0.0241
  108MOL    C8128115   1.493   4.450   2.320  0.0947 -0.3152  0.6325
  108MOL    C8228116   1.554   4.578   2.262  0.2767 -0.1347  0.1031
  108MOL    C8328117   1.407   4.579   2.295 -0.0523 -0.1829 -0.1657
  108MOL    C8428118   1.651   4.311   2.462 -0.3280 -0.2631  0.7669
  108MOL    H8528119   1.527   4.478   2.532 -3.2763 -0.4779  0.1780
  108MOL    H8628120   1.467   4.384   2.238  0.9382  0.0556  0.0653
  108MOL    H8728121   1.582   4.573   2.157 -1.0359  5.3244 -0.6698
  108MOL    H8828122   1.629   4.624   2.326 -0.1807  1.9155 -0.7970
  108MOL    H8928123   1.372   4.628   2.385  2.0615 -0.5037  0.8602
  108MOL    H9028124   1.324   4.568   2.225 -1.5670 -2.3270  1.8706
  108MOL    H9128125   1.629   4.207   2.436  1.7942 -0.1020 -1.8722
  108MOL    H9228126   1.726   4.354   2.395  0.5531  0.0178  1.9149
  108MOL    C9328127   1.722   4.314   2.600 -0.6132 -0.1083 -0.1584
  108MOL    C9428128   1.788   4.181   2.625  0.6629 -0.0715  0.5191
  108MOL    C9528129   1.784   4.123   2.770  0.1009  0.3183  0.0915
  108MOL    C9628130   1.699   4.062   2.666  1.0685  0.0025 -0.2042
  108MOL    C9728131   1.826   4.423   2.612 -0.5164 -0.2852  0.3121
  108MOL    H9828132   1.640   4.324   2.672 -2.8617  0.0384 -2.6568
  108MOL    H9928133   1.874   4.163   2.561  1.0426  0.4407  0.8850
  108MOL   H10028134   1.868   4.064   2.805 -0.2205 -0.6873 -0.8287
  108MOL   H10128135   1.738   4.189   2.844 -0.2113  2.8253 -2.2556
  108MOL   H10228136   1.742   3.972   2.622 -1.7373 -1.1231 -0.7672
  108MOL   H10328137   1.591   4.075   2.668  1.0914  0.0528  0.7084
  108MOL   H10428138   1.851   4.429   2.718 -1.3860 -1.0306  0.5665
  108MOL   H10528139   1.779   4.521   2.602  0.5528  0.2822  0.7797
  108MOL   C10628140   1.959   4.431   2.527  0.3848 -0.0359 -0.4132
  108MOL   C10728141   1.956   4.536   2.420  0.3082 -0.2443 -0.1638
  108MOL   C10828142   2.056   4.530   2.316 -0.3424 -0.3109  0.2436
  108MOL   C10928143   1.908   4.523   2.283  0.3720 -0.0708  0.2441
  108MOL   C11028144   2.085   4.453   2.625 -0.0035 -0.5818 -0.7999
  108MOL   H11128145   1.973   4.331   2.484  2.0376 -0.1191  0.3033
  108MOL   H11228146   1.929   4.628   2.470  0.8589 -0.1153 -0.1013
  108MOL   H11328147   2.121   4.617   2.305 -0.6543  0.0646  1.3161
  108MOL   H11428148   2.096   4.436   2.279 -1.9934 -0.9289  0.0189
  108MOL   H11528149   1.878   4.426   2.244  0.5177  0.2524 -0.6758
  108MOL   H11628150   1.857   4.611   2.244  0.1085  0.4766  1.7764
  108MOL   H11728151   2.153   4.465   2.540  1.6647  0.0523  0.5956
  108MOL   H11828152   2.096   4.554   2.666  0.3494 -1.2368  0.7483
  108MOL   C11928153   2.131   4.330   2.716 -0.0961  0.4345 -0.2455
  108MOL   C12028154   2.275   4.295   2.699  0.1649 -0.0278  0.3541
  108MOL   C12128155   2.318   4.205   2.588  0.2633  0.4122  0.0886
  108MOL   C12228156   2.337   4.163   2.733 -0.2727 -0.4173  0.1232
  108MOL   C12328157   2.070   4.327   2.860 -0.0786 -0.1688 -0.0914
  108MOL   H12428158   2.092   4.235   2.681 -0.4986  0.0900  1.1097
  108MOL   H12528159   2.340   4.380   2.719  0.6698  0.0329 -1.4660
  108MOL   H12628160   2.405   4.224   2.525  0.1256 -0.5636 -0.4143
  108MOL   H12728161   2.234   4.170   2.529  0.3953  2.1713 -1.1880
  108MOL   H12828162   2.276   4.079   2.768 -1.7590 -0.1889 -1.8311
  108MOL   H12928163   2.439   4.150   2.767 -0.6074 -2.9857  0.2831
  108MOL   H13028164   1.961   4.327   2.852 -0.0938 -1.2913  0.1012
  108MOL   H13128165   2.088   4.230   2.907 -0.7341 -0.8163 -1.1628
  108MOL   C13228166   2.129   4.437   2.956 -0.1411  0.0058 -0.9992
  108MOL   C13328167   2.156   4.375   3.095 -0.2885 -1.4275 -0.5477
  108MOL   C13428168   2.293   4.414   3.156  0.6086 -0.4929  0.4143
  108MOL   C13528169   2.257   4.269   3.116  0.5630 -0.4472  0.1101
  108MOL   C13628170   2.033   4.553   2.965 -0.1471 -1.2203  0.9448
  108MOL   H13728171   2.223   4.465   2.909  0.3907  0.5318  0.3521
  108MOL   H13828172   2.069   4.366   3.160 -0.4786  0.7306 -0.4659
  108MOL   H13928173   2.352   4.481   3.095 -1.4797 -0.8394 -2.0948
  108MOL   H14028174   2.285   4.433   3.263 -0.4104  0.3974  0.1888
  108MOL   H14128175   2.299   4.229   3.024 -1.2415  3.0106 -2.3397
  108MOL   H14228176   2.231   4.198   3.194  1.3094  1.6545  2.3598
  108MOL   H14328177   1.993   4.575   2.866 -1.1184 -2.0305  1.1467
  108MOL   H14428178   1.938   4.521   3.007 -1.3839 -0.0419 -0.8599
  108MOL   C14528179   2.084   4.685   3.021 -0.1889 -0.2249  0.2974
  108MOL   C14628180   2.052   4.788   2.909  0.3244 -0.5129  0.2014
  108MOL   C14728181   2.138   4.903   2.898  0.8294  0.5742  0.0293
  108MOL   C14828182   2.133   4.810   2.777 -0.7694  0.2528 -0.0920
  108MOL   C14928183   2.015   4.718   3.155 -0.3041 -0.2953  0.2882
  108MOL   H15028184   2.193   4.682   3.030 -0.2167 -0.3973  0.5843
  108MOL   H15128185   1.945   4.797   2.892  0.4254  0.8201  0.1824
  108MOL   H15228186   2.096   5.003   2.897  1.9672  1.0502 -0.5912
  108MOL   H15328187   2.225   4.899   2.962  0.5437  0.0392  0.3909
  108MOL   H15428188   2.209   4.732   2.769 -0.6683  0.4359 -0.9288
  108MOL   H15528189   2.081   4.823   2.682  0.0336 -0.7384 -0.6862
  108MOL   H15628190   1.908   4.732   3.139 -0.0356  1.5146 -0.0391
  108MOL   H15728191   2.024   4.632   3.221 -2.2871 -0.6004  0.2130
  108MOL   C15828192   2.072   4.829   3.239 -0.1117  0.0136 -0.9396
  108MOL   C15928193   2.040   4.803   3.389 -0.5018 -0.0945  0.0055
  108MOL   C16028194   2.107   4.701   3.469  0.2630  0.7795  0.1713
  108MOL   C16128195   2.130   4.845   3.506  1.1155  0.4722 -0.1693
  108MOL   C16228196   2.011   4.969   3.202  0.0887  0.9559  0.3073
  108MOL   H16328197   2.181   4.821   3.240 -0.1107  0.0404  1.0649
  108MOL   H16428198   1.934   4.804   3.416 -0.0514  2.0415  1.8452
  108MOL   H16528199   2.193   4.658   3.420  0.0617 -0.4869  0.9214
  108MOL   H16628200   2.045   4.640   3.534 -0.0102  0.6469 -0.2109
  108MOL   H16728201   2.074   4.885   3.591 -0.4561 -0.1778 -0.8653
  108MOL   H16828202   2.226   4.889   3.481  2.2718 -0.6207  2.2358
  108MOL   H16928203   1.907   4.961   3.231 -0.1561 -0.5013 -0.9087
  108MOL   H17028204   2.008   4.978   3.093  1.8341 -0.4001  0.1250
  108MOL   C17128205   2.076   5.100   3.258  0.6060  0.6826 -0.1088
  108MOL   C17228206   2.205   5.126   3.178  0.3424 -0.1137  0.0385
  108MOL   C17328207   2.320   5.205   3.229 -0.2094  0.0710  0.4085
  108MOL   C17428208   2.329   5.054   3.217  0.1750 -0.2825 -0.6601
  108MOL   C17528209   1.979   5.221   3.255  0.1111 -0.5478  0.2970
  108MOL   H17628210   2.109   5.089   3.361  0.1256 -2.4481 -0.2498
  108MOL   H17728211   2.173   5.147   3.076  0.5516 -1.7385 -0.3886
  108MOL   H17828212   2.399   5.244   3.165  0.0027  1.0197  1.2239
  108MOL   H17928213   2.308   5.231   3.334 -2.2696 -2.0933  0.7525
  108MOL   H18028214   2.333   5.003   3.313 -0.8797  1.7064  0.4757
  108MOL   H18128215   2.389   5.008   3.139 -0.8534 -0.8879 -1.1044
  108MOL   H18228216   1.886   5.178   3.292  0.9772 -1.9443  0.8500
  108MOL   H18328217   1.949   5.249   3.154 -1.0127 -0.2767  0.6973
  108MOL   C18428218   2.015   5.349   3.332  0.3006  0.4450 -0.6652
  108MOL   C18528219   1.977   5.328   3.475 -0.6186  0.1480  0.0975
  108MOL   C18628220   2.022   5.425   3.580 -0.3555  1.0434  0.5770
  108MOL   C18728221   2.087   5.288   3.573 -0.6177  0.2123  1.1718
  108MOL   C18828222   1.923   5.461   3.284 -0.5367 -0.0119  0.2270
  108MOL   H18928223   2.118   5.383   3.333  0.2453  0.5963 -0.2235
  108MOL   H19028224   1.876   5.291   3.495  0.4276 -1.7268  2.1945
  108MOL   H19128225   1.981   5.442   3.680 -0.7669  2.1481  0.2252
  108MOL   H19228226   2.077   5.512   3.544  0.9824 -0.5748 -1.4377
  108MOL   H19328227   2.064   5.225   3.659  0.7658 -0.2345  1.2317
  108MOL   H19428228   2.191   5.272   3.546 -0.6048  2.4300 -0.1597
  108MOL   H19528229   1.926   5.542   3.357  0.6910 -0.5777  0.8067
  108MOL   H19628230   1.819   5.428   3.289  0.1808 -2.0013  2.3203
  108MOL   C19728231   1.947   5.526   3.142 -0.9881  0.0127 -0.4023
  108MOL   C19828232   2.086   5.592   3.128 -0.0809 -0.4689 -0.0487
  108MOL   C19928233   2.131   5.648   2.997 -0.0526  0.3858 -0.6673
  108MOL   C20028234   2.202   5.526   3.068 -0.1332  0.3154 -0.5771
  108MOL   C20128235   1.840   5.640   3.117  0.1425 -0.5188  0.6355
  108MOL   H20228236   1.940   5.451   3.063 -0.3880 -0.6867  0.1955
  108MOL   H20328237   2.119   5.639   3.221 -2.3453  1.4876 -0.2048
  108MOL   H20428238   2.063   5.633   2.913  1.8131 -0.8510 -1.9976
  108MOL   H20528239   2.168   5.750   3.010 -0.4611  0.4481  0.0278
  108MOL   H20628240   2.185   5.428   3.024 -3.8998 -0.5325  2.5408
  108MOL   H20728241   2.295   5.542   3.123  0.3462 -1.0529 -0.9740
  108MOL   H20828242   1.826   5.698   3.208  1.0145 -0.9821  1.0803
  108MOL   H20928243   1.882   5.720   3.056  1.9643  0.0003  2.5049
  108MOL   C21028244   1.706   5.592   3.045  0.6356 -0.2018 -0.2436
  108MOL   C21128245   1.608   5.707   3.042  0.6048 -0.5085  0.1126
  108MOL   C21228246   1.461   5.681   3.070  0.5465  0.3609 -0.1937
  108MOL   C21328247   1.549   5.747   3.170  0.7101 -0.0959 -0.2577
  108MOL   C21428248   1.726   5.537   2.899 -0.3799 -0.3009 -0.5794
  108MOL   H21528249   1.671   5.508   3.105  0.0735  0.2426  0.0562
  108MOL   H21628250   1.627   5.779   2.962  0.1951 -3.3735 -2.6836
  108MOL   H21728251   1.392   5.740   3.010  2.4221  1.0927 -1.6873
  108MOL   H21828252   1.435   5.575   3.072 -0.6251  0.6243 -0.6401
  108MOL   H21928253   1.513   5.849   3.184  0.5591  0.2083 -2.7546
  108MOL   H22028254   1.555   5.687   3.261  1.7749 -0.0678 -0.3093
  108MOL   H22128255   1.645   5.584   2.843 -0.3395 -0.3156 -0.6508
  108MOL   H22228256   1.815   5.584   2.857 -0.2103  1.1764  1.3838
  108MOL   C22328257   1.720   5.383   2.873  0.2454  0.3731 -0.4102
  108MOL   C22428258   1.797   5.347   2.746  0.1158 -0.0554 -0.1242
  108MOL   C22528259   1.948   5.348   2.743  0.0206 -0.3896 -0.3162
  108MOL   C22628260   1.871   5.216   2.759 -0.3900 -0.0217  0.6404
  108MOL   C22728261   1.578   5.335   2.869  0.0773 -0.1504 -0.5403
  108MOL   H22828262   1.774   5.339   2.956  1.3746  0.9303 -0.8363
  108MOL   H22928263   1.740   5.353   2.653  1.1410 -0.1706 -0.7596
  108MOL   H23028264   1.993   5.400   2.828 -0.1283 -0.5251 -0.1551
  108MOL   H23128265   1.991   5.376   2.647 -0.6254 -1.9098 -1.0477
  108MOL   H23228266   1.881   5.146   2.677 -1.5236  0.3300  0.1971
  108MOL   H23328267   1.876   5.168   2.857  1.0035 -0.3538  0.4163
  108MOL   H23428268   1.534   5.353   2.967 -0.2099  1.4117 -0.9368
  108MOL   H23528269   1.527   5.408   2.805  1.2539  1.5482  0.4071
  108MOL   C23628270   1.557   5.188   2.845 -0.7956  0.6022  0.5301
  108MOL   C23728271   1.410   5.162   2.808  0.2567 -0.4436 -0.4946
  108MOL   C23828272   1.338   5.238   2.694  0.1327  0.3101  0.0863
  108MOL   C23928273   1.381   5.099   2.679 -0.1431 -0.0924 -0.5379
  108MOL   C24028274   1.592   5.097   2.970  0.2864  0.2084  0.2438
  108MOL   H24128275   1.615   5.148   2.762 -1.1418  0.5876  0.2927
  108MOL   H24228276   1.345   5.158   2.895 -1.1432  1.6616 -1.4273
  108MOL   H24328277   1.233   5.261   2.714  0.2159  0.5277  0.2786
  108MOL   H24428278   1.397   5.304   2.631 -0.4034  1.0923  0.3923
  108MOL   H24528279   1.465   5.083   2.611  0.2978  1.8497 -0.4776
  108MOL   H24628280   1.309   5.018   2.681 -1.6885  1.3000  1.8776
  108MOL   H24728281   1.699   5.109   2.987  0.1618  0.1677  1.0761
  108MOL   H24828282   1.537   5.134   3.056 -0.0628  0.3434 -0.0371
  108MOL   C24928283   1.573   4.946   2.953  0.1997 -0.3780 -0.1813
  108MOL   C25028284   1.624   4.887   3.080  0.2847  0.1800  0.1111
  108MOL   C25128285   1.549   4.875   3.209 -0.3324 -0.2775  0.9244
  108MOL   C25228286   1.579   4.755   3.128  0.3186  0.0402  0.4234
  108MOL   C25328287   1.655   4.892   2.834 -0.3903  0.6597  0.2285
  108MOL   H25428288   1.466   4.926   2.937  0.1925 -0.8207  0.4225
  108MOL   H25528289   1.732   4.892   3.086  0.1795  1.0455  1.4528
  108MOL   H25628290   1.601   4.881   3.305  1.6235  2.0475 -0.2354
  108MOL   H25728291   1.447   4.911   3.198  0.2704  1.0607 -0.4038
  108MOL   H25828292   1.656   4.693   3.173  2.1786  0.8946 -1.4920
  108MOL   H25928293   1.508   4.712   3.057 -1.1597  2.1532  0.5825
  108MOL   H26028294   1.755   4.932   2.818  0.2309 -1.5649 -1.7643
  108MOL   H26128295   1.606   4.910   2.738  2.6876  0.6629 -1.4096
  108MOL   H26228296   1.662   4.784   2.843 -0.5673  0.5243 -1.1174
  109MOL     C128297   7.082   6.813   7.074  0.3504 -0.3479  0.7376
  109MOL     C228298   7.031   6.953   7.093 -0.7417 -0.3337  0.2581
  109MOL     C328299   7.136   7.060   7.112 -0.4405 -0.0019  0.4012
  109MOL     C428300   7.045   7.021   7.227  0.9648  0.2026 -0.2078
  109MOL     C528301   6.983   6.712   7.124 -0.2968 -0.0646  0.2816
  109MOL     H628302   7.110   6.801   6.970 -0.2509 -2.9505  0.8471
  109MOL     H728303   6.940   6.972   7.035  0.7947 -1.1343 -2.5194
  109MOL     H828304   7.236   7.019   7.102  0.0440  0.6205  2.4289
  109MOL     H928305   7.114   7.152   7.057 -0.3426 -0.4864 -0.4489
  109MOL    H1028306   6.965   7.092   7.247  0.9589  0.3963 -0.8830
  109MOL    H1128307   7.084   6.961   7.309  0.2731 -1.6821 -1.2266
  109MOL    H1228308   6.902   6.708   7.050 -0.7960  0.5449  0.7963
  109MOL    H1328309   6.924   6.735   7.213 -0.2437 -0.1493  0.3383
  109MOL    H1428310   7.172   6.790   7.130  2.3985 -0.4652 -2.4863
  109MOL    C1528311   7.027   6.563   7.122 -0.5571  0.2428  0.1824
  109MOL    C1628312   7.137   6.546   7.232 -0.0945  0.0790  0.4356
  109MOL    C1728313   7.283   6.572   7.202  0.0736  0.0575 -0.4869
  109MOL    C1828314   7.241   6.437   7.230  0.5776  0.5410 -0.2639
  109MOL    C1928315   6.909   6.468   7.151 -0.0029 -1.2367  0.3424
  109MOL    H2028316   7.076   6.546   7.026  3.3891  0.5304  2.0330
  109MOL    H2128317   7.110   6.587   7.330  0.6535 -1.1645  1.1748
  109MOL    H2228318   7.342   6.619   7.280 -0.4667 -1.9444  1.1699
  109MOL    H2328319   7.318   6.584   7.100  0.1000 -0.2150 -0.5096
  109MOL    H2428320   7.229   6.365   7.149  0.8467  0.0336  0.1426
  109MOL    H2528321   7.279   6.397   7.324 -2.1647 -0.3401  0.5303
  109MOL    H2628322   6.828   6.525   7.196 -0.0531 -1.1447  0.1325
  109MOL    H2728323   6.945   6.392   7.220  1.3162  0.3917  1.5020
  109MOL    C2828324   6.856   6.405   7.022  0.5791  0.2489 -0.1151
  109MOL    C2928325   6.717   6.338   7.041 -0.8112  0.2528  0.1471
  109MOL    C3028326   6.580   6.402   7.027 -0.1394 -0.4080 -0.4288
  109MOL    C3128327   6.633   6.322   6.915 -0.4776  0.1504 -0.3192
  109MOL    C3228328   6.953   6.288   6.979  0.1862  0.0071 -0.1447
  109MOL    H3328329   6.843   6.480   6.944  0.2579 -0.8713 -1.1585
  109MOL    H3428330   6.712   6.255   7.112  0.9279  0.1633  0.1841
  109MOL    H3528331   6.573   6.510   7.028 -2.9858 -0.5666 -0.0537
  109MOL    H3628332   6.501   6.359   7.087 -0.9182  0.9008 -0.5053
  109MOL    H3728333   6.656   6.383   6.827 -1.6769  1.0229 -0.0442
  109MOL    H3828334   6.577   6.232   6.892  0.3724 -0.0974 -1.4645
  109MOL    H3928335   6.900   6.193   6.969 -0.3049  0.1534  0.9850
  109MOL    H4028336   7.019   6.261   7.061  0.4274 -0.1176 -0.3786
  109MOL    C4128337   7.050   6.314   6.854  0.5549 -0.2816 -0.9927
  109MOL    C4228338   6.971   6.368   6.744 -0.4678 -0.0502  0.1987
  109MOL    C4328339   7.040   6.448   6.627 -0.0202 -0.2235 -0.7149
  109MOL    C4428340   6.950   6.515   6.726  0.1381 -0.2075 -0.3532
  109MOL    C4528341   7.131   6.182   6.830 -1.0512  0.9482  0.4055
  109MOL    H4628342   7.122   6.392   6.877  0.9227 -0.8499 -0.1952
  109MOL    H4728343   6.886   6.307   6.712 -0.0322 -0.8009  0.4661
  109MOL    H4828344   7.146   6.473   6.629 -0.1286  0.3442 -1.7886
  109MOL    H4928345   6.996   6.423   6.530  0.1904  2.2124 -1.4671
  109MOL    H5028346   6.854   6.546   6.685  1.0907  1.8538 -1.0892
  109MOL    H5128347   7.007   6.590   6.781 -0.5374  0.1464 -0.1195
  109MOL    H5228348   7.067   6.121   6.766  2.8353 -2.2508 -0.6277
  109MOL    H5328349   7.151   6.136   6.927 -1.6075  0.2718  0.2034
  109MOL    C5428350   7.269   6.181   6.754 -0.2699 -0.2385  0.1723
  109MOL    C5528351   7.380   6.239   6.839  0.7092 -0.3808 -0.2147
  109MOL    C5628352   7.399   6.388   6.884 -1.2145  0.0910 -0.4796
  109MOL    C5728353   7.489   6.329   6.782  0.7492 -0.2214 -0.8814
  109MOL    C5828354   7.317   6.041   6.714  0.1750  0.6090 -0.0570
  109MOL    H5928355   7.251   6.246   6.668  0.8091  1.4688  1.2172
  109MOL    H6028356   7.405   6.173   6.921  0.3699  0.7868  0.8382
  109MOL    H6128357   7.312   6.447   6.857 -2.0842 -0.3257  1.3338
  109MOL    H6228358   7.436   6.411   6.984  2.1660  1.3602 -1.9480
  109MOL    H6328359   7.590   6.317   6.821  0.3070  1.1256  0.7558
  109MOL    H6428360   7.470   6.365   6.681  2.2404 -1.3231 -1.5721
  109MOL    H6528361   7.345   5.990   6.806  1.4320 -2.7689 -2.1966
  109MOL    H6628362   7.240   5.985   6.659 -2.0084  2.0677  1.4508
  109MOL    C6728363   7.445   6.019   6.639 -0.0062 -0.1583 -0.3026
  109MOL    C6828364   7.525   5.898   6.678  0.1856  0.1593 -0.1773
  109MOL    C6928365   7.674   5.900   6.705 -0.4668  0.4226  0.8193
  109MOL    C7028366   7.583   5.882   6.821 -0.0053 -0.8557  0.0003
  109MOL    C7128367   7.415   6.027   6.485 -0.1320  0.3225  1.0987
  109MOL    H7228368   7.510   6.105   6.658  0.6448 -0.9121  0.9810
  109MOL    H7328369   7.485   5.809   6.631  0.5059  0.9235 -1.9180
  109MOL    H7428370   7.731   5.814   6.670 -1.0504 -0.5142  2.1378
  109MOL    H7528371   7.725   5.996   6.699 -1.5329  0.9995  0.7998
  109MOL    H7628372   7.585   5.952   6.904 -3.8050 -1.8184  1.0405
  109MOL    H7728373   7.568   5.779   6.854 -0.2467 -0.3907  1.3808
  109MOL    H7828374   7.335   6.101   6.485  0.9367  1.5229 -0.8557
  109MOL    H7928375   7.370   5.934   6.448  2.2590 -0.6544  0.5556
  109MOL    C8028376   7.528   6.074   6.393  0.2322 -0.9619  0.9216
  109MOL    C8128377   7.561   6.225   6.408  0.6221 -0.5615 -0.1930
  109MOL    C8228378   7.683   6.270   6.346  0.0722 -0.3703 -0.1534
  109MOL    C8328379   7.676   6.279   6.495  0.0044  0.4862  0.4019
  109MOL    C8428380   7.486   6.035   6.248 -0.1071 -0.7842  0.3252
  109MOL    H8528381   7.618   6.022   6.425  0.4843 -0.7572  0.5447
  109MOL    H8628382   7.474   6.289   6.393  0.6974 -1.2051 -3.8698
  109MOL    H8728383   7.682   6.369   6.301  0.7566 -0.2898 -0.0027
  109MOL    H8828384   7.743   6.184   6.315 -1.3276 -1.2288 -0.5059
  109MOL    H8928385   7.733   6.210   6.557 -0.6327  0.9562  1.5272
  109MOL    H9028386   7.667   6.379   6.536 -0.9665  1.2200 -1.5468
  109MOL    H9128387   7.377   6.043   6.247 -0.0418  0.0745 -0.4379
  109MOL    H9228388   7.515   6.114   6.178  0.4780 -2.4466 -1.3296
  109MOL    C9328389   7.515   5.895   6.194  0.0776  0.4787  0.9979
  109MOL    C9428390   7.397   5.838   6.114  0.6166 -0.2617  0.7439
  109MOL    C9528391   7.398   5.688   6.118 -0.1219  0.1962  0.3754
  109MOL    C9628392   7.282   5.764   6.176 -0.3347 -0.0768 -0.1701
  109MOL    C9728393   7.650   5.886   6.109 -0.1172  0.3408 -0.2284
  109MOL    H9828394   7.538   5.818   6.267  2.0882 -2.1636 -2.2803
  109MOL    H9928395   7.378   5.894   6.022 -1.4318 -0.3647  1.0771
  109MOL   H10028396   7.374   5.636   6.025 -1.6238 -3.0614  2.5086
  109MOL   H10128397   7.452   5.627   6.190 -2.1945 -1.7124  0.3545
  109MOL   H10228398   7.185   5.748   6.130  0.2614 -3.6930 -0.2641
  109MOL   H10328399   7.277   5.769   6.285 -0.3121  0.4809 -0.1892
  109MOL   H10428400   7.647   5.966   6.035  0.8738  0.5050 -0.0915
  109MOL   H10528401   7.653   5.800   6.043 -1.9700  1.4127 -1.7825
  109MOL   C10628402   7.781   5.899   6.191 -0.3805  0.5571 -0.6343
  109MOL   C10728403   7.808   5.769   6.264 -0.1193  0.5786  0.0717
  109MOL   C10828404   0.072   5.747   6.380  0.8715 -0.5303  0.0338
  109MOL   C10928405   7.757   5.744   6.406 -0.0901 -0.3711 -0.0065
  109MOL   C11028406   0.065   5.957   6.117 -0.1802  0.8203 -0.0636
  109MOL   H11128407   7.762   5.972   6.270 -0.1052  1.8186 -1.7112
  109MOL   H11228408   7.798   5.678   6.206  1.8418  0.0532  0.5107
  109MOL   H11328409   0.132   5.659   6.361  2.8927  0.5553  1.2442
  109MOL   H11428410   0.133   5.833   6.407  1.3254 -0.6198 -0.6793
  109MOL   H11528411   7.700   5.828   6.444 -1.0874 -0.8959 -0.3256
  109MOL   H11628412   7.716   5.647   6.431  1.4934 -1.3268 -0.9998
  109MOL   H11728413   0.045   6.064   6.117 -0.3010  0.7994 -0.2626
  109MOL   H11828414   0.141   5.942   6.194 -0.6973 -1.1873  0.0695
  109MOL   C11928415   0.104   5.912   5.969  0.5521  0.1217 -0.1997
  109MOL   C12028416   0.220   5.994   5.919 -0.4616 -0.5226 -0.5581
  109MOL   C12128417   0.217   6.142   5.891 -0.8628 -0.2309 -0.3311
  109MOL   C12228418   0.228   6.046   5.777  0.3437 -0.3542 -0.1346
  109MOL   C12328419   0.129   5.758   5.950 -0.0819 -0.9928  0.7828
  109MOL   H12428420   0.018   5.946   5.912  0.0594  0.2758  0.6200
  109MOL   H12528421   0.309   5.964   5.972 -0.7429 -1.2611 -0.4875
  109MOL   H12628422   0.311   6.186   5.924 -0.3467 -1.5758  0.0343
  109MOL   H12728423   0.125   6.197   5.905 -0.6979 -0.4850  1.9645
  109MOL   H12828424   0.141   6.016   5.720 -2.0544  2.2767  2.0004
  109MOL   H12928425   0.325   6.045   5.727 -0.3237  0.1971 -1.4557
  109MOL   H13028426   0.233   5.731   5.969  1.0428  0.9628 -2.3673
  109MOL   H13128427   0.069   5.705   6.025 -0.6042  2.1145  2.6796
  109MOL   C13228428   0.087   5.706   5.811  0.1017  0.3476 -0.6619
  109MOL   C13328429   7.770   5.703   5.796  0.0356 -0.3683  0.3127
  109MOL   C13428430   7.712   5.689   5.659 -0.0352  0.3415  0.5832
  109MOL   C13528431   7.712   5.820   5.725  0.2287  0.1412  0.5816
  109MOL   C13628432   0.135   5.560   5.798  0.1216  0.0265  1.2719
  109MOL   H13728433   0.123   5.762   5.725 -1.5621  0.8437 -1.0678
  109MOL   H13828434   7.706   5.664   5.874  0.4719 -1.5561  0.0812
  109MOL   H13928435   7.782   5.663   5.580 -0.1869  1.0989  0.1963
  109MOL   H14028436   7.614   5.640   5.658 -0.7953  1.8577 -0.5157
  109MOL   H14128437   7.782   5.887   5.676 -2.2527  1.6806 -1.0008
  109MOL   H14228438   7.609   5.855   5.730 -0.3890 -1.9566  3.2811
  109MOL   H14328439   0.159   5.518   5.896  1.3057 -1.5214  0.3484
  109MOL   H14428440   0.063   5.491   5.754  3.2617 -2.6713  0.1208
  109MOL   C14528441   0.266   5.538   5.716  0.5094 -0.0198 -1.2515
  109MOL   C14628442   0.385   5.615   5.778  0.4647 -1.1810 -0.1153
  109MOL   C14728443   0.509   5.656   5.689 -0.5347 -0.1729  0.3371
  109MOL   C14828444   0.417   5.759   5.747  0.6521  0.8745  0.2687
  109MOL   C14928445   0.314   5.389   5.699 -0.0269  0.1974  0.3374
  109MOL   H15028446   0.247   5.570   5.614  1.8527  0.9215 -1.2098
  109MOL   H15128447   0.397   5.594   5.884 -0.8161  0.4482  0.3710
  109MOL   H15228448   0.608   5.659   5.732 -0.2258  0.8941 -0.4086
  109MOL   H15328449   0.497   5.637   5.582 -1.2034  1.3725  0.1171
  109MOL   H15428450   0.348   5.813   5.683 -0.2619  1.3475  1.6161
  109MOL   H15528451   0.443   5.809   5.841  3.2958 -0.0003  0.0404
  109MOL   H15628452   0.407   5.386   5.643  0.6063 -1.8408  1.4828
  109MOL   H15728453   0.332   5.352   5.800  1.8560 -0.6424 -0.2954
  109MOL   C15828454   0.213   5.291   5.623 -0.0760 -0.6888 -0.4958
  109MOL   C15928455   0.258   5.145   5.651  0.2143 -0.0145  0.1827
  109MOL   C16028456   0.194   5.057   5.753 -0.3218  0.4315 -0.3687
  109MOL   C16128457   0.172   5.027   5.612 -0.2093 -0.4564  0.7340
  109MOL   C16228458   0.202   5.308   5.464 -0.3774 -0.5078  1.2711
  109MOL   H16328459   0.110   5.298   5.658 -0.0140 -0.2718 -0.4025
  109MOL   H16428460   0.364   5.129   5.670 -0.2626 -1.0256  2.1586
  109MOL   H16528461   0.105   5.094   5.805  0.7290  1.2986  0.8479
  109MOL   H16628462   0.265   4.997   5.810 -0.8055  1.4177  1.3152
  109MOL   H16728463   0.229   4.942   5.575 -0.1620 -0.5686  1.0661
  109MOL   H16828464   0.072   5.036   5.570  0.0105  0.7912  0.4555
  109MOL   H16928465   0.280   5.243   5.424 -1.6525  0.1670 -2.5396
  109MOL   H17028466   0.228   5.410   5.436 -2.4728 -0.5016 -0.8221
  109MOL   C17128467   0.065   5.277   5.407 -0.4399  0.0562  0.7174
  109MOL   C17228468   7.803   5.380   5.442 -0.5559  0.8161  0.5849
  109MOL   C17328469   7.660   5.374   5.400 -0.3409 -1.0024 -0.4349
  109MOL   C17428470   7.694   5.368   5.543  0.1831 -0.1338  0.2176
  109MOL   C17528471   0.067   5.260   5.256 -0.0365  0.5483 -0.4321
  109MOL   H17628472   0.006   5.196   5.452  0.0927  0.7219  2.6840
  109MOL   H17728473   0.004   5.482   5.436  0.2202  0.5507  1.2287
  109MOL   H17828474   7.611   5.468   5.376  2.2546  1.2739  2.6793
  109MOL   H17928475   7.625   5.283   5.353  0.5863 -1.6224  0.0524
  109MOL   H18028476   7.678   5.268   5.584  0.0560  0.8188  2.5800
  109MOL   H18128477   7.657   5.450   5.605  1.9538  2.0328 -1.5079
  109MOL   H18228478   0.148   5.323   5.219 -0.9572  1.3708 -1.0707
  109MOL   H18328479   7.820   5.313   5.215  0.1118  0.5033 -0.8059
  109MOL   C18428480   0.069   5.114   5.200 -0.3260 -0.0161  0.3541
  109MOL   C18528481   7.789   5.035   5.247 -0.1209 -0.5307 -0.3051
  109MOL   C18628482   7.723   4.934   5.166 -0.0594  0.6379  0.4264
  109MOL   C18728483   7.650   5.063   5.188  0.4915  0.1492 -0.6248
  109MOL   C18828484   0.192   5.023   5.232 -0.2929  0.8035 -0.2088
  109MOL   H18928485   0.072   5.140   5.094  0.5249  2.3741  0.9231
  109MOL   H19028486   7.785   5.031   5.356  2.2746  1.5561 -0.0835
  109MOL   H19128487   7.680   4.849   5.219  0.7121  0.0455  0.0994
  109MOL   H19228488   7.759   4.920   5.065  1.9454 -1.4988  1.4208
  109MOL   H19328489   7.562   5.053   5.252  0.4272  0.4198 -0.6675
  109MOL   H19428490   7.644   5.136   5.108  0.9040 -0.1179 -0.8985
  109MOL   H19528491   0.156   4.921   5.220 -0.3547  0.5820  1.6480
  109MOL   H19628492   0.214   5.048   5.336  0.4002 -2.0515  0.3799
  109MOL   C19728493   0.320   5.035   5.148 -0.1675 -0.5131 -0.0634
  109MOL   C19828494   0.430   4.938   5.186  0.1761 -0.3287 -0.3042
  109MOL   C19928495   0.408   4.820   5.276  0.6332 -0.9252  0.3474
  109MOL   C20028496   0.494   4.932   5.324 -0.0702 -0.3826 -0.5748
  109MOL   C20128497   0.376   5.181   5.135 -0.2183  0.7021 -0.8148
  109MOL   H20228498   0.290   5.001   5.049 -0.2397 -0.8506  0.0749
  109MOL   H20328499   0.497   4.902   5.108  0.2379 -2.5560  0.7375
  109MOL   H20428500   0.307   4.818   5.316  0.9327 -1.2057  1.1035
  109MOL   H20528501   0.455   4.723   5.266  2.1441 -0.2445  0.6657
  109MOL   H20628502   0.452   4.989   5.407  0.5705 -1.1509  0.2884
  109MOL   H20728503   0.596   4.898   5.341 -0.1896  0.0479  1.1313
  109MOL   H20828504   0.291   5.239   5.097  0.0544  0.1640 -2.2731
  109MOL   H20928505   0.393   5.220   5.236 -2.2757  0.6799 -0.4223
  109MOL   C21028506   0.497   5.205   5.044  0.6977 -0.0583 -0.0630
  109MOL   C21128507   0.465   5.158   4.900 -0.3799 -0.4407 -0.3985
  109MOL   C21228508   0.584   5.137   4.812  0.2688  0.5574 -0.3580
  109MOL   C21328509   0.494   5.027   4.847  0.0479 -0.6690  0.3831
  109MOL   C21428510   0.525   5.357   5.040 -0.6450 -0.5114 -0.6003
  109MOL   H21528511   0.588   5.157   5.078  0.1093  1.7238  4.4989
  109MOL   H21628512   0.378   5.211   4.863 -0.4630 -0.0656  0.3226
  109MOL   H21728513   0.580   5.162   4.706  1.4048  1.8973 -0.1055
  109MOL   H21828514   0.684   5.145   4.855 -0.3045  0.7069  0.9573
  109MOL   H21928515   0.449   4.980   4.760  1.5206 -0.6317 -0.3973
  109MOL   H22028516   0.539   4.951   4.911  0.3367 -2.1576 -1.5595
  109MOL   H22128517   0.563   5.385   4.942 -0.2419  0.5358 -0.1532
  109MOL   H22228518   0.440   5.425   5.045  1.2864  1.8151  1.7743
  109MOL   C22328519   0.626   5.413   5.145  0.0486 -0.4679 -0.3866
  109MOL   C22428520   0.575   5.413   5.290  0.3612 -0.3447  0.0671
  109MOL   C22528521   0.621   5.312   5.384 -0.2274  0.5306 -0.4221
  109MOL   C22628522   0.676   5.447   5.402  0.5163 -0.6717  0.4844
  109MOL   C22728523   0.677   5.548   5.107 -0.4707  0.9410  0.3317
  109MOL   H22828524   0.705   5.338   5.153  0.2087 -0.1033  1.6162
  109MOL   H22928525   0.476   5.457   5.298  0.5860  0.3643 -0.9830
  109MOL   H23028526   0.694   5.234   5.362 -0.9963 -0.1827 -0.4537
  109MOL   H23128527   0.535   5.281   5.442 -0.1582  0.6073 -0.2792
  109MOL   H23228528   0.642   5.504   5.488  3.6721 -0.8518  1.9253
  109MOL   H23328529   0.777   5.472   5.371 -0.3702  0.7112 -1.4067
  109MOL   H23428530   0.589   5.611   5.091 -2.2197 -0.9985  1.9800
  109MOL   H23528531   0.735   5.595   5.186 -0.4556  0.8357  0.3829
  109MOL   C23628532   0.767   5.559   4.981  0.4792 -0.2088 -0.0306
  109MOL   C23728533   0.905   5.495   5.010  0.1914 -0.5671 -0.5738
  109MOL   C23828534   0.937   5.346   5.001  0.0411  0.5534  0.0739
  109MOL   C23928535   0.978   5.440   4.892  0.3453  0.2726 -0.0697
  109MOL   C24028536   0.783   5.701   4.930  0.2802  0.0549  0.5048
  109MOL   H24128537   0.725   5.500   4.900 -1.3079 -0.7950  1.2737
  109MOL   H24228538   0.971   5.558   5.069 -1.1002  0.4737 -0.2355
  109MOL   H24328539   1.005   5.306   5.077 -0.7292 -2.8911 -0.9600
  109MOL   H24428540   0.844   5.290   5.000  0.8715 -0.8742  1.1801
  109MOL   H24528541   0.922   5.426   4.799  0.0238  0.5987  0.0738
  109MOL   H24628542   1.084   5.459   4.880 -0.1804  3.7287  0.2997
  109MOL   H24728543   0.827   5.759   5.010 -2.2066  0.3596  1.7051
  109MOL   H24828544   0.865   5.707   4.859  0.3094 -1.9173  0.3342
  109MOL   C24928545   0.662   5.767   4.851 -0.3251  0.6462  0.4984
  109MOL   C25028546   0.613   5.677   4.736 -0.2369  0.2228  0.1583
  109MOL   C25128547   0.486   5.598   4.753 -0.0959 -0.3193  0.4016
  109MOL   C25228548   0.482   5.717   4.668  0.1574  1.0477  0.3282
  109MOL   C25328549   0.693   5.907   4.807  0.4175  0.0624  0.1201
  109MOL   H25428550   0.578   5.771   4.920 -1.8306 -2.8414 -1.0038
  109MOL   H25528551   0.684   5.619   4.677 -1.3847 -0.8965 -0.1651
  109MOL   H25628552   0.482   5.501   4.703  1.7245 -0.0091 -0.3730
  109MOL   H25728553   0.434   5.602   4.848 -1.2587 -1.9898 -0.1399
  109MOL   H25828554   0.465   5.692   4.564 -1.2368 -1.6631  1.1499
  109MOL   H25928555   0.424   5.803   4.702 -1.2032  1.1969 -2.3057
  109MOL   H26028556   0.620   5.948   4.737 -0.4621  0.9653  1.5402
  109MOL   H26128557   0.789   5.912   4.755  0.3120  0.7413 -0.0160
  109MOL   H26228558   0.694   5.969   4.896  0.2238 -1.0594  0.9155
  110MOL     C128559   3.091   2.622   6.947  0.3814 -0.3317 -0.0067
  110MOL     C228560   3.077   2.570   7.083  1.0372  0.4882  0.4492
  110MOL     C328561   3.162   2.625   7.199  0.0075 -0.4330  0.3704
  110MOL     C428562   3.181   2.485   7.144 -0.5420 -0.2577  0.1668
  110MOL     C528563   3.039   2.510   6.852 -0.0084 -0.3444  1.1836
  110MOL     H628564   3.036   2.713   6.924 -0.5216 -0.2019  2.5098
  110MOL     H728565   2.976   2.536   7.102 -0.0337  3.2382 -0.0507
  110MOL     H828566   3.231   2.702   7.167 -0.3616 -0.5811 -0.7779
  110MOL     H928567   3.126   2.625   7.302 -2.2294  1.5835 -0.3752
  110MOL    H1028568   3.130   2.405   7.198  0.4920 -1.0992 -0.0832
  110MOL    H1128569   3.274   2.460   7.094 -0.0768  0.5107  0.6374
  110MOL    H1228570   2.932   2.494   6.853 -0.1906  0.8163  1.9770
  110MOL    H1328571   3.074   2.415   6.892  1.5967 -0.1571  0.2925
  110MOL    H1428572   3.196   2.646   6.932  0.5778 -0.8803  0.4647
  110MOL    C1528573   3.104   2.514   6.710 -0.5176  0.3370  0.3086
  110MOL    C1628574   3.061   2.397   6.615 -0.5165  0.0373 -0.2104
  110MOL    C1728575   2.921   2.354   6.579  0.5507  0.4988 -0.0011
  110MOL    C1828576   3.005   2.266   6.669 -0.2682 -0.3548  1.0163
  110MOL    C1928577   3.068   2.648   6.648  0.4031 -0.0328 -0.7001
  110MOL    H2028578   3.212   2.507   6.717 -0.3142  0.2944 -2.4245
  110MOL    H2128579   3.116   2.396   6.521 -0.4217 -3.4440 -0.1985
  110MOL    H2228580   2.905   2.329   6.474 -1.2743  0.9129  0.1634
  110MOL    H2328581   2.828   2.386   6.626 -0.4617 -1.3576 -0.6829
  110MOL    H2428582   2.967   2.255   6.770 -1.7831 -1.7650  0.3165
  110MOL    H2528583   3.068   2.184   6.633  1.7727  1.1297  1.1171
  110MOL    H2628584   3.091   2.740   6.702  1.0405 -0.2082 -0.6652
  110MOL    H2728585   2.961   2.659   6.636  0.4446 -1.2803 -2.5148
  110MOL    C2828586   3.137   2.690   6.513  0.4995  0.3089  0.4846
  110MOL    C2928587   3.289   2.713   6.524  0.3270 -0.6688 -0.0873
  110MOL    C3028588   3.386   2.595   6.518 -0.5092  0.1566 -0.5232
  110MOL    C3128589   3.371   2.694   6.402 -0.3601  0.8830 -0.4375
  110MOL    C3228590   3.071   2.816   6.444  0.8019 -0.8782  0.4951
  110MOL    H3328591   3.124   2.606   6.445 -0.8123 -0.6387  1.8762
  110MOL    H3428592   3.319   2.802   6.580 -0.4091 -2.4670  3.2429
  110MOL    H3528593   3.357   2.494   6.491  0.7530 -0.9852  2.2440
  110MOL    H3628594   3.466   2.608   6.590  0.5213  2.9924 -2.0751
  110MOL    H3728595   3.316   2.664   6.314  3.2208  0.5161 -2.6637
  110MOL    H3828596   3.459   2.756   6.385 -0.4699  1.3233  0.5731
  110MOL    H3928597   3.126   2.829   6.350 -1.2273 -1.7460 -0.8403
  110MOL    H4028598   3.092   2.910   6.496  0.0950  0.3715 -1.4301
  110MOL    C4128599   2.926   2.823   6.387 -0.4247  0.8253 -0.1607
  110MOL    C4228600   2.825   2.835   6.500 -0.0849 -0.7161 -0.4743
  110MOL    C4328601   2.725   2.951   6.511  1.0569 -0.6115  0.2363
  110MOL    C4428602   2.841   2.937   6.608  0.1071 -0.3746 -0.7196
  110MOL    C4528603   2.891   2.695   6.289  0.5227 -0.1320  0.5163
  110MOL    H4628604   2.915   2.912   6.324 -0.0347  1.9444  1.3399
  110MOL    H4728605   2.778   2.738   6.521  0.2105 -0.7370  0.0812
  110MOL    H4828606   2.735   3.045   6.457  1.7241 -1.1797 -0.6498
  110MOL    H4928607   2.630   2.916   6.550 -0.0745  0.8176 -1.1996
  110MOL    H5028608   2.808   2.918   6.710 -2.6084  1.8277 -1.1288
  110MOL    H5128609   2.928   3.003   6.606 -1.8633  2.4502  1.8295
  110MOL    H5228610   2.787   2.695   6.258  1.0244  1.6584 -1.2822
  110MOL    H5328611   2.895   2.607   6.353 -0.3899 -0.3290  0.3087
  110MOL    C5428612   2.979   2.669   6.166  0.1977 -0.2120  0.3855
  110MOL    C5528613   2.920   2.562   6.078  0.0999  0.3582  0.5583
  110MOL    C5628614   2.935   2.418   6.132  0.2987 -0.3005  0.2807
  110MOL    C5728615   3.009   2.461   6.013 -0.5178 -0.5178  0.9314
  110MOL    C5828616   2.999   2.797   6.079  0.5141  0.0028 -0.6056
  110MOL    H5928617   3.072   2.630   6.207 -0.5760 -0.9971  1.4306
  110MOL    H6028618   2.829   2.572   6.018  0.6721 -1.7966 -0.7078
  110MOL    H6128619   2.983   2.413   6.229  0.4509 -1.0581  0.1658
  110MOL    H6228620   2.842   2.365   6.109  0.7767 -0.4353 -1.4615
  110MOL    H6328621   2.975   2.411   5.922 -1.3817 -0.5197  1.2558
  110MOL    H6428622   3.116   2.464   6.033 -0.6928 -3.7399  2.6106
  110MOL    H6528623   2.898   2.824   6.046  1.2627  0.5958 -2.4371
  110MOL    H6628624   3.040   2.879   6.138  0.3794 -1.4674  1.6071
  110MOL    C6728625   3.097   2.796   5.967 -0.0718  0.6772  0.6836
  110MOL    C6828626   3.104   2.931   5.894  0.0012 -0.1835  0.0060
  110MOL    C6928627   3.137   2.942   5.748 -0.2710  0.1328  0.0633
  110MOL    C7028628   2.994   2.972   5.792  0.6143  0.0273 -0.4912
  110MOL    C7128629   3.241   2.744   6.012  0.3075  0.3485  0.3252
  110MOL    H7228630   3.062   2.727   5.891  2.0277  0.1399  0.2029
  110MOL    H7328631   3.137   3.017   5.952  1.2978 -0.2402 -0.6310
  110MOL    H7428632   3.202   3.025   5.719  0.5945 -0.8664 -0.9079
  110MOL    H7528633   3.146   2.844   5.700 -3.9470 -0.2148 -0.0287
  110MOL    H7628634   2.915   2.900   5.773 -0.3428  0.7374  0.7178
  110MOL    H7728635   2.963   3.074   5.810  3.5399  0.8755  0.0596
  110MOL    H7828636   3.233   2.647   6.061  1.1040  0.4300  0.6220
  110MOL    H7928637   3.279   2.814   6.086  0.1510 -0.4002  1.1226
  110MOL    C8028638   3.352   2.736   5.899 -0.1184  0.4704 -0.3457
  110MOL    C8128639   3.357   2.599   5.826 -0.6274 -0.0320 -0.4459
  110MOL    C8228640   3.395   2.592   5.684  0.0331 -0.3062  0.6996
  110MOL    C8328641   3.263   2.540   5.727 -0.0707 -0.0145  0.4095
  110MOL    C8428642   3.497   2.768   5.960 -0.3544 -0.1610  0.1650
  110MOL    H8528643   3.344   2.805   5.815  0.5312  1.0929  0.1022
  110MOL    H8628644   3.396   2.523   5.894  3.6775  1.3701 -1.1853
  110MOL    H8728645   3.481   2.527   5.672 -0.4445 -0.6963 -0.7547
  110MOL    H8828646   3.370   2.676   5.620 -3.0698 -0.7530  1.2228
  110MOL    H8928647   3.175   2.597   5.700  0.2651 -0.3729 -1.5319
  110MOL    H9028648   3.250   2.433   5.715 -0.8488  0.0109  0.9345
  110MOL    H9128649   3.494   2.852   6.029 -0.8379  0.7669 -0.9583
  110MOL    H9228650   3.532   2.685   6.021 -0.5342 -0.3624 -0.0045
  110MOL    C9328651   3.607   2.803   5.855  0.3477 -0.0201  0.7090
  110MOL    C9428652   3.574   2.927   5.772 -0.3189 -0.4997 -0.9697
  110MOL    C9528653   3.534   3.057   5.857  0.3502  0.1235  0.4637
  110MOL    C9628654   3.658   3.054   5.768  0.4390 -0.3701  0.4118
  110MOL    C9728655   3.747   2.819   5.931  0.1189 -0.1087  0.1465
  110MOL    H9828656   3.611   2.727   5.778 -1.4505  1.2511 -0.6822
  110MOL    H9928657   3.487   2.904   5.711 -1.9763 -1.0352  1.4895
  110MOL   H10028658   3.447   3.112   5.822 -0.4781 -2.4053 -1.6041
  110MOL   H10128659   3.545   3.048   5.965 -1.5112  0.6035  0.7009
  110MOL   H10228660   3.652   3.116   5.679  0.0093  0.4606  1.0083
  110MOL   H10328661   3.752   3.054   5.821  0.1621 -1.3774  0.9176
  110MOL   H10428662   3.737   2.898   6.006 -1.6800  1.0586 -1.2967
  110MOL   H10528663   3.810   2.868   5.857 -0.7975 -2.2034 -2.0645
  110MOL   C10628664   3.820   2.695   5.990  0.1293  0.2980  0.1965
  110MOL   C10728665   3.823   2.582   5.893 -0.1465 -0.1838 -0.6056
  110MOL   C10828666   3.853   2.438   5.943  0.3113 -0.3716  0.3064
  110MOL   C10928667   3.715   2.479   5.900  0.0301 -0.7319  0.3875
  110MOL   C11028668   3.969   2.726   6.023  0.1995  0.2128  0.1498
  110MOL   H11128669   3.767   2.668   6.081  1.4161  1.5404  1.3499
  110MOL   H11228670   3.853   2.605   5.791 -0.2789  0.1014 -0.5805
  110MOL   H11328671   3.887   2.355   5.882 -1.7428 -0.2061 -1.0799
  110MOL   H11428672   3.878   2.426   6.049 -0.0127  0.6715  0.5085
  110MOL   H11528673   3.639   2.498   5.976  0.3209 -0.0624  0.5141
  110MOL   H11628674   3.675   2.427   5.813  2.6110 -0.1805 -1.1793
  110MOL   H11728675   4.017   2.629   6.035 -0.2991 -0.2744 -1.7038
  110MOL   H11828676   4.021   2.772   5.939  1.2281 -2.4292 -0.7092
  110MOL   C11928677   3.995   2.824   6.145 -0.1692  0.6425  0.2782
  110MOL   C12028678   3.963   2.763   6.277  0.0327  0.1503  0.8298
  110MOL   C12128679   3.836   2.800   6.353 -0.2174 -0.1175 -0.4469
  110MOL   C12228680   3.972   2.840   6.406 -0.0031  0.1352  1.1826
  110MOL   C12328681   4.127   2.905   6.126  0.3828 -0.5575  0.1077
  110MOL   H12428682   3.927   2.908   6.129  0.3822  1.5732  2.5793
  110MOL   H12528683   3.985   2.657   6.280 -2.7231 -0.4448  0.9100
  110MOL   H12628684   3.781   2.732   6.418  0.7258 -0.0997  0.3936
  110MOL   H12728685   3.771   2.880   6.320  1.7887  3.1606  3.0467
  110MOL   H12828686   3.973   2.949   6.411 -0.7407  0.1329  1.4236
  110MOL   H12928687   4.002   2.789   6.497 -2.3403 -2.1180  0.7372
  110MOL   H13028688   4.157   2.904   6.022 -0.6188  1.9941 -0.2304
  110MOL   H13128689   4.115   3.011   6.148  1.0639 -0.4374 -0.0878
  110MOL   C13228690   4.254   2.857   6.197 -0.7438 -0.9786  0.4828
  110MOL   C13328691   4.358   2.969   6.195  0.4036  0.4044 -0.2551
  110MOL   C13428692   4.455   3.006   6.304  0.0830  0.0260 -0.5288
  110MOL   C13528693   4.346   3.104   6.265 -0.1156  0.4575 -0.0918
  110MOL   C13628694   4.308   2.720   6.147 -0.9096  0.4792  0.5482
  110MOL   H13728695   4.232   2.840   6.302  2.3342 -0.7228  1.2061
  110MOL   H13828696   4.394   2.979   6.093  1.5154  3.8750  0.4153
  110MOL   H13928697   4.447   2.959   6.402  1.5935 -0.3503 -0.5682
  110MOL   H14028698   4.555   3.039   6.273  0.5864 -1.0171 -0.0445
  110MOL   H14128699   4.256   3.117   6.324  1.4064 -1.5225  2.7896
  110MOL   H14228700   4.371   3.189   6.202  1.0730  1.1303  1.2843
  110MOL   H14328701   4.225   2.652   6.128 -2.0471  1.9493  0.1794
  110MOL   H14428702   4.350   2.752   6.052 -1.3208 -0.2236  0.1250
  110MOL   C14528703   4.413   2.647   6.230 -0.5759 -0.3144 -0.2797
  110MOL   C14628704   4.360   2.589   6.364  0.4441 -0.2055  0.0111
  110MOL   C14728705   4.423   2.577   6.492  0.2711 -0.3307 -0.3221
  110MOL   C14828706   4.313   2.676   6.480  0.3052  0.7595 -0.0325
  110MOL   C14928707   4.484   2.543   6.150 -0.5719 -0.1722  0.0723
  110MOL   H15028708   4.489   2.717   6.265 -1.1798 -0.0049  0.4243
  110MOL   H15128709   4.282   2.516   6.344  1.0995 -0.7921 -0.4268
  110MOL   H15228710   4.413   2.473   6.522  0.2424 -0.1624  0.2559
  110MOL   H15328711   4.515   2.629   6.519 -0.5419  0.2133  1.4508
  110MOL   H15428712   4.343   2.780   6.492  1.2361  0.3094  1.7443
  110MOL   H15528713   4.220   2.655   6.533 -0.6133  3.5509 -0.4587
  110MOL   H15628714   4.425   2.456   6.124  1.0663 -1.4238  0.4592
  110MOL   H15728715   4.508   2.573   6.048 -0.4456 -1.3846 -0.2670
  110MOL   C15828716   4.621   2.494   6.205  0.6738  0.5643  0.1324
  110MOL   C15928717   4.728   2.601   6.199 -0.3979  0.7205  0.0513
  110MOL   C16028718   4.761   2.692   6.318 -0.3719  0.3396 -0.4329
  110MOL   C16128719   4.853   2.584   6.286  0.0560  0.8795  0.5246
  110MOL   C16228720   4.659   2.371   6.124  0.2387 -0.0004 -0.1511
  110MOL   H16328721   4.607   2.466   6.310 -2.5908  2.0498  0.1527
  110MOL   H16428722   4.746   2.640   6.099 -0.1598  2.3788  0.7128
  110MOL   H16528723   4.686   2.694   6.396  0.3408  0.6199  0.2462
  110MOL   H16628724   4.801   2.791   6.295  0.3632 -0.1676 -1.4134
  110MOL   H16728725   4.945   2.605   6.231  0.4981 -2.1895 -0.0147
  110MOL   H16828726   4.863   2.491   6.342 -0.8996 -0.1002 -0.8836
  110MOL   H16928727   4.765   2.349   6.130  0.4668  0.8974 -0.8310
  110MOL   H17028728   4.661   2.399   6.019  1.4309  1.5296  0.2711
  110MOL   C17128729   4.595   2.233   6.152  0.7886  1.2130 -0.5812
  110MOL   C17228730   4.628   2.137   6.042  0.5379  0.7980  0.0916
  110MOL   C17328731   4.521   2.039   5.988 -0.6662 -0.0864 -0.2501
  110MOL   C17428732   4.566   2.154   5.902 -0.3505  0.1942 -0.8463
  110MOL   C17528733   4.634   2.180   6.289  0.9879  0.1185  0.1783
  110MOL   H17628734   4.486   2.245   6.153  0.8369  1.7645 -1.5372
  110MOL   H17728735   4.734   2.114   6.037  0.4577 -0.3717  2.9183
  110MOL   H17828736   4.562   1.946   5.949  0.4827  1.0202 -1.7574
  110MOL   H17928737   4.422   2.038   6.032 -0.9648  2.6864 -0.7490
  110MOL   H18028738   4.486   2.224   5.879 -0.0527  0.4992 -0.9445
  110MOL   H18128739   4.644   2.139   5.827 -1.1837  1.2135 -1.9418
  110MOL   H18228740   4.658   2.267   6.350  1.9789  0.5874 -0.8456
  110MOL   H18328741   4.731   2.132   6.275  0.5364 -0.1445 -2.2041
  110MOL   C18428742   4.531   2.096   6.364  0.3872 -0.0437 -0.2191
  110MOL   C18528743   4.405   2.177   6.397  0.1703  0.1339  0.4815
  110MOL   C18628744   4.275   2.115   6.433  0.4866  0.6713 -0.6385
  110MOL   C18728745   4.287   2.180   6.296 -0.0753 -0.1815 -0.5331
  110MOL   C18828746   4.583   2.033   6.497 -0.6406  0.9513  0.1971
  110MOL   H18928747   4.514   2.016   6.291 -0.9802  0.8674 -0.8999
  110MOL   H19028748   4.428   2.266   6.455  2.0244  0.6554 -0.9866
  110MOL   H19128749   4.198   2.169   6.487 -2.3587 -0.9842 -2.8679
  110MOL   H19228750   4.280   2.006   6.442 -3.1440  0.6168  1.4238
  110MOL   H19328751   4.254   2.281   6.274  0.3409 -0.0179 -0.4223
  110MOL   H19428752   4.305   2.115   6.211 -0.8392 -2.1743  0.7920
  110MOL   H19528753   4.503   1.996   6.560  0.2069 -1.0259  0.1471
  110MOL   H19628754   4.619   2.114   6.561  0.2940  0.1299  0.7164
  110MOL   C19728755   4.683   1.915   6.483 -0.0080 -0.4031  0.2248
  110MOL   C19828756   4.609   1.813   6.393  0.0983  0.7187  0.2957
  110MOL   C19928757   4.663   1.678   6.358 -0.0067 -0.3703  0.4669
  110MOL   C20028758   4.658   1.790   6.250 -0.2276  0.4579  0.1746
  110MOL   C20128759   4.732   1.844   6.609 -0.1431 -0.8192  0.8449
  110MOL   H20228760   4.766   1.961   6.428 -0.6014  3.0015  2.0417
  110MOL   H20328761   4.501   1.806   6.408  0.1079 -1.8741 -0.6509
  110MOL   H20428762   4.758   1.650   6.405 -0.3747 -1.3146  0.6615
  110MOL   H20528763   4.595   1.595   6.344 -2.2816  1.9374 -2.8363
  110MOL   H20628764   4.751   1.838   6.220 -0.5869  2.5408  2.2736
  110MOL   H20728765   4.584   1.773   6.173  0.4598  3.0977 -1.1135
  110MOL   H20828766   4.655   1.862   6.684 -0.1738 -0.2705  0.6781
  110MOL   H20928767   4.724   1.735   6.610 -0.4336 -0.7975  0.9527
  110MOL   C21028768   4.865   1.894   6.652  0.1861 -0.1280  0.2369
  110MOL   C21128769   4.886   1.885   6.802  0.4327  0.3959 -0.4487
  110MOL   C21228770   4.994   1.947   6.882  0.1848 -0.3858  0.4289
  110MOL   C21328771   4.850   2.005   6.892 -0.9016 -0.2041 -0.0317
  110MOL   C21428772   4.994   1.830   6.589 -0.1109  0.2785 -0.1677
  110MOL   H21528773   4.856   1.999   6.625 -0.3481 -0.8419 -2.5698
  110MOL   H21628774   4.860   1.790   6.848 -0.5801  1.0842  0.4182
  110MOL   H21728775   5.030   1.905   6.976 -0.1557  1.2071  1.2777
  110MOL   H21828776   5.069   2.013   6.838 -1.8343  0.2304 -2.1518
  110MOL   H21928777   4.793   1.997   6.984 -1.2212 -0.4876 -0.2557
  110MOL   H22028778   4.849   2.098   6.836 -0.1326  0.0851  0.4240
  110MOL   H22128779   5.089   1.861   6.634 -0.5405 -1.0009  1.6437
  110MOL   H22228780   4.997   1.722   6.599 -0.0630  0.4532  1.8232
  110MOL   C22328781   5.003   1.854   6.440  0.1792 -0.5242 -0.1272
  110MOL   C22428782   5.100   1.755   6.378 -0.6366  0.1282 -0.3370
  110MOL   C22528783   5.080   1.609   6.335 -0.4538  0.0583  0.7777
  110MOL   C22628784   5.093   1.721   6.231 -0.7054  0.0784 -0.0335
  110MOL   C22728785   5.034   1.999   6.399  0.0512  0.0584 -0.0436
  110MOL   H22828786   4.912   1.816   6.393  0.8067 -0.2167 -1.5923
  110MOL   H22928787   5.199   1.754   6.423 -2.2868  0.9423  3.5490
  110MOL   H23028788   4.986   1.558   6.352 -1.2028  1.3210  0.4697
  110MOL   H23128789   5.159   1.536   6.356 -1.6302 -1.8487 -1.1513
  110MOL   H23228790   5.192   1.729   6.186 -0.5602  0.6171  0.3716
  110MOL   H23328791   5.019   1.779   6.175 -0.5813 -0.7176 -1.0361
  110MOL   H23428792   5.037   2.009   6.290  0.7526 -0.1817 -0.0445
  110MOL   H23528793   4.944   2.057   6.421  0.7656  0.7158  1.1409
  110MOL   C23628794   5.161   2.069   6.445  0.4990  0.2624 -0.3144
  110MOL   C23728795   5.133   2.213   6.490 -0.0755  0.7241  0.4434
  110MOL   C23828796   5.065   2.246   6.625  0.0808  0.1338 -0.6712
  110MOL   C23928797   5.205   2.273   6.599 -0.0613  0.4168  0.3925
  110MOL   C24028798   5.275   2.057   6.337  0.0132  0.5223  0.5370
  110MOL   H24128799   5.191   2.020   6.538  1.0050  0.1893 -0.5137
  110MOL   H24228800   5.105   2.279   6.408  2.3878  2.4164  0.9098
  110MOL   H24328801   4.991   2.325   6.634  0.1722  0.0739  0.7417
  110MOL   H24428802   5.042   2.157   6.683  0.4579 -0.2766 -1.1477
  110MOL   H24528803   5.271   2.215   6.662 -2.1146 -2.2127  0.1962
  110MOL   H24628804   5.223   2.380   6.601  2.5461 -0.0145  1.4102
  110MOL   H24728805   5.268   1.958   6.292  0.5866  1.8977 -2.7533
  110MOL   H24828806   5.254   2.120   6.251 -1.9496  0.3058  0.8341
  110MOL   C24928807   5.416   2.078   6.395 -0.3939 -0.2386 -0.1662
  110MOL   C25028808   5.510   2.090   6.274  0.1104 -0.1760 -0.1106
  110MOL   C25128809   5.533   2.212   6.190  0.3538  0.0371 -0.8015
  110MOL   C25228810   5.643   2.164   6.283  0.2778 -0.1888  0.7953
  110MOL   C25328811   5.469   1.978   6.494  0.4124  0.3150  0.0914
  110MOL   H25428812   5.414   2.178   6.440 -1.5427  0.3477 -1.4787
  110MOL   H25528813   5.513   1.997   6.217  1.6491  0.5237 -1.2112
  110MOL   H25628814   5.538   2.189   6.084 -0.4675  1.0984 -1.0723
  110MOL   H25728815   5.505   2.315   6.211 -1.0174 -0.5236  0.1779
  110MOL   H25828816   5.733   2.118   6.243  0.5717 -0.1050  1.3508
  110MOL   H25928817   5.655   2.213   6.379  1.7033  2.1996 -0.5297
  110MOL   H26028818   5.430   1.882   6.457 -2.5492  1.6769 -0.4496
  110MOL   H26128819   5.434   1.986   6.597  1.1992  2.3318  0.2101
  110MOL   H26228820   5.578   1.972   6.502  0.1190 -3.0542  2.9032
  111MOL     C128821   6.767   1.360   5.757  0.2085  0.2338  0.1321
  111MOL     C228822   6.792   1.502   5.796  0.6099 -0.2678  0.0889
  111MOL     C328823   6.934   1.565   5.772 -0.1141  0.2329 -0.1406
  111MOL     C428824   6.885   1.533   5.911 -0.2643 -0.4666 -1.1457
  111MOL     C528825   6.702   1.275   5.870  0.4998  0.0368  0.1948
  111MOL     H628826   6.712   1.355   5.663  0.4385 -1.2196  0.0620
  111MOL     H728827   6.706   1.568   5.790 -0.6517 -1.8987 -0.1877
  111MOL     H828828   7.010   1.497   5.733 -0.4062 -0.4655  0.4815
  111MOL     H928829   6.940   1.670   5.745  0.7271  0.1835 -0.1383
  111MOL    H1028830   6.869   1.622   5.971 -2.4492 -2.4311  1.3265
  111MOL    H1128831   6.923   1.453   5.974  1.1176 -0.6496 -2.1953
  111MOL    H1228832   6.615   1.325   5.914 -0.9761 -2.4224  0.1673
  111MOL    H1328833   6.780   1.261   5.945 -0.6610  2.3641  1.9211
  111MOL    H1428834   6.860   1.308   5.734  0.9452  0.7783  1.8240
  111MOL    C1528835   6.647   1.134   5.826  0.7334 -1.0256  0.2899
  111MOL    C1628836   6.536   1.139   5.718  0.5372 -0.2999 -0.2513
  111MOL    C1728837   6.399   1.172   5.774 -0.1808  0.4561 -0.1450
  111MOL    C1828838   6.415   1.046   5.694  0.5313 -0.4887  0.3820
  111MOL    C1928839   6.756   1.041   5.767  0.3446 -0.7316  0.4895
  111MOL    H2028840   6.606   1.096   5.919 -2.8136  3.1027  0.5360
  111MOL    H2128841   6.555   1.203   5.632  3.3658  1.1083  1.3213
  111MOL    H2228842   6.360   1.262   5.726  0.7762 -1.0475 -3.8863
  111MOL    H2328843   6.390   1.162   5.882 -1.4163 -1.5396 -0.4183
  111MOL    H2428844   6.422   0.949   5.742 -0.5889 -0.1394  1.2663
  111MOL    H2528845   6.381   1.037   5.591  2.4136 -1.2571 -0.1961
  111MOL    H2628846   6.793   1.088   5.676  1.0839 -0.0347  1.1429
  111MOL    H2728847   6.711   0.951   5.725  1.1595 -0.1709 -1.6015
  111MOL    C2828848   6.868   0.993   5.863  0.1198  0.6565 -0.0811
  111MOL    C2928849   6.980   0.936   5.786  0.3869  0.6092  0.4765
  111MOL    C3028850   7.039   1.019   5.680 -0.7635  0.8310  0.4066
  111MOL    C3128851   7.120   0.987   5.800 -0.0933 -0.2977 -0.0948
  111MOL    C3228852   6.808   0.878   5.955 -0.5033 -0.1760  0.8879
  111MOL    H3328853   6.902   1.082   5.916 -1.5137  1.6759 -0.7011
  111MOL    H3428854   6.969   0.835   5.748  1.0633  1.2062 -1.3987
  111MOL    H3528855   7.014   1.124   5.668  3.7372  2.0433  0.4786
  111MOL    H3628856   7.073   0.967   5.591  0.1529  1.0968  0.5900
  111MOL    H3728857   7.124   1.062   5.878 -2.4956 -1.3792  1.1193
  111MOL    H3828858   7.202   0.916   5.789 -0.8550 -1.0824 -0.7200
  111MOL    H3928859   6.834   0.782   5.909  2.6559  0.8918  0.2897
  111MOL    H4028860   6.700   0.889   5.961 -0.4902  0.1417  0.5932
  111MOL    C4128861   6.864   0.899   6.097 -0.4810  0.0413  0.1158
  111MOL    C4228862   6.844   0.762   6.163 -0.3062  0.6893  0.2372
  111MOL    C4328863   6.945   0.693   6.260 -0.7038 -0.5463 -0.0526
  111MOL    C4428864   6.906   0.626   6.134 -0.0681  0.6482 -0.1612
  111MOL    C4528865   6.800   1.018   6.179 -0.9977 -0.2848 -0.3550
  111MOL    H4628866   6.969   0.922   6.083 -0.0825 -0.9914  1.3000
  111MOL    H4728867   6.740   0.752   6.193  0.7116 -2.7578  3.0007
  111MOL    H4828868   7.035   0.753   6.264  0.6958 -2.4871 -1.5891
  111MOL    H4928869   6.910   0.661   6.358 -1.4352  0.3005 -0.0355
  111MOL    H5028870   6.835   0.545   6.148  0.7743  0.2182  1.7463
  111MOL    H5128871   6.987   0.617   6.061  1.2985  3.6725  0.9122
  111MOL    H5228872   6.719   0.973   6.237 -1.7202 -0.2077 -1.2867
  111MOL    H5328873   6.747   1.086   6.112 -2.6437  0.5452  1.7323
  111MOL    C5428874   6.896   1.103   6.264 -0.6332 -0.2215  0.6466
  111MOL    C5528875   6.989   1.189   6.181  0.0907  0.1055  0.7079
  111MOL    C5628876   7.133   1.140   6.148  0.2301  0.3682 -0.1027
  111MOL    C5728877   7.103   1.255   6.250  0.4079  0.6965 -0.4489
  111MOL    C5828878   6.819   1.191   6.370  0.4333  0.0649  0.3806
  111MOL    H5928879   6.966   1.039   6.318  2.1301  2.4522  0.3910
  111MOL    H6028880   6.932   1.249   6.110  0.7372 -0.8586 -0.6428
  111MOL    H6128881   7.147   1.037   6.179  0.2055 -0.0346 -1.4244
  111MOL    H6228882   7.162   1.163   6.046  1.0718 -0.7586 -0.1251
  111MOL    H6328883   7.128   1.360   6.235 -1.0215  1.5055  2.3956
  111MOL    H6428884   7.142   1.217   6.344  1.8418  0.6832 -1.0360
  111MOL    H6528885   6.865   1.286   6.396 -1.0471  1.2492 -1.2293
  111MOL    H6628886   6.727   1.222   6.320  0.3594  1.1973  1.2012
  111MOL    C6728887   6.786   1.120   6.503 -1.2005  0.2685 -0.1961
  111MOL    C6828888   6.899   1.106   6.606 -0.4313  0.1398  0.0092
  111MOL    C6928889   6.912   0.991   6.707  0.4491 -0.1024  0.0290
  111MOL    C7028890   6.996   0.994   6.582  0.6507 -0.1438 -0.6389
  111MOL    C7128891   6.671   1.205   6.562 -0.3475  0.3634  0.3680
  111MOL    H7228892   6.743   1.022   6.487 -0.9345  0.2586 -0.8676
  111MOL    H7328893   6.948   1.200   6.630 -2.4150  1.7249 -1.9125
  111MOL    H7428894   6.825   0.925   6.708 -0.0988  0.5720 -1.1609
  111MOL    H7528895   6.959   1.008   6.803  0.5993  0.7589 -0.1883
  111MOL    H7628896   6.970   0.922   6.505 -0.3329 -1.5433  0.9905
  111MOL    H7728897   7.101   1.022   6.588  0.7400 -0.5285 -0.4558
  111MOL    H7828898   6.614   1.265   6.491  1.5242  0.8739 -0.7474
  111MOL    H7928899   6.714   1.292   6.612 -0.0568 -0.4217  1.5133
  111MOL    C8028900   6.575   1.118   6.649  0.6727 -0.6882  0.3557
  111MOL    C8128901   6.451   1.101   6.570 -0.4771  0.2593  0.1533
  111MOL    C8228902   6.381   0.962   6.562  0.3676 -0.2295 -0.5148
  111MOL    C8328903   6.432   1.029   6.441 -0.6382  0.6563 -0.2613
  111MOL    C8428904   6.540   1.189   6.788 -0.5561 -0.4684 -0.5278
  111MOL    H8528905   6.621   1.021   6.671 -0.8246 -2.2148 -2.8284
  111MOL    H8628906   6.383   1.186   6.581 -1.0382 -0.3145  1.2288
  111MOL    H8728907   6.273   0.959   6.549  0.1503  0.8780  0.8749
  111MOL    H8828908   6.430   0.870   6.595  2.4421  0.6724 -1.0267
  111MOL    H8928909   6.532   1.001   6.409  0.4101  0.9665  2.5441
  111MOL    H9028910   6.346   1.049   6.378  0.1011 -2.0807 -2.2174
  111MOL    H9128911   6.638   1.222   6.821  0.1967 -1.4457 -1.7254
  111MOL    H9228912   6.471   1.274   6.779 -0.8979 -0.8595 -1.7453
  111MOL    C9328913   6.478   1.091   6.892  0.0059 -0.4712 -0.1050
  111MOL    C9428914   6.579   1.003   6.969  0.3058 -0.2661 -0.2146
  111MOL    C9528915   6.531   0.880   7.037 -0.0571  0.0400 -0.1902
  111MOL    C9628916   6.622   0.874   6.915 -0.1280  0.5467 -0.8798
  111MOL    C9728917   6.407   1.179   6.994  0.7836 -0.0491  0.5452
  111MOL    H9828918   6.398   1.031   6.849 -1.7457  1.5389  0.2545
  111MOL    H9928919   6.659   1.060   7.016  0.8895 -0.6908 -0.6847
  111MOL   H10028920   6.566   0.847   7.135 -1.3920  1.0173  0.6386
  111MOL   H10128921   6.425   0.857   7.022 -0.7901  3.6867 -1.0039
  111MOL   H10228922   6.730   0.882   6.921 -0.2962  1.3225  1.4073
  111MOL   H10328923   6.578   0.806   6.843 -0.3923  1.0888 -1.2280
  111MOL   H10428924   6.451   1.278   6.981  0.2118  0.1294 -0.0251
  111MOL   H10528925   6.433   1.132   7.089  5.6281  0.3664 -0.4631
  111MOL   C10628926   6.253   1.169   6.996  0.4628  0.9080 -0.1596
  111MOL   C10728927   6.201   1.231   7.120  0.3878 -0.1793 -0.0505
  111MOL   C10828928   6.077   1.182   7.191 -0.7710 -0.2334  0.1093
  111MOL   C10928929   6.208   1.170   7.255  0.5628  0.1133 -0.0788
  111MOL   C11028930   6.187   1.231   6.872  0.5928 -0.5051  0.5538
  111MOL   H11128931   6.234   1.063   7.012  1.2548  0.4320 -2.2586
  111MOL   H11228932   6.227   1.337   7.125 -0.1466  0.0905 -2.3718
  111MOL   H11328933   6.008   1.261   7.219 -0.8235 -0.2025 -0.1013
  111MOL   H11428934   6.032   1.085   7.167 -1.4780  0.2069 -0.3811
  111MOL   H11528935   6.243   1.067   7.263  3.1247  1.1646  3.8135
  111MOL   H11628936   6.225   1.224   7.348  0.5336 -0.1700  0.0927
  111MOL   H11728937   6.210   1.337   6.864 -4.3129  0.4539 -2.3495
  111MOL   H11828938   6.232   1.182   6.785 -0.1373  0.7691 -0.5584
  111MOL   C11928939   6.029   1.196   6.846 -0.1527  0.3402  0.4818
  111MOL   C12028940   5.983   1.292   6.736  0.6315  0.0236  0.3314
  111MOL   C12128941   5.945   1.432   6.775 -0.8095 -0.2981 -0.3156
  111MOL   C12228942   5.840   1.339   6.721 -0.8617 -0.4443  0.3937
  111MOL   C12328943   6.013   1.049   6.805  0.4592  0.2644 -0.4804
  111MOL   H12428944   5.977   1.224   6.937 -0.6878  0.1105  0.2496
  111MOL   H12528945   6.031   1.269   6.642 -1.3802 -2.5076 -0.1309
  111MOL   H12628946   5.976   1.519   6.716  0.2741 -0.4441  0.0266
  111MOL   H12728947   5.935   1.456   6.880  1.0430  0.6382 -0.3307
  111MOL   H12828948   5.774   1.286   6.789  1.4993 -1.2035  2.1456
  111MOL   H12928949   5.805   1.361   6.620 -2.9089  0.6255  1.3031
  111MOL   H13028950   6.048   1.051   6.702 -1.6827 -0.1457 -1.2509
  111MOL   H13128951   6.086   0.991   6.860  0.4059  0.8394  0.2098
  111MOL   C13228952   5.873   0.984   6.804  0.1120 -0.7561 -0.3891
  111MOL   C13328953   5.832   0.960   6.946  0.1449 -0.2191  0.1455
  111MOL   C13428954   5.690   0.933   6.985  0.1989  0.3315  0.0958
  111MOL   C13528955   5.756   1.066   7.018 -0.6130  0.7121  0.5994
  111MOL   C13628956   5.865   0.857   6.713 -0.2617 -0.0614  0.3507
  111MOL   H13728957   5.803   1.060   6.770  1.8967  0.2478 -1.8732
  111MOL   H13828958   5.892   0.888   7.001 -1.8788 -2.5401 -0.6057
  111MOL   H13928959   5.606   0.944   6.916  0.3872  0.1875 -0.1590
  111MOL   H14028960   5.667   0.869   7.070  1.2113  0.6514  0.6120
  111MOL   H14128961   5.723   1.159   6.973 -0.9586 -0.2671 -1.2002
  111MOL   H14228962   5.802   1.081   7.116  0.4824  1.3465 -0.0038
  111MOL   H14328963   5.779   0.796   6.742  0.4336 -1.4691 -0.4810
  111MOL   H14428964   5.838   0.903   6.618  1.9799 -2.7362 -1.6695
  111MOL   C14528965   5.987   0.762   6.686  0.4251  0.2582 -0.3535
  111MOL   C14628966   6.008   0.672   6.799 -0.3167 -0.0127  0.2724
  111MOL   C14728967   6.130   0.575   6.791  0.2694 -0.5619  0.0923
  111MOL   C14828968   6.132   0.689   6.884 -0.0961  0.1756 -0.1849
  111MOL   C14928969   5.978   0.671   6.556  0.7755 -0.7176 -0.2079
  111MOL   H15028970   6.074   0.823   6.660  0.8602  0.5249  1.6640
  111MOL   H15128971   5.917   0.633   6.844  0.2907  0.2448  1.7538
  111MOL   H15228972   6.124   0.477   6.840 -1.1639 -0.7316 -0.4089
  111MOL   H15328973   6.193   0.580   6.702 -0.4096  0.2046 -0.3444
  111MOL   H15428974   6.186   0.779   6.857 -0.3418  0.0732 -1.0628
  111MOL   H15528975   6.131   0.664   6.990  0.8625 -2.0205 -0.6635
  111MOL   H15628976   6.018   0.571   6.568 -0.5075 -0.9519  2.6974
  111MOL   H15728977   5.871   0.647   6.554  0.8062 -0.9968  0.9669
  111MOL   C15828978   6.021   0.726   6.420  0.5274 -0.1775 -0.0378
  111MOL   C15928979   5.945   0.850   6.375 -0.8325  0.7129 -0.6261
  111MOL   C16028980   5.997   0.990   6.399  0.0110 -0.1368 -0.6449
  111MOL   C16128981   6.000   0.938   6.264  0.0730  0.5300 -0.0812
  111MOL   C16228982   6.024   0.615   6.312  0.1454 -0.1724 -0.1103
  111MOL   H16328983   6.118   0.771   6.442 -0.5825  1.4738  1.6031
  111MOL   H16428984   5.839   0.829   6.367 -0.7990  0.7543 -1.2214
  111MOL   H16528985   6.093   1.000   6.449 -1.2719  2.2043  1.4657
  111MOL   H16628986   5.925   1.063   6.435  1.3167  0.2477  1.2604
  111MOL   H16728987   5.939   0.998   6.197 -0.3466 -0.1505 -0.3093
  111MOL   H16828988   6.099   0.909   6.228  0.4181 -1.6171  2.4468
  111MOL   H16928989   6.011   0.664   6.216 -1.0660 -1.6407 -0.7053
  111MOL   H17028990   5.931   0.558   6.315  1.0865 -2.0336 -3.3186
  111MOL   C17128991   6.148   0.525   6.323  0.4528 -0.3878  0.0850
  111MOL   C17228992   6.102   0.377   6.298 -0.5778 -0.4646 -0.1119
  111MOL   C17328993   6.180   0.260   6.353 -0.2364 -0.2733  0.2562
  111MOL   C17428994   6.049   0.295   6.413 -0.3485  0.8395 -0.3300
  111MOL   C17528995   6.249   0.572   6.216  0.0647 -0.1017 -0.1031
  111MOL   H17628996   6.192   0.525   6.423 -1.0640 -3.3190  0.8184
  111MOL   H17728997   6.070   0.364   6.194 -0.6691 -0.7972 -0.0421
  111MOL   H17828998   6.184   0.172   6.289 -1.0692  0.3138 -0.6224
  111MOL   H17928999   6.271   0.278   6.409  0.3309  1.7672 -1.2497
  111MOL   H18029000   6.051   0.337   6.513  0.5895  1.4849 -0.6082
  111MOL   H18129001   5.962   0.232   6.395 -1.7622  2.4687  0.5994
  111MOL   H18229002   6.246   0.681   6.213  2.0500 -0.0050  0.4969
  111MOL   H18329003   6.221   0.541   6.116  2.1769 -1.7005 -0.2278
  111MOL   C18429004   6.385   0.530   6.240 -0.4027  0.1689  0.4629
  111MOL   C18529005   6.449   0.591   6.367 -0.5688  0.6667 -0.1179
  111MOL   C18629006   6.585   0.533   6.416  0.2430  0.1235 -0.7189
  111MOL   C18729007   6.469   0.524   6.501 -0.2519 -0.0567  0.2779
  111MOL   C18829008   6.473   0.564   6.112  0.3562  0.4036  0.1117
  111MOL   H18929009   6.392   0.423   6.255 -1.4518  0.0309  0.0377
  111MOL   H19029010   6.461   0.699   6.373 -0.4665  0.6852 -0.5896
  111MOL   H19129011   6.668   0.596   6.446  0.6431 -1.0210  0.6515
  111MOL   H19229012   6.617   0.435   6.382  1.4609  1.1274 -2.5194
  111MOL   H19329013   6.481   0.579   6.594 -3.1323 -2.1194  1.9428
  111MOL   H19429014   6.430   0.428   6.532  0.5517 -0.6013 -0.3852
  111MOL   H19529015   6.578   0.577   6.138  0.1238  0.6261  0.9484
  111MOL   H19629016   6.442   0.665   6.085 -0.5785  1.2317  4.0430
  111MOL   C19729017   6.452   0.478   5.985  0.1007  0.2624  0.1610
  111MOL   C19829018   6.545   0.356   5.992 -0.6288 -0.3250  0.2084
  111MOL   C19929019   6.495   0.222   5.937 -0.4695  0.0977  0.0855
  111MOL   C20029020   6.514   0.247   6.085  0.0132  0.1453 -0.6164
  111MOL   C20129021   6.501   0.570   5.862  0.3472  0.3024  0.2298
  111MOL   H20229022   6.346   0.453   5.984  0.0135  0.5963 -2.4297
  111MOL   H20329023   6.650   0.382   5.982 -1.0885  0.7558 -2.2699
  111MOL   H20429024   6.391   0.205   5.910 -0.0397  0.8466 -2.2269
  111MOL   H20529025   6.576   0.174   5.882 -1.3692 -0.6841 -0.5628
  111MOL   H20629026   6.428   0.262   6.149  0.0629  2.9050 -1.1425
  111MOL   H20729027   6.601   0.207   6.137 -0.3431  2.9324  2.2330
  111MOL   H20829028   6.472   0.675   5.869 -1.3397 -0.1434  0.1752
  111MOL   H20929029   6.610   0.571   5.865  0.3233 -0.6926  2.0823
  111MOL   C21029030   6.436   0.528   5.722  0.2926 -0.1310  0.6996
  111MOL   C21129031   6.284   0.541   5.726 -0.6592 -0.3643 -0.0809
  111MOL   C21229032   6.201   0.478   5.622  0.3300 -0.1077  0.0927
  111MOL   C21329033   6.197   0.419   5.756 -0.2657 -0.5986  0.5980
  111MOL   C21429034   6.493   0.625   5.609 -0.1744  0.3427  0.2948
  111MOL   H21529035   6.461   0.426   5.694 -1.0842  0.3670 -2.5710
  111MOL   H21629036   6.252   0.644   5.742  0.8165  0.1183 -0.1753
  111MOL   H21729037   6.109   0.531   5.594  1.4069  1.9353  0.3415
  111MOL   H21829038   6.247   0.423   5.540  0.8297 -0.0197  0.3136
  111MOL   H21929039   6.119   0.437   5.829 -1.5721 -4.2954  0.1778
  111MOL   H22029040   6.249   0.324   5.768 -0.0722 -0.5652  0.0440
  111MOL   H22129041   6.430   0.595   5.525  0.0329  2.8625 -0.7802
  111MOL   H22229042   6.459   0.728   5.620  0.0186  0.3526  0.8445
  111MOL   C22329043   6.643   0.610   5.571  0.5283 -0.2464  0.2919
  111MOL   C22429044   6.658   0.685   5.442  0.0574  0.0371 -0.3199
  111MOL   C22529045   6.680   0.836   5.432  0.1526  0.7472 -0.2440
  111MOL   C22629046   6.795   0.739   5.402 -0.2509  0.3815  0.5252
  111MOL   C22729047   6.662   0.458   5.532  0.0879  0.3268 -0.1469
  111MOL   H22829048   6.700   0.645   5.656 -1.0649  0.6943  1.0142
  111MOL   H22929049   6.600   0.643   5.360 -0.8356 -0.4483  0.5485
  111MOL   H23029050   6.687   0.902   5.519 -0.6784  1.0369 -0.3966
  111MOL   H23129051   6.644   0.885   5.341 -1.0685 -0.3745 -0.3692
  111MOL   H23229052   6.829   0.737   5.299 -1.1594  2.0090  0.1893
  111MOL   H23329053   6.878   0.732   5.472 -0.7181 -1.3480  0.9353
  111MOL   H23429054   6.561   0.417   5.525 -0.0029  0.8173 -1.7204
  111MOL   H23529055   6.709   0.455   5.434 -1.8215  1.2490 -1.1057
  111MOL   C23629056   6.738   0.371   5.638  0.5985  0.0075  0.0846
  111MOL   C23729057   6.880   0.400   5.647 -0.5380  0.5567  1.0615
  111MOL   C23829058   6.930   0.514   5.738 -0.2454  0.8329 -0.3642
  111MOL   C23929059   6.965   0.366   5.762  0.1633  0.4664 -0.8663
  111MOL   C24029060   6.709   0.223   5.618  0.3223 -0.9911 -0.2302
  111MOL   H24129061   6.692   0.394   5.735 -2.1506 -1.2602 -0.8540
  111MOL   H24229062   6.919   0.387   5.546  2.1261  3.6093  1.6004
  111MOL   H24329063   7.005   0.580   5.697 -0.7357  0.2111 -2.2909
  111MOL   H24429064   6.871   0.566   5.813 -1.2632 -0.2695 -0.3746
  111MOL   H24529065   6.930   0.309   5.848 -1.5524  0.7953 -1.3284
  111MOL   H24629066   7.065   0.339   5.729  0.3674  0.0173  0.1006
  111MOL   H24729067   6.733   0.171   5.711  2.3471 -0.0505 -0.2004
  111MOL   H24829068   6.602   0.210   5.603  0.1602 -0.0792  0.0854
  111MOL   C24929069   6.773   0.162   5.493  0.2668  0.8863 -0.2183
  111MOL   C25029070   6.671   0.063   5.437  0.3212  0.2247  0.0927
  111MOL   C25129071   6.575   0.092   5.323 -0.4534 -0.6864  0.0538
  111MOL   C25229072   6.688   0.005   5.300  0.0288  0.1268  0.6598
  111MOL   C25329073   6.909   0.085   5.524 -0.4952 -0.0521 -0.4972
  111MOL   H25429074   6.784   0.232   5.411  1.6681  0.8804 -0.0531
  111MOL   H25529075   6.629   7.833   5.510 -1.1294  0.2720 -0.6814
  111MOL   H25629076   6.474   0.053   5.316 -0.3992 -0.9197  0.5674
  111MOL   H25729077   6.585   0.192   5.281  2.2891 -1.1316 -0.4630
  111MOL   H25829078   6.678   7.736   5.294  2.0471  0.0313 -1.5927
  111MOL   H25929079   6.776   0.035   5.244 -1.4396 -0.8835 -2.2875
  111MOL   H26029080   6.946   0.027   5.439  3.5689  0.4929  0.7732
  111MOL   H26129081   6.895   0.006   5.598 -0.9762  0.6156  0.1259
  111MOL   H26229082   6.984   0.152   5.566 -0.3588 -1.7722  2.1676
  112MOL     C129083   7.524   0.759   4.780  0.0891  0.1650 -0.1881
  112MOL     C229084   7.513   0.688   4.918  0.7348 -0.0686 -0.2854
  112MOL     C329085   7.628   0.689   5.013  0.0134  0.4220 -0.1704
  112MOL     C429086   7.597   0.560   4.937 -0.5310  0.7048  0.4783
  112MOL     C529087   7.419   0.699   4.678  0.3224  0.0371 -0.3045
  112MOL     H629088   7.505   0.866   4.789 -0.1033  0.0953  0.2645
  112MOL     H729089   7.414   0.691   4.961  1.2129  1.8853  0.7155
  112MOL     H829090   7.712   0.749   4.978 -0.3538 -0.0157 -1.8355
  112MOL     H929091   7.601   0.706   5.117  1.6884  0.1187  0.3349
  112MOL    H1029092   7.555   0.482   5.000 -0.2282 -0.8505 -1.1728
  112MOL    H1129093   7.674   0.529   4.866 -0.6350  1.5888 -0.0309
  112MOL    H1229094   7.319   0.736   4.701  0.7240  1.0769 -0.2200
  112MOL    H1329095   7.422   0.590   4.683  1.3460  0.1490  2.7338
  112MOL    H1429096   7.625   0.743   4.742 -0.4579  0.2531 -1.6982
  112MOL    C1529097   7.440   0.731   4.529  0.6885 -0.0559  0.0853
  112MOL    C1629098   7.322   0.660   4.459  0.1380  0.1426  0.3965
  112MOL    C1729099   7.322   0.512   4.442  0.1979 -0.3836  0.0807
  112MOL    C1829100   7.339   0.607   4.325  0.0292  0.5715  0.3571
  112MOL    C1929101   7.444   0.886   4.495  0.4763 -0.1127  0.0571
  112MOL    H2029102   7.530   0.682   4.490 -0.0293 -1.2075 -0.1602
  112MOL    H2129103   7.223   0.701   4.478 -0.5998 -0.9799 -0.9619
  112MOL    H2229104   7.225   0.464   4.454 -0.4166  1.5379  3.3296
  112MOL    H2329105   7.403   0.449   4.480  0.8040  0.6840  0.5828
  112MOL    H2429106   7.432   0.586   4.273 -1.0443 -1.0877 -0.9646
  112MOL    H2529107   7.250   0.605   4.262  1.9473 -1.1589 -2.3873
  112MOL    H2629108   7.497   0.935   4.577  0.1871  0.8724 -0.3414
  112MOL    H2729109   7.343   0.926   4.503 -0.3158 -1.0605 -4.1781
  112MOL    C2829110   7.482   0.940   4.353  0.2590  0.8034  0.6377
  112MOL    C2929111   7.627   0.918   4.320  0.2779  0.1841 -0.2043
  112MOL    C3029112   7.669   0.785   4.263  0.2221  0.0425 -0.6261
  112MOL    C3129113   7.671   0.912   4.180 -0.2564 -0.6007 -0.4294
  112MOL    C3229114   7.433   1.086   4.337  0.0466  0.5177  0.5414
  112MOL    H3329115   7.431   0.868   4.289  1.0267  0.9038 -0.0955
  112MOL    H3429116   7.694   0.986   4.372 -0.4518  1.0052 -0.3314
  112MOL    H3529117   7.586   0.718   4.246  0.6235 -0.5442 -0.2638
  112MOL    H3629118   7.769   0.745   4.278 -0.0094 -0.0647  0.7106
  112MOL    H3729119   7.598   0.912   4.099 -0.6861 -3.2118 -0.0820
  112MOL    H3829120   7.767   0.948   4.144  0.4302 -0.8204  1.1499
  112MOL    H3929121   7.482   1.127   4.249 -1.7732 -0.2390 -0.8519
  112MOL    H4029122   7.463   1.150   4.420  0.6359 -0.0408  0.7580
  112MOL    C4129123   7.275   1.117   4.331 -0.4006 -0.7903 -0.6402
  112MOL    C4229124   7.209   1.038   4.220 -0.1028 -0.1609 -0.0165
  112MOL    C4329125   7.056   1.033   4.205 -0.2008 -1.2461 -0.5107
  112MOL    C4429126   7.130   0.911   4.251  0.8226 -0.0618 -0.5306
  112MOL    C4529127   7.244   1.271   4.314  0.5528  0.1444 -0.2258
  112MOL    H4629128   7.229   1.080   4.423 -2.3667  2.1195 -0.4035
  112MOL    H4729129   7.275   1.007   4.140  1.4108 -1.2657  1.6437
  112MOL    H4829130   7.011   1.105   4.274 -0.0771 -3.1367  1.5816
  112MOL    H4929131   7.021   1.029   4.102 -2.5925  0.3822  0.1823
  112MOL    H5029132   7.123   0.826   4.184  0.3038 -0.8871  0.5567
  112MOL    H5129133   7.146   0.882   4.355 -1.7839 -0.4797 -0.2075
  112MOL    H5229134   7.136   1.278   4.300  0.7933  2.8752 -1.0429
  112MOL    H5329135   7.299   1.315   4.230  1.5178  0.7132  0.6872
  112MOL    C5429136   7.271   1.355   4.443 -0.1205  0.7315 -0.9653
  112MOL    C5529137   7.357   1.469   4.403  0.1035 -0.4170 -0.4512
  112MOL    C5629138   7.509   1.441   4.393 -1.2154  0.5385 -0.5358
  112MOL    C5729139   7.457   1.544   4.487 -0.1629 -0.2945 -0.1149
  112MOL    C5829140   7.152   1.406   4.528 -0.3608 -0.1032  0.2422
  112MOL    H5929141   7.336   1.294   4.506 -0.6333  1.9479  0.7666
  112MOL    H6029142   7.316   1.530   4.323 -1.4337  2.3169  2.3074
  112MOL    H6129143   7.550   1.352   4.439 -1.2951 -1.1038 -3.5567
  112MOL    H6229144   7.561   1.477   4.304  1.9851 -1.8187  0.2713
  112MOL    H6329145   7.455   1.646   4.449  0.9624  0.1431  0.9538
  112MOL    H6429146   7.488   1.531   4.591  1.0964 -0.6182 -0.5137
  112MOL    H6529147   7.185   1.456   4.619  0.0264  0.4905 -0.2182
  112MOL    H6629148   7.096   1.481   4.471  2.5492  1.4562 -0.6965
  112MOL    C6729149   7.057   1.286   4.577  0.1852  0.3935  0.9887
  112MOL    C6829150   7.095   1.231   4.714 -1.2074 -0.3011 -0.3317
  112MOL    C6929151   7.102   1.079   4.738  0.6533 -1.0028  0.2394
  112MOL    C7029152   7.228   1.170   4.754  0.5828 -0.2342 -0.2613
  112MOL    C7129153   6.911   1.349   4.591  0.8593 -0.2728  0.3178
  112MOL    H7229154   7.055   1.207   4.502 -3.1148  1.0585  0.3095
  112MOL    H7329155   7.040   1.277   4.796 -1.3207 -2.1558  0.6867
  112MOL    H7429156   7.055   1.030   4.823  0.1796 -3.4986 -1.3985
  112MOL    H7529157   7.080   1.020   4.649  2.5496 -2.2132  0.5414
  112MOL    H7629158   7.312   1.161   4.685 -1.1579  3.3657 -3.0001
  112MOL    H7729159   7.263   1.199   4.853 -0.8836  0.6907  0.0094
  112MOL    H7829160   6.888   1.380   4.489  5.1560  1.2162 -0.3278
  112MOL    H7929161   6.923   1.450   4.630 -1.0204  0.2338 -0.3601
  112MOL    C8029162   6.791   1.266   4.648  0.5448 -0.1170 -0.2242
  112MOL    C8129163   6.726   1.176   4.540  0.0154  0.3141  1.0034
  112MOL    C8229164   6.675   1.036   4.567 -0.1973  0.3625 -0.7617
  112MOL    C8329165   6.796   1.052   4.482 -0.0610 -0.3854  0.1289
  112MOL    C8429166   6.688   1.366   4.707  0.2682 -0.3441 -0.2650
  112MOL    H8529167   6.842   1.202   4.721  0.8407 -0.6274 -0.8714
  112MOL    H8629168   6.667   1.226   4.463  0.2098  0.1657  0.7560
  112MOL    H8729169   6.572   1.020   4.536  0.0517 -0.8102 -1.0008
  112MOL    H8829170   6.697   0.988   4.662 -3.7629 -1.6247 -0.8282
  112MOL    H8929171   6.891   1.021   4.523 -0.0527 -0.6735 -0.1120
  112MOL    H9029172   6.783   1.023   4.378 -2.3373  1.2549 -0.0818
  112MOL    H9129173   6.670   1.451   4.641 -0.0248  0.9913  1.5160
  112MOL    H9229174   6.588   1.323   4.703  0.5706 -1.0942  0.3001
  112MOL    C9329175   6.724   1.402   4.853  0.3730 -0.7183 -0.7302
  112MOL    C9429176   6.674   1.536   4.889 -0.2090 -0.3909 -0.0014
  112MOL    C9529177   6.766   1.639   4.962  0.1357 -0.6068  0.3431
  112MOL    C9629178   6.719   1.663   4.819 -0.0590  0.5299  0.3082
  112MOL    C9729179   6.669   1.288   4.950 -0.5004 -0.5031  0.3052
  112MOL    H9829180   6.831   1.406   4.873  0.3990 -1.8996 -0.6274
  112MOL    H9929181   6.571   1.539   4.924 -0.2925 -2.3429 -0.0516
  112MOL   H10029182   6.723   1.694   5.045  0.4784 -1.2612  0.9552
  112MOL   H10129183   6.874   1.622   4.963  0.3679  0.6878 -0.5946
  112MOL   H10229184   6.649   1.747   4.816  1.3236  1.7487  1.2623
  112MOL   H10329185   6.772   1.647   4.726 -1.6565 -2.1174 -0.2027
  112MOL   H10429186   6.660   1.189   4.904  0.2270 -0.9972  1.2097
  112MOL   H10529187   6.567   1.315   4.976 -1.7990 -3.4314 -1.4689
  112MOL   C10629188   6.746   1.285   5.087 -0.0764 -0.4922 -0.0837
  112MOL   C10729189   6.675   1.199   5.191  0.7242 -0.0233  0.2487
  112MOL   C10829190   6.685   1.240   5.333 -0.4220 -0.2408 -0.9324
  112MOL   C10929191   6.557   1.245   5.259 -0.3543  0.2691 -0.3314
  112MOL   C11029192   6.896   1.226   5.071  0.1601  0.0145  0.5743
  112MOL   H11129193   6.755   1.386   5.126 -0.8604 -0.0386 -1.0608
  112MOL   H11229194   6.676   1.092   5.173  0.4841 -0.2502  1.4969
  112MOL   H11329195   6.687   1.166   5.413  2.5001  1.1042  0.3140
  112MOL   H11429196   6.710   1.343   5.357  1.5927 -0.1203 -3.3694
  112MOL   H11529197   6.515   1.345   5.244 -2.2745 -0.9191 -3.2330
  112MOL   H11629198   6.482   1.166   5.266  1.0157 -1.1863 -1.8529
  112MOL   H11729199   6.882   1.118   5.065  0.8959 -0.0762  0.4404
  112MOL   H11829200   6.938   1.248   4.973 -1.6086 -1.7314 -0.6144
  112MOL   C11929201   6.992   1.266   5.183  0.1636 -0.7534  0.3162
  112MOL   C12029202   7.085   1.153   5.214 -0.0611  0.4283  0.3489
  112MOL   C12129203   7.043   1.034   5.301  0.5911  0.2064  0.3012
  112MOL   C12229204   7.155   1.123   5.346 -0.2115  0.8721 -0.6710
  112MOL   C12329205   7.074   1.386   5.133 -0.2044 -0.3399 -0.3274
  112MOL   H12429206   6.951   1.291   5.281  2.4166 -2.4354  1.7482
  112MOL   H12529207   7.142   1.125   5.126 -0.9724  1.4446 -0.5606
  112MOL   H12629208   7.071   0.935   5.268 -0.2557  0.5762 -1.5463
  112MOL   H12729209   6.954   1.048   5.363 -2.0261  0.0662 -3.3084
  112MOL   H12829210   7.128   1.182   5.433 -1.8875 -1.2489  0.3074
  112MOL   H12929211   7.262   1.106   5.346 -0.3760 -0.7061  2.6893
  112MOL   H13029212   7.137   1.349   5.052 -2.3860 -0.6399 -1.9326
  112MOL   H13129213   7.005   1.462   5.094  1.6305  1.0269 -0.9597
  112MOL   C13229214   7.165   1.471   5.229 -0.2649  0.1954 -0.5071
  112MOL   C13329215   7.075   1.552   5.324  0.1475  0.2653 -0.8305
  112MOL   C13429216   7.147   1.610   5.449  0.1656 -0.1280 -0.1646
  112MOL   C13529217   7.033   1.503   5.459 -0.2049 -0.1437 -0.3245
  112MOL   C13629218   7.276   1.555   5.158  0.6925  0.3094 -0.4119
  112MOL   H13729219   7.213   1.397   5.293  3.0510  1.9216 -0.9037
  112MOL   H13829220   7.010   1.618   5.268 -1.1510  0.1858  0.5614
  112MOL   H13929221   7.248   1.574   5.469  0.8938  1.4966 -0.8005
  112MOL   H14029222   7.131   1.711   5.485  1.1022  0.3070 -0.9283
  112MOL   H14129223   7.062   1.401   5.481  0.7146  0.1698 -0.0951
  112MOL   H14229224   6.935   1.534   5.495 -0.0033  0.3250 -0.1792
  112MOL   H14329225   7.220   1.608   5.082 -0.8804  0.4722  0.8329
  112MOL   H14429226   7.314   1.635   5.223 -0.7271 -0.2623  1.1561
  112MOL   C14529227   7.392   1.464   5.102 -0.1533 -0.9036  0.3895
  112MOL   C14629228   7.447   1.545   4.987 -0.5817  0.3109  0.5743
  112MOL   C14729229   7.494   1.470   4.859 -0.6925  0.5766  0.6693
  112MOL   C14829230   7.365   1.539   4.857  0.2776  0.1938 -0.2764
  112MOL   C14929231   7.502   1.423   5.207 -0.1636 -0.3665  0.5324
  112MOL   H15029232   7.348   1.377   5.053  1.3732 -1.1234 -0.6199
  112MOL   H15129233   7.492   1.642   5.004 -0.3296  0.7923 -2.6568
  112MOL   H15229234   7.574   1.523   4.807 -0.9571  2.5592  2.2340
  112MOL   H15329235   7.503   1.361   4.856 -0.2696  0.6343 -0.2719
  112MOL   H15429236   7.276   1.478   4.844  0.4267  0.1875 -1.3621
  112MOL   H15529237   7.352   1.637   4.812 -1.2425 -0.9075 -2.3594
  112MOL   H15629238   7.554   1.514   5.236 -1.1181  0.5306 -0.5719
  112MOL   H15729239   7.459   1.388   5.301 -0.7236  1.1413  0.8551
  112MOL   C15829240   7.597   1.319   5.161 -0.3314 -0.0287  0.6058
  112MOL   C15929241   7.525   1.184   5.158 -0.4194 -0.4553 -0.3601
  112MOL   C16029242   7.482   1.132   5.022  0.2461 -0.4824 -0.3803
  112MOL   C16129243   7.579   1.057   5.106  1.0988  0.5006  0.0440
  112MOL   C16229244   7.724   1.317   5.252  0.2722  0.4373  0.2072
  112MOL   H16329245   7.630   1.324   5.057  0.1788  2.5198  0.8459
  112MOL   H16429246   7.457   1.169   5.242  0.1109 -1.7533 -0.1368
  112MOL   H16529247   7.530   1.168   4.931 -2.9537  1.6365 -1.3245
  112MOL   H16629248   7.395   1.068   5.013  0.1534 -0.5044  0.6636
  112MOL   H16729249   7.548   0.960   5.145 -0.7911  0.4752 -1.4269
  112MOL   H16829250   7.680   1.057   5.066  1.5887  2.2503  1.2229
  112MOL   H16929251   7.775   1.224   5.228 -0.6190  0.2491 -0.9937
  112MOL   H17029252   7.695   1.320   5.357 -2.0986 -1.3054 -0.3591
  112MOL   C17129253   7.807   1.442   5.247 -0.2165 -0.0964  0.4345
  112MOL   C17229254   0.102   1.411   5.316  0.6983 -0.0570 -0.2963
  112MOL   C17329255   0.185   1.502   5.400 -0.3015 -0.2154  0.0487
  112MOL   C17429256   0.110   1.395   5.466 -0.3220 -0.0701  0.2956
  112MOL   C17529257   0.016   1.488   5.106  0.5377 -0.1791  0.4736
  112MOL   H17629258   7.759   1.528   5.293  1.4410  0.3305  1.4176
  112MOL   H17729259   0.171   1.359   5.250 -2.2327 -3.7704 -0.5781
  112MOL   H17829260   0.293   1.499   5.410 -0.3325 -0.7876  0.2340
  112MOL   H17929261   0.140   1.602   5.397  0.8297  0.2675 -2.8244
  112MOL   H18029262   0.033   1.443   5.526  0.2115 -0.3937  1.2351
  112MOL   H18129263   0.154   1.302   5.500 -0.2782  0.4388  1.6593
  112MOL   H18229264   7.773   1.492   5.035  1.3500  1.4152 -0.4025
  112MOL   H18329265   0.089   1.419   5.066  1.4721 -0.3124  2.3502
  112MOL   C18429266   0.060   1.638   5.093 -0.6308 -0.6230 -0.0400
  112MOL   C18529267   7.785   1.737   5.102 -0.4226 -0.6485  0.5167
  112MOL   C18629268   7.804   1.881   5.136 -0.2419 -0.0884  0.2783
  112MOL   C18729269   7.730   1.790   5.229  0.5190  0.6895  0.3687
  112MOL   C18829270   0.134   1.664   4.958 -0.1101 -0.6359  0.1486
  112MOL   H18929271   0.130   1.672   5.170 -1.5460 -0.3677  0.6839
  112MOL   H19029272   7.704   1.720   5.031  1.1705  0.7479 -1.7036
  112MOL   H19129273   7.750   1.950   5.071  2.0940 -1.8145 -3.7517
  112MOL   H19229274   0.063   1.911   5.172  0.1357  0.4490 -1.1246
  112MOL   H19329275   7.621   1.796   5.232  0.5592  0.9156  1.8230
  112MOL   H19429276   7.779   1.752   5.318  1.7862 -0.2613 -0.7182
  112MOL   H19529277   0.156   1.770   4.951 -0.5935 -0.4718  1.0102
  112MOL   H19629278   0.066   1.639   4.877  0.8666 -0.3510 -0.7653
  112MOL   C19729279   0.272   1.588   4.928  1.0205  0.0531 -0.2230
  112MOL   C19829280   0.386   1.673   4.981  0.3888  0.1013 -0.1788
  112MOL   C19929281   0.518   1.622   5.027  0.0664  0.1508 -0.8978
  112MOL   C20029282   0.418   1.677   5.127  0.7511 -0.3509  0.6063
  112MOL   C20129283   0.289   1.563   4.778  0.3964  1.2911 -0.2505
  112MOL   H20229284   0.268   1.493   4.982 -3.2534  0.1275 -0.1915
  112MOL   H20329285   0.396   1.768   4.929  0.0486 -0.2007 -0.8039
  112MOL   H20429286   0.604   1.684   5.004 -0.1117  0.2719 -1.2369
  112MOL   H20529287   0.538   1.515   5.035 -0.0671  0.2550  0.8013
  112MOL   H20629288   0.373   1.604   5.194 -1.5164  0.1573 -0.3202
  112MOL   H20729289   0.435   1.774   5.173  1.0080  0.6300 -1.5058
  112MOL   H20829290   0.259   1.655   4.727 -1.9813  0.6808 -0.0000
  112MOL   H20929291   0.393   1.537   4.757  0.1246 -0.2083  0.1758
  112MOL   C21029292   0.213   1.448   4.706 -0.4317 -0.4982 -0.2755
  112MOL   C21129293   0.193   1.457   4.545  0.0381  0.3233 -0.3879
  112MOL   C21229294   0.057   1.450   4.482  0.0520  0.0395  0.3893
  112MOL   C21329295   0.135   1.576   4.482  0.3592  0.5845  0.0467
  112MOL   C21429296   0.274   1.310   4.745 -0.8510 -0.6591  0.1412
  112MOL   H21529297   0.113   1.439   4.748 -0.7307 -0.5349 -0.9865
  112MOL   H21629298   0.270   1.406   4.488  2.2579  1.0055  1.9063
  112MOL   H21729299   0.041   1.397   4.388 -0.3356  1.5464 -0.4157
  112MOL   H21829300   7.810   1.438   4.547 -0.6528  0.4613 -0.4622
  112MOL   H21929301   0.167   1.597   4.380 -2.2046 -1.3068 -1.1820
  112MOL   H22029302   0.088   1.653   4.542 -3.9301 -0.1396 -2.1993
  112MOL   H22129303   0.367   1.321   4.689 -1.5429  1.4306 -0.6724
  112MOL   H22229304   0.306   1.306   4.849  0.9725 -2.6754 -0.4683
  112MOL   C22329305   0.191   1.193   4.708  0.3194 -0.5049  0.7689
  112MOL   C22429306   0.069   1.191   4.801 -0.0072 -0.3952 -0.0660
  112MOL   C22529307   7.771   1.247   4.767  0.2238 -0.5748 -0.0275
  112MOL   C22629308   7.799   1.096   4.766 -0.2903 -0.1099  0.4952
  112MOL   C22729309   0.271   1.061   4.731 -0.2715 -0.0086  0.3828
  112MOL   H22829310   0.157   1.197   4.604  0.5710 -2.6383  0.5634
  112MOL   H22929311   0.097   1.196   4.906 -0.9471 -2.1252  0.2938
  112MOL   H23029312   7.742   1.281   4.668 -0.5789 -0.3817  0.2722
  112MOL   H23129313   7.713   1.283   4.851  2.3362  0.3453  1.0741
  112MOL   H23229314   7.734   1.052   4.841  0.3093 -1.1809  0.3855
  112MOL   H23329315   7.810   1.050   4.668  0.6380 -1.6231  1.2982
  112MOL   H23429316   0.307   1.061   4.835 -0.3609  0.3455  0.4124
  112MOL   H23529317   0.213   0.969   4.721  0.6621 -0.4867 -0.6973
  112MOL   C23629318   0.395   1.044   4.630 -0.0294 -0.4156 -0.1016
  112MOL   C23729319   0.331   1.016   4.495  0.1887  0.3833 -0.6298
  112MOL   C23829320   0.319   1.119   4.378  0.2904 -0.3016 -0.9828
  112MOL   C23929321   0.412   0.997   4.364 -0.1948 -0.6084 -0.1187
  112MOL   C24029322   0.482   0.924   4.671 -0.5092  0.1907 -0.1936
  112MOL   H24129323   0.446   1.140   4.626  0.9279 -0.9654 -2.1659
  112MOL   H24229324   0.250   0.943   4.497  0.8612 -0.3500  0.1155
  112MOL   H24329325   0.232   1.114   4.313  0.5143  1.9736 -1.4883
  112MOL   H24429326   0.366   1.216   4.394 -1.6069  0.6502 -1.0544
  112MOL   H24529327   0.510   1.041   4.346 -0.6546  0.7131  0.5212
  112MOL   H24629328   0.369   0.936   4.286 -0.0675  0.0404 -0.6986
  112MOL   H24729329   0.436   0.827   4.658 -0.9024  0.3608 -0.0744
  112MOL   H24829330   0.564   0.915   4.600 -0.1771  0.2930  0.1721
  112MOL   C24929331   0.546   0.927   4.815  0.6783 -0.0563  1.0046
  112MOL   C25029332   0.629   1.051   4.833  0.6616 -0.5225 -0.5827
  112MOL   C25129333   0.571   1.178   4.876  0.0054 -0.1781  0.4308
  112MOL   C25229334   0.664   1.104   4.972 -0.4021  0.4872  0.0928
  112MOL   C25329335   0.641   0.804   4.847  0.1793  0.0661  0.0292
  112MOL   H25429336   0.474   0.939   4.895 -0.2151 -0.9523  0.3468
  112MOL   H25529337   0.714   1.063   4.767 -0.4455 -1.3171 -2.1836
  112MOL   H25629338   0.619   1.263   4.828 -0.5975 -0.7882 -1.2803
  112MOL   H25729339   0.473   1.189   4.921  0.8101  0.7159  2.0279
  112MOL   H25829340   0.768   1.135   4.983 -0.5132  0.1260  2.4156
  112MOL   H25929341   0.628   1.048   5.057 -0.2939  1.3487  0.7178
  112MOL   H26029342   0.737   0.809   4.795  0.3125 -0.7645  0.1874
  112MOL   H26129343   0.580   0.718   4.818 -0.8153  1.4363 -2.0749
  112MOL   H26229344   0.654   0.801   4.955  1.7789  0.7909 -0.1441
  113MOL     C129345   1.072   2.662   5.606  0.0854 -0.2476  0.4844
  113MOL     C229346   1.190   2.731   5.667 -0.4509 -0.5999  0.3752
  113MOL     C329347   1.165   2.871   5.720  0.4549  0.0245 -0.3355
  113MOL     C429348   1.266   2.854   5.609  0.0828  0.3470  0.0257
  113MOL     C529349   1.092   2.521   5.559 -0.0651  0.5389  0.2106
  113MOL     H629350   0.989   2.671   5.677 -1.2551 -1.9011 -0.8373
  113MOL     H729351   1.241   2.675   5.745 -3.3973 -0.3061  2.6148
  113MOL     H829352   1.074   2.924   5.694 -0.7795 -1.0106  1.6675
  113MOL     H929353   1.210   2.889   5.818  1.4247  2.3704 -1.1722
  113MOL    H1029354   1.371   2.863   5.635 -0.0203  0.1401  0.5311
  113MOL    H1129355   1.234   2.888   5.511  2.1369  0.5296 -0.6043
  113MOL    H1229356   1.133   2.457   5.638  0.1300 -0.9641 -1.0695
  113MOL    H1329357   1.158   2.510   5.473 -1.2848  0.6398 -0.7492
  113MOL    H1429358   1.036   2.729   5.528  0.6385 -1.8122 -1.1468
  113MOL    C1529359   0.959   2.455   5.518 -0.4125  0.2188  0.1673
  113MOL    C1629360   0.986   2.338   5.429 -0.5301  0.8711 -0.0538
  113MOL    C1729361   1.013   2.356   5.277 -0.4937 -0.5180  0.3781
  113MOL    C1829362   0.889   2.289   5.320  0.0046  0.5321  0.0752
  113MOL    C1929363   0.860   2.418   5.632 -0.1209  0.4622  0.4390
  113MOL    H2029364   0.909   2.524   5.449 -1.3339  0.1747  0.7824
  113MOL    H2129365   1.061   2.269   5.468  1.1748  2.1851 -0.9412
  113MOL    H2229366   1.091   2.293   5.235 -0.3630 -0.6743  0.8559
  113MOL    H2329367   1.005   2.452   5.226  0.3688 -0.9987 -0.6820
  113MOL    H2429368   0.805   2.354   5.295 -0.0860 -0.1120 -1.3775
  113MOL    H2529369   0.884   2.186   5.284 -0.4463  0.1426  1.2299
  113MOL    H2629370   0.898   2.481   5.712  2.1353  0.3893 -0.5337
  113MOL    H2729371   0.877   2.313   5.657  0.6013 -0.1211 -2.3742
  113MOL    C2829372   0.704   2.449   5.609  0.3957 -0.1702 -0.4833
  113MOL    C2929373   0.674   2.589   5.568 -0.8113 -0.1923 -0.2939
  113MOL    C3029374   0.676   2.630   5.416  0.2160  0.0382 -1.0459
  113MOL    C3129375   0.543   2.626   5.492 -0.6045 -0.3396  0.4251
  113MOL    C3229376   0.628   2.409   5.730  1.6162 -0.2306  0.0657
  113MOL    H3329377   0.684   2.378   5.528  0.3176  0.3362 -0.9144
  113MOL    H3429378   0.715   2.663   5.637  1.5920 -0.0008 -1.8767
  113MOL    H3529379   0.701   2.542   5.357 -1.0055 -0.3432 -1.0127
  113MOL    H3629380   0.723   2.725   5.394  1.2170 -0.6153 -1.7556
  113MOL    H3729381   0.481   2.543   5.458 -0.5847  0.1029 -0.7110
  113MOL    H3829382   0.489   2.717   5.513 -0.2299 -0.0722  0.2490
  113MOL    H3929383   0.598   2.497   5.787 -0.0417 -0.1705 -0.8430
  113MOL    H4029384   0.678   2.350   5.806 -0.0767 -1.0455  0.5637
  113MOL    C4129385   0.509   2.315   5.686  0.0679 -0.0170 -0.6956
  113MOL    C4229386   0.399   2.322   5.792 -0.2677 -0.0006 -0.1912
  113MOL    C4329387   0.259   2.309   5.739 -0.4309  0.2887 -0.3764
  113MOL    C4429388   0.306   2.440   5.792  0.8087 -0.9434  0.3321
  113MOL    C4529389   0.558   2.172   5.663 -0.6776 -0.2301 -0.1160
  113MOL    H4629390   0.466   2.368   5.601 -3.4297 -0.6960  0.5441
  113MOL    H4729391   0.412   2.266   5.885 -0.9956 -0.8216 -0.5766
  113MOL    H4829392   0.258   2.311   5.630 -0.1394  3.8165 -0.3870
  113MOL    H4929393   0.180   2.254   5.790  0.8452 -1.4853 -0.2722
  113MOL    H5029394   0.260   2.479   5.883 -2.4203 -0.5042 -1.4514
  113MOL    H5129395   0.310   2.515   5.714 -1.5200  0.5818  1.6145
  113MOL    H5229396   0.526   2.111   5.747 -2.4975  0.0963 -0.5446
  113MOL    H5329397   0.667   2.173   5.671 -0.7655  0.9695  1.0951
  113MOL    C5429398   0.512   2.106   5.535 -0.1585  0.9721  0.8022
  113MOL    C5529399   0.571   2.159   5.407 -0.5823  0.2851 -0.2160
  113MOL    C5629400   0.516   2.281   5.336 -0.3745  0.3453 -0.5365
  113MOL    C5729401   0.504   2.144   5.269 -0.1713 -0.1235 -0.1995
  113MOL    C5829402   0.526   1.951   5.539  0.1307  0.1775 -0.0874
  113MOL    H5929403   0.404   2.122   5.533  0.0050  1.9868 -0.4022
  113MOL    H6029404   0.678   2.143   5.400 -0.7932 -1.7873  0.9185
  113MOL    H6129405   0.425   2.323   5.379 -0.2847 -0.2146  0.2136
  113MOL    H6229406   0.576   2.361   5.293 -1.1215  0.8751 -0.6108
  113MOL    H6329407   0.569   2.131   5.183  1.8350  0.0638  1.2394
  113MOL    H6429408   0.404   2.103   5.259 -1.0654  2.1435 -0.7903
  113MOL    H6529409   0.501   1.919   5.438  1.3850 -1.9330  0.2476
  113MOL    H6629410   0.627   1.918   5.565  0.1644  1.3467  1.3342
  113MOL    C6729411   0.425   1.870   5.632 -0.1872 -0.0305  0.3715
  113MOL    C6829412   0.298   1.839   5.564  0.2688  0.4348  0.0889
  113MOL    C6929413   0.173   1.809   5.641  0.1094 -0.6962  0.5198
  113MOL    C7029414   0.180   1.941   5.561  0.0829  1.1280  0.7215
  113MOL    C7129415   0.484   1.728   5.676 -0.4905 -0.6354 -0.2800
  113MOL    H7229416   0.419   1.942   5.714  2.3847  0.5138  0.1373
  113MOL    H7329417   0.307   1.764   5.486  1.3672  0.5247  0.1153
  113MOL    H7429418   0.090   1.749   5.605 -0.9030  0.9321  0.0903
  113MOL    H7529419   0.171   1.812   5.750 -0.0216 -1.0440  0.5278
  113MOL    H7629420   0.195   2.037   5.610  2.4248  1.3088 -0.2309
  113MOL    H7729421   0.123   1.949   5.469 -1.0517  1.6264  1.4613
  113MOL    H7829422   0.483   1.661   5.589 -2.1894  0.6599 -1.2888
  113MOL    H7929423   0.415   1.685   5.748 -0.2128  2.0546  1.6512
  113MOL    C8029424   0.620   1.721   5.745 -0.0288 -0.0808 -0.1380
  113MOL    C8129425   0.631   1.579   5.789 -0.5242  0.8255  0.6354
  113MOL    C8229426   0.770   1.518   5.817 -0.6362 -0.4381  0.1370
  113MOL    C8329427   0.694   1.479   5.688  1.0489 -0.2317 -0.2358
  113MOL    C8429428   0.619   1.814   5.873 -0.8085 -0.2598 -1.0104
  113MOL    H8529429   0.700   1.747   5.676  0.3955 -1.9612 -0.4012
  113MOL    H8629430   0.553   1.547   5.858 -2.7327 -2.7919 -3.3177
  113MOL    H8729431   0.777   1.460   5.909  0.8259  1.5666  1.3492
  113MOL    H8829432   0.852   1.589   5.810  0.8029 -1.9804  1.0546
  113MOL    H8929433   0.745   1.514   5.599  0.7068  1.5632  0.2669
  113MOL    H9029434   0.661   1.375   5.686 -1.7850  0.6326 -0.8248
  113MOL    H9129435   0.584   1.917   5.863  0.3098  0.1828 -0.3922
  113MOL    H9229436   0.547   1.764   5.938 -1.5100  1.6794 -0.2470
  113MOL    C9329437   0.746   1.827   5.957 -0.5785 -0.6056 -0.5808
  113MOL    C9429438   0.849   1.883   5.865 -0.5753 -0.0624  0.0138
  113MOL    C9529439   0.856   2.029   5.831  0.8811  0.2912  0.0527
  113MOL    C9629440   0.956   1.970   5.919  0.4197  0.1239  0.1990
  113MOL    C9729441   0.714   1.911   6.084 -0.0121  0.0388 -0.2034
  113MOL    H9829442   0.758   1.726   5.996 -0.0436 -0.7012 -1.0028
  113MOL    H9929443   0.877   1.822   5.780  0.0464 -0.7194  0.6788
  113MOL   H10029444   0.905   2.078   5.747 -0.1414 -1.9390 -1.9149
  113MOL   H10129445   0.769   2.082   5.869  0.2887 -1.6834  1.4836
  113MOL   H10229446   1.057   1.948   5.884  0.2405 -0.0647 -0.2068
  113MOL   H10329447   0.954   1.984   6.027 -0.6335 -2.8320  0.6124
  113MOL   H10429448   0.684   2.013   6.058 -1.9278 -0.6448 -0.7712
  113MOL   H10529449   0.803   1.913   6.146 -0.4395  1.4730  0.4061
  113MOL   C10629450   0.588   1.866   6.159  0.1981  0.0206  0.4024
  113MOL   C10729451   0.625   1.878   6.304  0.0759 -0.2465 -0.1279
  113MOL   C10829452   0.584   1.778   6.412  0.0603 -0.0880 -0.1063
  113MOL   C10929453   0.727   1.786   6.373 -0.2541  0.7795  0.1127
  113MOL   C11029454   0.456   1.950   6.128 -0.3585  0.1445  0.0669
  113MOL   H11129455   0.563   1.761   6.151  1.9523 -0.4850  1.4158
  113MOL   H11229456   0.628   1.984   6.331  0.2775 -0.3472  0.2467
  113MOL   H11329457   0.550   1.806   6.512 -0.2027  0.1516 -0.2614
  113MOL   H11429458   0.526   1.694   6.373  1.7424 -1.8643  1.1012
  113MOL   H11529459   0.755   1.692   6.324 -2.9480  0.0270 -0.0403
  113MOL   H11629460   0.787   1.831   6.451 -0.3915  1.9699 -0.4661
  113MOL   H11729461   0.480   2.056   6.139  0.5878  0.0367 -0.8029
  113MOL   H11829462   0.425   1.937   6.024  0.5827 -0.6255 -0.1217
  113MOL   C11929463   0.332   1.917   6.208 -0.2092 -0.1877 -0.0076
  113MOL   C12029464   0.208   2.004   6.185 -0.4713 -0.3348 -0.0563
  113MOL   C12129465   0.149   2.016   6.043  0.4716  0.2766  0.2980
  113MOL   C12229466   0.220   2.136   6.105  0.2228 -0.0648  0.2975
  113MOL   C12329467   0.296   1.770   6.175  0.9259 -0.0929  0.1150
  113MOL   H12429468   0.359   1.936   6.312 -0.7585  1.1301 -0.0915
  113MOL   H12529469   0.136   2.006   6.267 -0.4631 -2.9249  0.0554
  113MOL   H12629470   0.040   2.010   6.039  0.5178 -1.9507  1.7378
  113MOL   H12729471   0.202   1.971   5.959  0.4705 -1.1977  1.0655
  113MOL   H12829472   0.315   2.154   6.055  0.4493 -0.2558  0.6526
  113MOL   H12929473   0.154   2.219   6.130  1.6966  0.6497  1.9761
  113MOL   H13029474   0.299   1.771   6.066 -0.3827 -3.0261 -0.0033
  113MOL   H13129475   0.380   1.702   6.194  0.6195 -0.9233 -1.3699
  113MOL   C13229476   0.169   1.697   6.225  0.2419  0.0532  0.1120
  113MOL   C13329477   0.167   1.698   6.376 -1.1310  0.7299  0.1264
  113MOL   C13429478   0.048   1.649   6.449  0.6134 -0.2802  0.3257
  113MOL   C13529479   0.077   1.796   6.450 -0.1447  0.2070  0.0528
  113MOL   C13629480   0.158   1.547   6.183  0.4648  0.3959  0.2471
  113MOL   H13729481   0.083   1.752   6.185  0.0167 -0.3808 -0.0033
  113MOL   H13829482   0.259   1.680   6.431 -1.2996  0.6968  0.3981
  113MOL   H13929483   7.802   1.617   6.389  0.9795  0.1954 -0.4540
  113MOL   H14029484   0.061   1.590   6.539  0.8287 -0.0131  0.4691
  113MOL   H14129485   0.003   1.861   6.404  0.3802  0.7679 -0.0072
  113MOL   H14229486   0.123   1.843   6.537 -3.1933  3.1688  0.1769
  113MOL   H14329487   0.254   1.504   6.210  0.0236 -0.7112  0.0937
  113MOL   H14429488   0.091   1.489   6.247  0.0590  0.3497 -0.2138
  113MOL   C14529489   0.142   1.523   6.032  0.2089 -0.5220  0.1577
  113MOL   C14629490   0.162   1.382   5.996  0.2992  0.0470 -0.0770
  113MOL   C14729491   0.180   1.346   5.853  0.1093  0.3551 -0.5881
  113MOL   C14829492   0.297   1.332   5.944  0.2769 -0.1680 -0.2053
  113MOL   C14929493   0.018   1.590   5.972 -0.3408 -0.2486 -0.3616
  113MOL   H15029494   0.228   1.576   5.991  0.4306 -1.7360 -0.9541
  113MOL   H15129495   0.100   1.308   6.045  1.3302 -0.9783 -0.2906
  113MOL   H15229496   0.130   1.254   5.822 -0.2869  0.5283 -0.4677
  113MOL   H15329497   0.172   1.432   5.787  0.2634  0.8536  0.0492
  113MOL   H15429498   0.373   1.408   5.929 -0.7716  1.3341  1.7947
  113MOL   H15529499   0.344   1.237   5.969 -0.7927 -0.9148 -0.9654
  113MOL   H15629500   0.012   1.693   6.004  0.2219  0.5253 -2.6252
  113MOL   H15729501   0.041   1.607   5.866 -0.4963 -2.6208 -0.8177
  113MOL   C15829502   7.718   1.519   5.990  0.3821 -0.2834  0.5215
  113MOL   C15929503   7.625   1.564   5.880 -0.2227 -0.5566 -0.3040
  113MOL   C16029504   7.643   1.499   5.743  0.3317  0.1221  0.2416
  113MOL   C16129505   7.518   1.483   5.819 -0.5706 -0.2358 -0.2864
  113MOL   C16229506   7.662   1.544   6.135 -0.0210  0.4516 -0.0965
  113MOL   H16329507   7.737   1.412   5.978 -0.9966 -0.2759 -1.9979
  113MOL   H16429508   7.612   1.672   5.880  4.9417  0.2082  0.3246
  113MOL   H16529509   7.704   1.413   5.715  1.0059  0.8245 -0.4464
  113MOL   H16629510   7.649   1.577   5.668 -1.9581  1.1177  1.0480
  113MOL   H16729511   7.426   1.526   5.780 -0.7197  0.7231  1.0931
  113MOL   H16829512   7.508   1.384   5.861  0.4710 -1.2263 -2.2732
  113MOL   H16929513   7.659   1.653   6.145 -0.6434  0.4420 -0.1510
  113MOL   H17029514   7.725   1.505   6.215 -0.5982 -1.1393 -0.3963
  113MOL   C17129515   7.515   1.485   6.159  0.2323 -0.0191  0.3613
  113MOL   C17229516   7.518   1.330   6.163  0.0147 -0.4665 -0.1889
  113MOL   C17329517   7.583   1.266   6.283 -0.4814  0.0298  0.3251
  113MOL   C17429518   7.441   1.236   6.253  0.7393  0.1578 -0.0656
  113MOL   C17529519   7.447   1.561   6.278  0.1251  0.4747 -0.1248
  113MOL   H17629520   7.453   1.524   6.079  3.6170 -0.6858 -2.7251
  113MOL   H17729521   7.532   1.286   6.065  1.2146  0.6590 -0.5373
  113MOL   H17829522   7.654   1.189   6.253 -2.0611 -1.4535  0.3459
  113MOL   H17929523   7.609   1.338   6.360  2.0598 -0.3183 -0.1642
  113MOL   H18029524   7.372   1.274   6.328  1.3146 -1.2172  1.1807
  113MOL   H18129525   7.411   1.139   6.213  2.3263 -0.6011  0.5526
  113MOL   H18229526   7.516   1.565   6.361 -1.7233 -2.0941  1.5964
  113MOL   H18329527   7.365   1.504   6.322 -0.1530  1.3154  0.4625
  113MOL   C18429528   7.392   1.702   6.253  0.1738  0.1354  0.4210
  113MOL   C18529529   7.399   1.780   6.386 -0.2278  0.5056 -0.1203
  113MOL   C18629530   7.402   1.927   6.379 -0.2871 -0.3830 -1.1724
  113MOL   C18729531   7.527   1.846   6.430 -0.0282  0.9868 -0.7010
  113MOL   C18829532   7.250   1.710   6.188 -0.2531  0.3740 -0.9734
  113MOL   H18929533   7.467   1.753   6.192 -1.3445  0.2655 -1.3743
  113MOL   H19029534   7.321   1.746   6.454  1.8004  2.2132  3.1793
  113MOL   H19129535   7.352   1.988   6.454 -0.0848  0.0439 -1.3809
  113MOL   H19229536   7.397   1.971   6.280 -2.6170 -1.5093 -1.5871
  113MOL   H19329537   7.560   1.825   6.531 -0.9910  2.3930 -0.0772
  113MOL   H19429538   7.608   1.838   6.358 -0.2163 -0.3084 -0.7747
  113MOL   H19529539   7.175   1.697   6.266 -0.9769 -1.0359 -1.8810
  113MOL   H19629540   7.247   1.619   6.128  1.8113  0.6950 -1.6176
  113MOL   C19729541   7.223   1.821   6.088 -0.4073  0.2085  0.1569
  113MOL   C19829542   7.065   1.825   6.042  0.2589  0.0122  0.0505
  113MOL   C19929543   7.002   1.955   6.027  0.5454  0.3957 -0.2090
  113MOL   C20029544   6.950   1.865   6.137 -0.3592 -0.4680  0.6397
  113MOL   C20129545   7.309   1.806   5.960 -0.1167  0.1253  0.6795
  113MOL   H20229546   7.242   1.914   6.141  0.0476  0.0368  0.2976
  113MOL   H20329547   7.050   1.753   5.962  3.1100  1.3125 -1.7365
  113MOL   H20429548   7.054   2.045   6.060 -1.1341  2.6271 -3.2934
  113MOL   H20529549   6.941   1.970   5.938  0.1225  0.5936  0.1125
  113MOL   H20629550   6.972   1.889   6.241 -1.1149 -1.0197  0.9258
  113MOL   H20729551   6.858   1.809   6.125 -0.3222 -0.4096  0.0677
  113MOL   H20829552   7.396   1.746   5.986 -0.2231 -0.6264 -0.6600
  113MOL   H20929553   7.265   1.733   5.893  0.9496  0.0605  0.0368
  113MOL   C21029554   7.336   1.942   5.883  0.0027 -0.2492 -0.2645
  113MOL   C21129555   7.487   1.946   5.852  0.3570  0.3082  0.5443
  113MOL   C21229556   7.562   2.073   5.849 -0.0741  0.6700 -0.6252
  113MOL   C21329557   7.601   1.969   5.954 -0.5821  0.6387 -0.1763
  113MOL   C21429558   7.240   1.961   5.760  0.0771 -0.0647 -0.2626
  113MOL   H21529559   7.313   2.020   5.956  0.2926 -0.3855 -0.0272
  113MOL   H21629560   7.505   1.891   5.760 -3.5342  0.1265 -0.2208
  113MOL   H21729561   7.643   2.079   5.776  0.2186 -0.7691 -0.4350
  113MOL   H21829562   7.518   2.162   5.893 -0.8329 -0.5975  1.2770
  113MOL   H21929563   7.696   1.919   5.938 -0.0357  2.0222 -1.3728
  113MOL   H22029564   7.568   2.002   6.052 -3.0400  0.1744 -0.7948
  113MOL   H22129565   7.264   1.885   5.685  0.2076  1.0266 -1.3487
  113MOL   H22229566   7.143   1.933   5.799 -0.8001  3.7729  0.5435
  113MOL   C22329567   7.224   2.109   5.712 -0.0318  0.5842  0.3690
  113MOL   C22429568   7.142   2.188   5.805 -0.2208 -0.4131  0.1881
  113MOL   C22529569   7.210   2.264   5.921  0.3420  0.0479 -0.2424
  113MOL   C22629570   7.148   2.340   5.808  0.0911  0.1478  0.1414
  113MOL   C22729571   7.162   2.106   5.570  0.0126  0.0443  1.1057
  113MOL   H22829572   7.320   2.159   5.703 -0.5973  1.6822  0.4477
  113MOL   H22929573   7.043   2.148   5.826 -0.4094 -0.2138 -0.3297
  113MOL   H23029574   7.317   2.258   5.937  0.0256 -0.4996  1.7218
  113MOL   H23129575   7.158   2.276   6.015  1.0383  1.4135 -0.0304
  113MOL   H23229576   7.048   2.380   5.823  0.7096  2.1403 -0.9086
  113MOL   H23329577   7.212   2.385   5.733 -0.1676  0.0622 -0.1342
  113MOL   H23429578   7.065   2.057   5.584 -0.3477  0.2210 -0.5550
  113MOL   H23529579   7.114   2.200   5.542  1.2123 -0.4556 -3.0587
  113MOL   C23629580   7.237   2.042   5.451  0.7257 -0.2245  0.2573
  113MOL   C23729581   7.379   2.088   5.459 -0.0817  0.3800  0.7508
  113MOL   C23829582   7.499   2.005   5.501 -0.0382  0.5437 -0.4784
  113MOL   C23929583   7.473   2.024   5.360 -1.1423  0.2973  0.4114
  113MOL   C24029584   7.173   2.071   5.313  0.2257  0.4420  0.1025
  113MOL   H24129585   7.241   1.933   5.458  0.3036 -0.1455  2.1294
  113MOL   H24229586   7.380   2.195   5.478 -0.0957  0.1856  1.8780
  113MOL   H24329587   7.574   2.063   5.555  2.2806 -0.3636 -2.5966
  113MOL   H24429588   7.469   1.904   5.531  1.9450  0.0115 -0.2043
  113MOL   H24529589   7.443   1.931   5.312  0.9477  0.3834 -1.1350
  113MOL   H24629590   7.537   2.089   5.301 -0.8303 -0.2666  0.1338
  113MOL   H24729591   7.094   2.146   5.315  0.6188  0.8471  0.2415
  113MOL   H24829592   7.256   2.117   5.259 -0.1979  1.9527  0.7103
  113MOL   C24929593   7.106   1.956   5.242 -0.1871  0.6609  0.2431
  113MOL   C25029594   7.096   1.976   5.091 -0.5491  0.3440  0.0932
  113MOL   C25129595   7.196   1.917   4.991 -0.8929  0.0080  0.1277
  113MOL   C25229596   7.066   1.853   5.013  0.3571 -0.1886 -0.5656
  113MOL   C25329597   6.969   1.920   5.306  0.1898 -0.0050 -0.8698
  113MOL   H25429598   7.175   1.874   5.260  2.5422  2.5431 -1.2749
  113MOL   H25529599   7.026   2.051   5.055 -0.3678  0.0984 -0.7812
  113MOL   H25629600   7.209   1.959   4.891 -1.6426 -0.9653 -0.3974
  113MOL   H25729601   7.282   1.859   5.025 -2.0608 -2.1440 -0.5011
  113MOL   H25829602   6.993   1.880   4.937 -1.5099  2.8487  2.1898
  113MOL   H25929603   7.054   1.766   5.078 -1.6953 -0.1288 -0.8370
  113MOL   H26029604   6.981   1.894   5.411 -1.9765 -1.5060 -0.9613
  113MOL   H26129605   6.932   1.834   5.251  1.7457 -0.7332 -0.7942
  113MOL   H26229606   6.887   1.992   5.314 -0.4356 -0.7098 -0.8572
  114MOL     C129607   0.369   0.271   5.349  0.3041  0.2339 -0.8023
  114MOL     C229608   0.363   0.168   5.461  0.1483  0.2626 -0.3909
  114MOL     C329609   0.227   0.133   5.524 -0.1228  0.4902 -0.1263
  114MOL     C429610   0.334   0.203   5.606 -0.7143 -0.0627  0.7698
  114MOL     C529611   0.380   0.212   5.209  0.3427  0.1587  0.0347
  114MOL     H629612   0.291   0.348   5.350 -0.4039 -0.4419 -2.3516
  114MOL     H729613   0.408   0.070   5.445 -0.8860 -0.2655 -0.1107
  114MOL     H829614   0.140   0.188   5.489  0.7005  2.5496  0.9639
  114MOL     H929615   0.205   0.030   5.553  3.2335 -0.2676 -0.0552
  114MOL    H1029616   0.375   0.139   5.683 -0.1731  0.0107  0.5482
  114MOL    H1129617   0.333   0.311   5.623  0.1855  0.0606  0.1075
  114MOL    H1229618   0.316   0.124   5.207 -1.1159  1.1072  2.6597
  114MOL    H1329619   0.482   0.175   5.196  0.1648 -1.5761  2.9624
  114MOL    H1429620   0.466   0.317   5.368 -1.5827  3.3573  1.8994
  114MOL    C1529621   0.336   0.304   5.096  0.2628  0.0803 -0.0980
  114MOL    C1629622   0.422   0.433   5.081  0.1055 -0.5359 -0.7154
  114MOL    C1729623   0.355   0.564   5.045 -0.3174 -0.8524  0.1531
  114MOL    C1829624   0.455   0.501   4.950  0.4082 -0.1425 -0.0766
  114MOL    C1929625   0.333   0.216   4.964  0.7971  0.6382  0.3757
  114MOL    H2029626   0.233   0.321   5.126  0.8706 -1.4038  3.0829
  114MOL    H2129627   0.486   0.455   5.166  0.1327 -1.8419 -0.3811
  114MOL    H2229628   0.396   0.658   5.082 -1.5152  0.2053 -1.1351
  114MOL    H2329629   0.258   0.576   4.997  0.0137 -1.0843 -0.5842
  114MOL    H2429630   0.402   0.469   4.861 -0.8180 -1.5135  1.1261
  114MOL    H2529631   0.555   0.541   4.935  0.7591 -1.1563 -0.4428
  114MOL    H2629632   0.343   0.109   4.982  0.2779  0.8688  2.1332
  114MOL    H2729633   0.427   0.235   4.913 -0.9513  2.0707 -2.4300
  114MOL    C2829634   0.214   0.244   4.867 -0.5426  0.1719 -0.0005
  114MOL    C2929635   0.081   0.193   4.930 -0.8695 -0.3647  0.5729
  114MOL    C3029636   7.827   0.283   5.001 -0.1456 -0.1419 -0.3167
  114MOL    C3129637   7.780   0.220   4.873  0.8017 -0.0669 -0.8696
  114MOL    C3229638   0.234   0.177   4.729 -0.5342  0.2348  0.2314
  114MOL    H3329639   0.210   0.353   4.866  0.1312  0.2275  1.5785
  114MOL    H3429640   0.096   0.090   4.959 -0.4997 -0.5461 -0.2583
  114MOL    H3529641   0.030   0.382   4.987  0.1263 -0.3771 -1.1916
  114MOL    H3629642   7.775   0.265   5.095  2.1510 -1.8107  0.6660
  114MOL    H3729643   7.779   0.275   4.779 -0.5718 -2.6737 -2.4269
  114MOL    H3829644   7.706   0.141   4.871  0.4632  0.0941  2.2049
  114MOL    H3929645   0.180   0.082   4.724  1.5258 -0.9518 -0.2256
  114MOL    H4029646   0.340   0.152   4.717 -0.8615 -0.2897 -1.8959
  114MOL    C4129647   0.199   0.259   4.599 -0.2602  1.2450 -0.4052
  114MOL    C4229648   0.169   0.170   4.476  0.8249 -0.2909  0.1092
  114MOL    C4329649   0.064   0.203   4.372 -0.1815 -0.3240 -0.4787
  114MOL    C4429650   0.041   0.095   4.477  0.0550  0.3316 -0.5011
  114MOL    C4529651   0.312   0.367   4.572 -0.0603  0.5350  0.3420
  114MOL    H4629652   0.111   0.323   4.597 -0.0595  1.5694  0.8973
  114MOL    H4729653   0.262   0.127   4.439  0.8684 -0.3969  0.3371
  114MOL    H4829654   0.025   0.304   4.390 -1.0552 -0.3252 -2.2198
  114MOL    H4929655   0.059   0.183   4.265 -1.3166  0.0348 -0.4996
  114MOL    H5029656   0.055   7.830   4.448 -1.3672  0.1982 -0.7128
  114MOL    H5129657   7.801   0.125   4.545  2.1412  0.7118  1.8517
  114MOL    H5229658   0.368   0.326   4.488  0.0588  0.9651  0.2096
  114MOL    H5329659   0.380   0.377   4.657  1.1595  2.2357 -0.7929
  114MOL    C5429660   0.264   0.502   4.518  0.9355 -0.3199 -0.3858
  114MOL    C5529661   0.192   0.580   4.625 -0.3692 -0.2293  0.3572
  114MOL    C5629662   0.046   0.569   4.663  0.1984  0.4375 -0.0722
  114MOL    C5729663   0.097   0.686   4.582 -0.1642 -0.1986  0.0117
  114MOL    C5829664   0.385   0.586   4.459 -0.7921 -0.1169 -0.6386
  114MOL    H5929665   0.191   0.482   4.440  1.5078 -0.7475 -0.8176
  114MOL    H6029666   0.263   0.609   4.703 -1.1470  0.6960  0.7290
  114MOL    H6129667   7.823   0.495   4.613  0.5659  0.9609 -1.3351
  114MOL    H6229668   0.034   0.592   4.769  0.0905 -2.6859  0.6196
  114MOL    H6329669   0.104   0.777   4.640 -1.9527 -1.2892  2.0142
  114MOL    H6429670   0.069   0.691   4.477  1.4115  0.2127 -0.4045
  114MOL    H6529671   0.336   0.683   4.448 -1.4516 -0.8397 -4.7097
  114MOL    H6629672   0.451   0.618   4.540  0.4223  0.1725 -1.7188
  114MOL    C6729673   0.446   0.544   4.324  0.1618 -0.2488  0.4896
  114MOL    C6829674   0.334   0.545   4.217 -0.1284  0.5684 -0.2228
  114MOL    C6929675   0.359   0.468   4.091  0.2330 -0.0013  0.9674
  114MOL    C7029676   0.266   0.415   4.193 -0.4829  0.6281  0.8935
  114MOL    C7129677   0.563   0.635   4.286  0.3141 -0.3090 -0.5331
  114MOL    H7229678   0.478   0.440   4.328 -0.8026 -0.5885 -0.3003
  114MOL    H7329679   0.272   0.634   4.207 -3.9564 -2.0043 -0.9372
  114MOL    H7429680   0.297   0.496   4.007  0.9430  2.0410  1.0957
  114MOL    H7529681   0.450   0.412   4.074  0.6170  0.5075  1.3417
  114MOL    H7629682   0.296   0.327   4.249 -1.8799 -1.1581 -1.0451
  114MOL    H7729683   0.159   0.422   4.170 -0.4361  0.7659  0.7129
  114MOL    H7829684   0.535   0.740   4.291 -0.1507 -0.5080  1.8988
  114MOL    H7929685   0.562   0.621   4.178  1.0139 -1.4107 -0.4084
  114MOL    C8029686   0.707   0.601   4.341 -0.3179 -0.3486 -0.0392
  114MOL    C8129687   0.709   0.592   4.493  0.1973  0.2919  0.7453
  114MOL    C8229688   0.826   0.525   4.564  0.2447  0.2319 -0.1936
  114MOL    C8329689   0.682   0.469   4.570  0.0369 -0.0872 -0.1652
  114MOL    C8429690   0.819   0.701   4.300  0.5097  0.2342 -0.3633
  114MOL    H8529691   0.742   0.508   4.295  0.7968 -0.8133  1.6817
  114MOL    H8629692   0.691   0.683   4.550 -0.2369 -0.4775  1.8688
  114MOL    H8729693   0.863   0.572   4.655  0.0949 -0.4809  0.2463
  114MOL    H8829694   0.896   0.459   4.512  0.7106 -1.3797  2.3749
  114MOL    H8929695   0.659   0.378   4.516 -3.2914 -0.3808  1.6298
  114MOL    H9029696   0.650   0.472   4.674  1.2654 -0.7016  0.2448
  114MOL    H9129697   0.772   0.798   4.319 -1.4124 -0.7515  0.0020
  114MOL    H9229698   0.912   0.690   4.356 -0.2472  1.8977  1.2729
  114MOL    C9329699   0.853   0.698   4.148  0.3922  0.6578  0.4844
  114MOL    C9429700   0.888   0.841   4.101  0.0080 -0.2678 -0.2198
  114MOL    C9529701   0.888   0.884   3.954 -0.0157  0.1687  0.5977
  114MOL    C9629702   0.785   0.940   4.049 -0.4001 -0.1426 -0.8379
  114MOL    C9729703   0.956   0.587   4.126 -0.6938 -0.4038  0.0346
  114MOL    H9829704   0.757   0.670   4.105  0.8626 -1.4841  0.7311
  114MOL    H9929705   0.962   0.890   4.163  0.0224 -0.2569 -0.2459
  114MOL   H10029706   0.979   0.942   3.941  1.0009 -1.5698 -0.1629
  114MOL   H10129707   0.855   0.819   3.874  1.1115  1.0782 -0.6179
  114MOL   H10229708   0.794   1.040   4.090  0.5150 -0.6908  0.3346
  114MOL   H10329709   0.680   0.913   4.040 -0.2752 -0.8036 -0.3778
  114MOL   H10429710   0.937   0.496   4.182 -0.4321 -0.8765 -0.6422
  114MOL   H10529711   1.048   0.623   4.172 -0.3593  1.1314 -1.7692
  114MOL   C10629712   0.958   0.547   3.973 -0.1684 -0.2970 -0.0040
  114MOL   C10729713   1.092   0.480   3.939 -0.0560 -0.3048 -0.1508
  114MOL   C10829714   1.165   0.521   3.806  0.5342 -0.6250 -1.2534
  114MOL   C10929715   1.224   0.547   3.943  0.2147  0.4340  0.1008
  114MOL   C11029716   0.845   0.452   3.920  0.4712 -0.0629 -0.1312
  114MOL   H11129717   0.960   0.637   3.913  0.3165 -0.7583 -0.6904
  114MOL   H11229718   1.105   0.375   3.963  0.8751 -0.3184 -0.6748
  114MOL   H11329719   1.202   0.436   3.750  1.4533 -0.0984 -1.4519
  114MOL   H11429720   1.146   0.613   3.752 -1.2583 -1.3089 -1.8416
  114MOL   H11529721   1.224   0.645   3.989  2.4021  1.2166 -1.4396
  114MOL   H11629722   1.309   0.482   3.965  1.5187  1.2327 -2.3309
  114MOL   H11729723   0.857   0.371   3.993  0.3384  0.0557  0.0232
  114MOL   H11829724   0.743   0.488   3.933  0.6428 -0.3049  2.2118
  114MOL   C11929725   0.863   0.386   3.775 -0.1624 -0.4611  1.0416
  114MOL   C12029726   0.759   0.274   3.747  1.1361 -0.1809 -0.2013
  114MOL   C12129727   0.784   0.137   3.787  0.4419 -0.8337  0.1497
  114MOL   C12229728   0.788   0.174   3.635  0.2468  0.2353 -0.5331
  114MOL   C12329729   0.870   0.485   3.650  0.4629  0.2234 -0.6679
  114MOL   H12429730   0.962   0.342   3.785  0.3324 -0.0180 -1.6153
  114MOL   H12529731   0.657   0.301   3.774  1.8773  0.1484  2.3512
  114MOL   H12629732   0.697   0.085   3.826 -1.2981  0.1694 -2.2660
  114MOL   H12729733   0.879   0.105   3.830  0.9839  0.6783  0.0911
  114MOL   H12829734   0.886   0.191   3.592  0.6665  3.0938  1.4278
  114MOL   H12929735   0.702   0.147   3.573 -1.8044 -0.0356  2.3291
  114MOL   H13029736   0.950   0.558   3.658  0.4834  0.1735 -0.3970
  114MOL   H13129737   0.906   0.435   3.560  0.5894 -0.6331 -0.1504
  114MOL   C13229738   0.733   0.540   3.607  0.1532  0.0882  0.5860
  114MOL   C13329739   0.721   0.549   3.452 -0.5411 -0.1855 -0.0548
  114MOL   C13429740   0.603   0.491   3.377 -0.2598 -0.1563  0.6140
  114MOL   C13529741   0.736   0.429   3.360  0.4074  0.3351  0.0121
  114MOL   C13629742   0.702   0.676   3.674  0.5658 -0.0203 -0.0468
  114MOL   H13729743   0.655   0.473   3.642  2.9600 -3.2622  0.7507
  114MOL   H13829744   0.758   0.639   3.403  1.7219 -0.9196  0.2157
  114MOL   H13929745   0.524   0.442   3.433  0.8530 -2.1029  0.4940
  114MOL   H14029746   0.567   0.555   3.297 -0.4898 -0.9384  0.0967
  114MOL   H14129747   0.745   0.329   3.402 -3.3830  0.9342  2.5240
  114MOL   H14229748   0.781   0.460   3.266  1.6977 -1.2326  0.0955
  114MOL   H14329749   0.723   0.676   3.781  3.0363 -0.9848 -0.5058
  114MOL   H14429750   0.764   0.752   3.627 -1.5611  0.2145 -2.5778
  114MOL   C14529751   0.561   0.733   3.654 -0.8116 -0.0243 -0.0012
  114MOL   C14629752   0.456   0.673   3.749  0.2663 -0.4551 -0.1121
  114MOL   C14729753   0.307   0.669   3.719 -0.0095 -0.0109 -0.2927
  114MOL   C14829754   0.393   0.543   3.708 -0.0150  0.1239 -0.4013
  114MOL   C14929755   0.566   0.892   3.672 -0.4125 -0.3576  0.0561
  114MOL   H15029756   0.520   0.717   3.554  0.6072  1.0012 -0.7702
  114MOL   H15129757   0.479   0.691   3.853 -1.6533  1.5620  0.0050
  114MOL   H15229758   0.249   0.694   3.808  0.9527 -2.0716  0.9466
  114MOL   H15329759   0.269   0.716   3.629  0.1055  0.8694  0.1089
  114MOL   H15429760   0.414   0.511   3.606 -1.0067 -2.2019  0.0938
  114MOL   H15529761   0.397   0.460   3.778 -2.5386  0.9737  0.7847
  114MOL   H15629762   0.465   0.926   3.694 -1.6948 -2.3006 -2.5810
  114MOL   H15729763   0.618   0.912   3.766 -1.1648 -0.1913  0.4421
  114MOL   C15829764   0.633   0.966   3.550  0.7235 -0.0118 -0.3407
  114MOL   C15929765   0.720   1.086   3.600 -0.0593 -0.5450 -0.3465
  114MOL   C16029766   0.850   1.059   3.655  0.1778  0.1955  0.5095
  114MOL   C16129767   0.841   1.137   3.522  0.3118  0.7782 -0.5359
  114MOL   C16229768   0.515   1.009   3.453  0.5409 -0.4706 -0.4355
  114MOL   H16329769   0.709   0.904   3.501  0.0099 -0.5788 -0.7405
  114MOL   H16429770   0.660   1.160   3.653  1.2537  1.0693 -1.0259
  114MOL   H16529771   0.897   0.962   3.639  0.5293  0.5060 -0.3849
  114MOL   H16629772   0.873   1.111   3.747  0.2017  2.3115 -0.6683
  114MOL   H16729773   0.874   1.241   3.527  4.1568 -0.3630 -0.6560
  114MOL   H16829774   0.882   1.086   3.436  1.5056  0.4483  0.2106
  114MOL   H16929775   0.457   1.094   3.488 -0.0352 -1.5266  1.2443
  114MOL   H17029776   0.438   0.933   3.464 -0.5948  0.5729 -1.1273
  114MOL   C17129777   0.539   1.026   3.299 -0.5408 -0.6979 -0.1794
  114MOL   C17229778   0.598   1.162   3.266 -0.3991  0.7740 -0.6967
  114MOL   C17329779   0.579   1.227   3.130 -0.0004 -0.3237 -0.2745
  114MOL   C17429780   0.514   1.282   3.248 -0.3940  0.2885 -0.3360
  114MOL   C17529781   0.639   0.921   3.243 -0.0384  0.7400 -0.2492
  114MOL   H17629782   0.445   1.028   3.244 -2.7079  0.4738  3.4160
  114MOL   H17729783   0.692   1.185   3.315 -0.6505  0.6306 -0.1412
  114MOL   H17829784   0.659   1.287   3.087 -0.2687 -0.8261 -1.5135
  114MOL   H17929785   0.516   1.176   3.057 -0.4474 -1.5083  0.9250
  114MOL   H18029786   0.406   1.281   3.234 -0.9417 -1.9584  3.4099
  114MOL   H18129787   0.556   1.375   3.286  1.9981 -1.3386  1.1664
  114MOL   H18229788   0.616   0.825   3.288  3.0760 -0.4933 -1.1631
  114MOL   H18329789   0.737   0.957   3.273  0.1210  0.2443 -0.1683
  114MOL   C18429790   0.652   0.898   3.091  0.0561  0.2853 -0.0939
  114MOL   C18529791   0.521   0.840   3.040 -0.5109  0.2227  0.2832
  114MOL   C18629792   0.506   0.836   2.890 -0.0625 -0.4508  0.6188
  114MOL   C18729793   0.419   0.924   2.976  0.0695 -0.0166  0.5895
  114MOL   C18829794   0.775   0.810   3.064  0.6212  0.4404  0.3662
  114MOL   H18929795   0.663   0.995   3.042  0.6020  0.1742 -0.1943
  114MOL   H19029796   0.484   0.755   3.097  0.5475 -2.2031 -2.5151
  114MOL   H19129797   0.448   0.762   2.835 -0.4571  1.9316 -2.2881
  114MOL   H19229798   0.571   0.891   2.823 -0.6313 -0.9754 -0.3821
  114MOL   H19329799   0.318   0.891   3.001  1.0358 -3.4608  0.1864
  114MOL   H19429800   0.430   1.031   2.962 -0.5635  0.3048  2.4040
  114MOL   H19529801   0.791   0.782   2.960  1.7249  0.2734  0.5759
  114MOL   H19629802   0.758   0.714   3.113  3.3031  0.3144  1.1077
  114MOL   C19729803   0.920   0.855   3.105 -0.6039 -0.2309 -0.5844
  114MOL   C19829804   0.964   0.986   3.035 -0.6925  0.5232 -0.5221
  114MOL   C19929805   1.062   1.085   3.101 -0.3903  0.3178 -0.9199
  114MOL   C20029806   0.924   1.128   3.083 -0.1897  0.1297  0.0775
  114MOL   C20129807   1.027   0.745   3.088  0.6649 -0.5826  0.3743
  114MOL   H20229808   0.926   0.878   3.211 -0.9059 -0.4668 -0.5123
  114MOL   H20329809   0.971   0.977   2.927 -1.7747  1.7519 -0.7106
  114MOL   H20429810   1.102   1.073   3.201 -0.9644  1.7321 -0.5014
  114MOL   H20529811   1.129   1.137   3.032  0.1786 -0.4797 -0.9704
  114MOL   H20629812   0.868   1.152   3.173  0.3144 -0.8370  0.6434
  114MOL   H20729813   0.911   1.197   2.999 -1.5131  0.9178  0.9099
  114MOL   H20829814   0.978   0.654   3.122 -0.8086 -0.1166 -0.4777
  114MOL   H20929815   1.049   0.723   2.984 -0.4677 -0.7185  0.1547
  114MOL   C21029816   1.153   0.754   3.175  0.1692 -0.0945 -0.6711
  114MOL   C21129817   1.125   0.710   3.318 -0.8619  0.2488 -0.5440
  114MOL   C21229818   1.230   0.714   3.431  0.4208 -0.1412  0.2720
  114MOL   C21329819   1.108   0.802   3.433 -0.3772  0.9320 -0.5866
  114MOL   C21429820   1.274   0.675   3.114 -0.4187  0.0467  0.3651
  114MOL   H21529821   1.177   0.860   3.181  0.6760 -0.1814 -1.1441
  114MOL   H21629822   1.074   0.614   3.329 -0.5256  0.0958 -0.2905
  114MOL   H21729823   1.245   0.633   3.502 -0.7622  1.0089  1.8573
  114MOL   H21829824   1.323   0.765   3.404  0.5779 -0.7292 -0.3103
  114MOL   H21929825   1.034   0.765   3.504 -0.2121 -0.7642 -1.2580
  114MOL   H22029826   1.131   0.907   3.421  0.4504  1.0478  1.7459
  114MOL   H22129827   1.356   0.675   3.185 -2.4763 -0.4368  2.8418
  114MOL   H22229828   1.250   0.569   3.118 -2.0780  0.2353 -2.4909
  114MOL   C22329829   1.326   0.713   2.977 -0.2270 -0.7197 -0.7426
  114MOL   C22429830   1.443   0.623   2.932 -0.1144 -0.1133  0.1972
  114MOL   C22529831   1.420   0.481   2.891 -0.2566 -0.2854 -0.5386
  114MOL   C22629832   1.465   0.576   2.786 -0.0175  0.3076  0.0673
  114MOL   C22729833   1.350   0.861   2.957  0.2823 -0.1010 -0.2094
  114MOL   H22829834   1.237   0.684   2.920 -0.6042 -0.0615 -0.4949
  114MOL   H22929835   1.526   0.636   3.001 -1.6408  2.0438  1.6804
  114MOL   H23029836   1.315   0.452   2.883 -0.7512  1.6733 -1.7069
  114MOL   H23129837   1.487   0.404   2.929 -1.8059 -1.2886  0.2020
  114MOL   H23229838   1.566   0.579   2.745 -1.3634  0.8796 -3.4236
  114MOL   H23329839   1.396   0.609   2.709  1.6122  0.0043 -1.5583
  114MOL   H23429840   1.302   0.932   3.024  1.0537 -0.3777  0.6423
  114MOL   H23529841   1.454   0.885   2.980  0.3441 -1.6481  1.2284
  114MOL   C23629842   1.338   0.914   2.813  0.6612  0.8349  0.0606
  114MOL   C23729843   1.402   1.049   2.806 -0.1900 -0.1331  0.1507
  114MOL   C23829844   1.550   1.078   2.778  0.1373  0.6369 -0.0746
  114MOL   C23929845   1.449   1.107   2.678 -0.4705  0.4368 -0.0349
  114MOL   C24029846   1.185   0.921   2.770  0.5458 -0.2625  0.0507
  114MOL   H24129847   1.392   0.848   2.745  1.3616  0.3784  1.0424
  114MOL   H24229848   1.368   1.124   2.876  1.4390  0.7282  0.0523
  114MOL   H24329849   1.581   1.157   2.846  1.0974 -1.7856  2.4031
  114MOL   H24429850   1.608   0.986   2.782  0.9701  1.1207 -0.7799
  114MOL   H24529851   1.463   1.046   2.589  0.1263  1.6557 -0.7762
  114MOL   H24629852   1.422   1.211   2.664 -1.9588 -0.3356 -3.3740
  114MOL   H24729853   1.132   0.831   2.803 -2.2093  0.9774 -0.8256
  114MOL   H24829854   1.153   1.010   2.823 -1.1409  0.7117 -2.5015
  114MOL   C24929855   1.162   0.937   2.624  0.5047  0.3537 -0.1437
  114MOL   C25029856   1.022   0.989   2.602  0.0974  0.1137  0.4570
  114MOL   C25129857   0.963   1.012   2.453 -0.1234 -0.0081  0.2784
  114MOL   C25229858   0.913   0.904   2.546 -0.2199 -0.2629  0.3170
  114MOL   C25329859   1.204   0.815   2.548 -1.4288  0.5658 -0.1961
  114MOL   H25429860   1.227   1.015   2.584  0.8094  0.6316  0.8908
  114MOL   H25529861   0.994   1.062   2.678 -0.8904  0.2614 -0.0361
  114MOL   H25629862   0.879   1.076   2.426 -0.7901 -1.8638 -2.2842
  114MOL   H25729863   1.013   0.962   2.370  0.6177 -1.9077  1.8418
  114MOL   H25829864   0.815   0.918   2.592 -0.2773 -2.1671  0.8299
  114MOL   H25929865   0.931   0.799   2.524 -0.5131 -0.8990  2.8920
  114MOL   H26029866   1.309   0.813   2.521 -0.1511 -3.5033  4.2442
  114MOL   H26129867   1.135   0.797   2.466 -0.3080 -2.4162 -0.5564
  114MOL   H26229868   1.187   0.724   2.607 -0.8491 -0.1687 -1.1475
  115MOL     C129869   6.482   5.423   6.497 -0.1354 -0.1172  0.1798
  115MOL     C229870   6.610   5.481   6.567 -0.3284  0.1253  0.4940
  115MOL     C329871   6.752   5.429   6.557  0.1899 -0.0361  0.6640
  115MOL     C429872   6.669   5.385   6.674 -0.5151 -0.5177 -0.1944
  115MOL     C529873   6.450   5.492   6.363 -0.6792  0.1452 -0.2850
  115MOL     H629874   6.499   5.317   6.479 -1.7165 -0.2576 -0.5918
  115MOL     H729875   6.599   5.590   6.573 -1.1269 -0.0247  2.1101
  115MOL     H829876   6.758   5.356   6.477  0.1659 -0.9714  1.5104
  115MOL     H929877   6.827   5.505   6.577 -1.6770  1.3301  2.6872
  115MOL    H1029878   6.688   5.428   6.772 -0.9545 -1.3097  0.2427
  115MOL    H1129879   6.646   5.278   6.668  1.3738 -0.8237 -3.1381
  115MOL    H1229880   6.537   5.470   6.301  1.1769 -1.2032  2.6865
  115MOL    H1329881   6.450   5.600   6.379  1.7876  0.0214  0.8305
  115MOL    H1429882   6.398   5.424   6.566  2.0020  1.7379  2.8557
  115MOL    C1529883   6.322   5.448   6.292  0.0995 -0.6196  0.3065
  115MOL    C1629884   6.310   5.518   6.158  0.1194  0.0729 -0.3229
  115MOL    C1729885   6.347   5.665   6.144  0.1552  0.3754 -0.4863
  115MOL    C1829886   6.205   5.629   6.108 -0.5735  0.0658  0.3552
  115MOL    C1929887   6.305   5.298   6.286  0.8663  0.5799  0.1688
  115MOL    H2029888   6.237   5.478   6.354 -0.1990 -1.9438  0.5527
  115MOL    H2129889   6.349   5.453   6.081  1.0871  0.3910 -0.1081
  115MOL    H2229890   6.401   5.687   6.052 -1.3741 -1.8101 -1.9540
  115MOL    H2329891   6.355   5.739   6.224  4.5566 -0.8439  0.3406
  115MOL    H2429892   6.124   5.673   6.167 -0.3499  1.2487 -0.1941
  115MOL    H2529893   6.174   5.624   6.004 -0.3227  0.1385  0.2758
  115MOL    H2629894   6.304   5.263   6.389  0.5541  0.6155  0.1762
  115MOL    H2729895   6.403   5.264   6.253  1.0464 -0.7296  1.9724
  115MOL    C2829896   6.195   5.237   6.207 -0.6705  0.6926  0.0415
  115MOL    C2929897   6.050   5.251   6.259 -0.4680  0.5173  0.5638
  115MOL    C3029898   5.970   5.375   6.251  0.4667 -0.0121  0.3879
  115MOL    C3129899   5.938   5.254   6.155 -0.4802  0.6663  0.5029
  115MOL    C3229900   6.234   5.090   6.170 -0.7341 -0.2663  0.4479
  115MOL    H3329901   6.207   5.283   6.108 -0.1868 -1.5017 -0.9470
  115MOL    H3429902   6.029   5.193   6.348 -1.7850  2.4758  1.5640
  115MOL    H3529903   6.004   5.466   6.203 -0.9612  0.9566  1.1933
  115MOL    H3629904   5.910   5.385   6.341  1.3607 -0.3513  1.0208
  115MOL    H3729905   5.966   5.269   6.052  0.9751  2.0046  1.0823
  115MOL    H3829906   5.838   5.214   6.173  0.0555  0.4891  3.3664
  115MOL    H3929907   6.143   5.032   6.155 -0.3479 -0.4316 -1.4219
  115MOL    H4029908   6.265   5.028   6.254 -0.2014 -1.6872 -0.7758
  115MOL    C4129909   6.314   5.076   6.043 -0.0187  0.0310  1.0268
  115MOL    C4229910   6.233   5.104   5.917  0.5692  0.5345  0.0349
  115MOL    C4329911   6.296   5.108   5.780 -0.0291 -0.0787 -0.0444
  115MOL    C4429912   6.236   5.236   5.846 -0.0344  0.0540 -0.7267
  115MOL    C4529913   6.369   4.930   6.029 -0.0286  0.0242  0.1484
  115MOL    H4629914   6.398   5.146   6.043 -0.4132  0.5042 -0.1741
  115MOL    H4729915   6.133   5.062   5.933  0.8052  1.2845  3.8881
  115MOL    H4829916   6.403   5.108   5.764 -0.0449  1.6400 -0.2093
  115MOL    H4929917   6.235   5.076   5.695  1.6766 -2.4681 -0.4119
  115MOL    H5029918   6.134   5.272   5.831 -0.4447 -0.4064  0.8766
  115MOL    H5129919   6.313   5.300   5.887 -0.1165  1.4031 -2.6525
  115MOL    H5229920   6.405   4.928   5.926 -0.5414  1.3814 -0.0756
  115MOL    H5329921   6.294   4.850   6.028  0.6589 -0.6185 -0.1569
  115MOL    C5429922   6.494   4.884   6.111 -0.3317 -0.3079 -0.5675
  115MOL    C5529923   6.470   4.886   6.268  0.0083  0.3915  0.4994
  115MOL    C5629924   6.517   5.007   6.349 -0.6566  0.3481  0.0575
  115MOL    C5729925   6.599   4.883   6.352 -0.2422  0.1867  0.1974
  115MOL    C5829926   6.546   4.749   6.067  0.6717  0.8540  0.1210
  115MOL    H5929927   6.576   4.950   6.085 -1.8509  1.3495 -1.2870
  115MOL    H6029928   6.385   4.830   6.305  0.0960  0.5822  0.9915
  115MOL    H6129929   6.541   5.088   6.280 -1.1643 -0.2757 -0.8669
  115MOL    H6229930   6.446   5.031   6.427 -0.6129 -2.1854  0.9140
  115MOL    H6329931   6.594   4.833   6.448  0.2159  0.8565  0.5683
  115MOL    H6429932   6.694   4.908   6.306 -1.0392  1.4947 -0.7676
  115MOL    H6529933   6.613   4.713   6.146 -0.0507  0.1879  0.4264
  115MOL    H6629934   6.467   4.677   6.087  1.4077 -0.2123 -0.7561
  115MOL    C6729935   6.621   4.726   5.938  0.2990 -0.8919  0.8944
  115MOL    C6829936   6.747   4.815   5.935 -0.0005  0.3487 -0.1247
  115MOL    C6929937   6.830   4.803   5.805 -0.1842  0.0836 -0.2403
  115MOL    C7029938   6.765   4.932   5.844 -0.2720  0.0032 -0.2718
  115MOL    C7129939   6.661   4.572   5.915  0.5010  0.2549  0.5523
  115MOL    H7229940   6.562   4.764   5.856 -0.7554 -0.5341  1.8095
  115MOL    H7329941   6.809   4.815   6.024 -0.2122  0.8368  0.0270
  115MOL    H7429942   6.938   4.788   5.813  0.0411  1.8814  0.2242
  115MOL    H7529943   6.792   4.768   5.709  0.4273  0.5184 -0.6495
  115MOL    H7629944   6.679   4.955   5.781  0.2549 -2.0279 -1.8069
  115MOL    H7729945   6.821   5.017   5.882  0.5068 -0.8700  0.5655
  115MOL    H7829946   6.718   4.553   6.006  0.0996 -1.5422  0.4576
  115MOL    H7929947   6.725   4.559   5.829  1.2357  2.1807  0.7805
  115MOL    C8029948   6.533   4.480   5.900 -0.0639  0.3124 -0.2208
  115MOL    C8129949   6.572   4.332   5.911 -0.4046  0.0986  0.2072
  115MOL    C8229950   6.476   4.220   5.947 -0.1708 -0.9041  0.2999
  115MOL    C8329951   6.584   4.277   6.053  0.1832  0.2018  0.3124
  115MOL    C8429952   6.454   4.515   5.768 -0.1048 -0.1376 -0.8773
  115MOL    H8529953   6.466   4.490   5.986  0.7080  0.2869  0.3878
  115MOL    H8629954   6.646   4.304   5.836 -2.6635 -0.5181 -1.8426
  115MOL    H8729955   6.488   4.125   5.895 -3.4908 -1.3925  0.3265
  115MOL    H8829956   6.373   4.227   5.980 -0.4428  0.7418 -0.8576
  115MOL    H8929957   6.551   4.339   6.136  0.1516 -2.9043  2.6837
  115MOL    H9029958   6.657   4.203   6.083  0.9847  0.3256 -1.2798
  115MOL    H9129959   6.515   4.570   5.696  0.1410 -1.0264 -1.3642
  115MOL    H9229960   6.453   4.419   5.716  1.3621 -0.3839 -0.4988
  115MOL    C9329961   6.315   4.566   5.791 -0.5532  0.3553 -0.9362
  115MOL    C9429962   6.286   4.635   5.656 -1.0075  0.2202  0.8075
  115MOL    C9529963   6.198   4.758   5.662 -0.1478 -0.0281 -0.2122
  115MOL    C9629964   6.342   4.768   5.628 -0.4366  0.2066 -0.4252
  115MOL    C9729965   6.214   4.450   5.820 -0.0093 -0.9765 -0.8492
  115MOL    H9829966   6.316   4.642   5.869  0.5386 -0.7889  0.1832
  115MOL    H9929967   6.271   4.571   5.570  0.8819  0.6892  0.1204
  115MOL   H10029968   6.123   4.772   5.584 -2.8130 -1.0961  2.1019
  115MOL   H10129969   6.159   4.796   5.756  0.0839 -2.5607  0.9254
  115MOL   H10229970   6.375   4.801   5.530  0.6785 -1.1574 -0.5194
  115MOL   H10329971   6.390   4.821   5.710  1.1578 -0.7495 -0.7192
  115MOL   H10429972   6.250   4.373   5.889 -0.3469 -1.3171 -1.0532
  115MOL   H10529973   6.195   4.392   5.729 -1.9639 -1.7003 -0.0194
  115MOL   C10629974   6.079   4.495   5.881 -0.5674 -0.5918 -0.0322
  115MOL   C10729975   5.982   4.381   5.856  0.5641  1.0121  0.6897
  115MOL   C10829976   5.845   4.420   5.819  0.2353  0.0287  0.2487
  115MOL   C10929977   5.926   4.344   5.718  0.3874 -0.2140  0.0066
  115MOL   C11029978   6.099   4.521   6.032 -0.9738  0.8990 -0.4849
  115MOL   H11129979   6.047   4.583   5.825 -4.5672 -0.5120  2.2152
  115MOL   H11229980   5.987   4.304   5.933 -1.4034  1.3417  1.1530
  115MOL   H11329981   5.763   4.362   5.861  0.2355 -0.8987 -0.9776
  115MOL   H11429982   5.825   4.519   5.780  2.5152  0.6509  0.5841
  115MOL   H11529983   5.977   4.389   5.634 -1.8140 -0.9441 -1.7828
  115MOL   H11629984   5.898   4.240   5.706  1.7158 -0.5523 -0.2349
  115MOL   H11729985   6.126   4.424   6.073 -0.6707  0.1167 -2.4598
  115MOL   H11829986   6.192   4.578   6.034 -1.5006  1.7471  0.1541
  115MOL   C11929987   5.985   4.591   6.117  0.3026 -0.5507 -0.1839
  115MOL   C12029988   6.002   4.563   6.263  0.2819 -0.0365  0.7019
  115MOL   C12129989   5.975   4.426   6.316 -0.8662  0.0637  0.2834
  115MOL   C12229990   5.879   4.551   6.344  0.8254  0.4752 -0.2056
  115MOL   C12329991   6.004   4.740   6.099 -0.3630  0.0764  0.4558
  115MOL   H12429992   5.887   4.563   6.078  0.1527  0.9738 -0.9676
  115MOL   H12529993   6.083   4.623   6.304 -0.2237  2.3540 -1.6400
  115MOL   H12629994   6.032   4.382   6.397  1.0089  1.0069 -0.4809
  115MOL   H12729995   5.949   4.347   6.246  0.3993 -0.4321  0.3674
  115MOL   H12829996   5.785   4.559   6.290 -1.0152 -0.4658  2.7294
  115MOL   H12929997   5.881   4.606   6.438 -2.4291  0.5168 -0.0837
  115MOL   H13029998   6.096   4.774   6.147 -1.5872  1.2037  2.0424
  115MOL   H13129999   6.023   4.745   5.992 -0.9466  0.8906  0.3891
  115MOL   C13230000   5.884   4.830   6.128 -0.4975 -0.1946 -0.5803
  115MOL   C13330001   5.857   4.928   6.009 -0.5548  0.1641  0.6210
  115MOL   C13430002   5.722   4.969   5.951 -0.5418 -0.5099  0.2799
  115MOL   C13530003   5.823   4.885   5.878 -0.4535  0.3845 -0.1233
  115MOL   C13630004   5.884   4.899   6.264  0.6371 -0.1489 -0.6038
  115MOL   H13730005   5.798   4.763   6.131 -1.1309  0.4369 -3.3616
  115MOL   H13830006   5.922   5.015   6.017 -1.0556  0.6451 -0.5283
  115MOL   H13930007   5.632   4.917   5.984 -2.0402  1.2790 -0.9113
  115MOL   H14030008   5.705   5.069   5.912 -0.9090 -0.4296  0.6449
  115MOL   H14130009   5.795   4.781   5.862  0.4998  0.0789  0.2109
  115MOL   H14230010   5.855   4.929   5.783  0.4994 -1.0394 -0.4641
  115MOL   H14330011   5.915   4.823   6.335 -0.6872 -0.7426 -0.6480
  115MOL   H14430012   5.963   4.974   6.257  0.8213  0.0127  2.5694
  115MOL   C14530013   5.751   4.949   6.310  0.4261  0.2373 -0.3251
  115MOL   C14630014   5.657   4.832   6.357  0.3482 -0.1884  0.4291
  115MOL   C14730015   5.506   4.854   6.371  0.8647 -0.0357  0.2566
  115MOL   C14830016   5.560   4.771   6.254  0.3880  0.2138  0.0955
  115MOL   C14930017   5.755   5.064   6.415 -0.3363  0.0170  0.7267
  115MOL   H15030018   5.705   4.988   6.219  2.7594 -1.1665 -2.1628
  115MOL   H15130019   5.696   4.756   6.424 -0.0286 -0.8150 -0.0505
  115MOL   H15230020   5.455   4.807   6.454  0.8612 -2.4825 -1.0753
  115MOL   H15330021   5.471   4.953   6.342  0.9232 -0.2390 -0.5233
  115MOL   H15430022   5.542   4.817   6.157 -0.4368 -1.6829 -0.6629
  115MOL   H15530023   5.546   4.664   6.259 -0.8892  0.2515 -2.1484
  115MOL   H15630024   5.818   5.150   6.390 -1.4484  0.7738  0.4290
  115MOL   H15730025   5.652   5.098   6.403 -0.6616 -0.0940  3.0852
  115MOL   C15830026   5.773   5.028   6.565 -0.5029 -0.1242 -0.4514
  115MOL   C15930027   5.761   5.170   6.631  1.0993 -0.8803 -0.0383
  115MOL   C16030028   5.631   5.232   6.653  0.3864  0.5119  0.8410
  115MOL   C16130029   5.709   5.184   6.773 -0.5358 -0.7552  0.0131
  115MOL   C16230030   5.912   4.980   6.604 -0.4956 -0.1765 -0.0577
  115MOL   H16330031   5.695   4.956   6.589  0.1431 -0.8781 -0.5939
  115MOL   H16430032   5.839   5.234   6.592 -0.5119  0.7720 -0.5916
  115MOL   H16530033   5.545   5.170   6.626  0.9986 -0.5840  1.3824
  115MOL   H16630034   5.629   5.333   6.614 -1.5696  0.8286  1.7096
  115MOL   H16730035   5.741   5.261   6.843  0.1630 -0.5621 -0.5146
  115MOL   H16830036   5.673   5.087   6.806  0.8505 -2.0159 -2.0982
  115MOL   H16930037   5.989   5.057   6.605  0.3304 -1.0168  2.2318
  115MOL   H17030038   5.959   4.930   6.519  2.3977 -0.1156  1.4605
  115MOL   C17130039   5.913   4.897   6.738  1.0874  0.4825 -0.2235
  115MOL   C17230040   5.886   4.745   6.722 -0.1460  0.2236 -0.2554
  115MOL   C17330041   5.832   4.654   6.834  0.2377 -0.0669 -0.0068
  115MOL   C17430042   5.749   4.686   6.709  0.6011 -0.4358 -0.1760
  115MOL   C17530043   6.054   4.918   6.796 -0.4107  0.4603 -0.1010
  115MOL   H17630044   5.844   4.937   6.812  0.0028 -2.2036  0.2665
  115MOL   H17730045   5.963   4.705   6.656  1.2882 -1.1946  2.1525
  115MOL   H17830046   5.865   4.552   6.853 -0.5582 -0.8148 -2.3968
  115MOL   H17930047   5.793   4.711   6.918  1.0412  0.8268 -0.2418
  115MOL   H18030048   5.662   4.748   6.731 -0.3381 -1.4739 -0.9090
  115MOL   H18130049   5.732   4.622   6.622 -0.7460  0.3348 -0.4859
  115MOL   H18230050   6.123   4.876   6.723 -0.6586 -0.1159 -0.0050
  115MOL   H18330051   6.077   4.843   6.871 -0.6400 -1.0927 -1.5481
  115MOL   C18430052   6.093   5.057   6.857 -0.8233  0.4426  0.0133
  115MOL   C18530053   6.250   5.070   6.858  0.2511 -0.9171  0.5813
  115MOL   C18630054   6.310   5.206   6.844 -0.2428  0.2913  0.1154
  115MOL   C18730055   6.310   5.113   6.724 -0.1940 -0.2330  0.9308
  115MOL   C18830056   6.025   5.063   6.994 -0.2384 -0.1914  0.8701
  115MOL   H18930057   6.043   5.133   6.796 -0.0911  0.9041 -0.0107
  115MOL   H19030058   6.301   5.004   6.928  1.1763 -2.9816 -1.9780
  115MOL   H19130059   6.407   5.218   6.892 -0.2912 -0.6631  0.4729
  115MOL   H19230060   6.247   5.294   6.851  0.5268  0.9067 -0.6546
  115MOL   H19330061   6.408   5.073   6.698 -1.1275 -1.0041 -1.5670
  115MOL   H19430062   6.252   5.146   6.639  0.5571  2.2733  1.3586
  115MOL   H19530063   6.055   4.974   7.049  0.6079 -0.8265 -0.6184
  115MOL   H19630064   5.919   5.039   6.987  0.0070 -0.6725 -1.2451
  115MOL   C19730065   6.041   5.192   7.075  0.0723  0.0715 -0.2612
  115MOL   C19830066   5.998   5.161   7.217 -0.9023 -0.0248  0.2665
  115MOL   C19930067   6.050   5.228   7.336  0.0297 -0.5752  0.4454
  115MOL   C20030068   6.089   5.084   7.314 -0.2482  0.6246  1.2012
  115MOL   C20130069   5.956   5.301   7.016  0.3141  0.1380  0.6233
  115MOL   H20230070   6.144   5.227   7.079 -0.7601  2.6716 -0.2295
  115MOL   H20330071   5.895   5.125   7.224  0.3241 -3.8891 -0.2811
  115MOL   H20430072   6.122   5.308   7.323 -2.9585  2.3982  1.5371
  115MOL   H20530073   5.975   5.256   7.411  0.9435  1.0979  0.7458
  115MOL   H20630074   6.189   5.068   7.276  1.4502  3.2364  4.3717
  115MOL   H20730075   6.043   4.997   7.359  1.2408 -2.0797 -2.2662
  115MOL   H20830076   5.960   5.302   6.907 -2.7761  2.7299  0.4465
  115MOL   H20930077   5.850   5.286   7.035  0.4349 -0.9419  0.4503
  115MOL   C21030078   5.988   5.447   7.059  0.1685  0.0361 -0.0862
  115MOL   C21130079   6.126   5.490   7.010  0.0961 -0.0518  0.2592
  115MOL   C21230080   6.199   5.606   7.073 -0.0226 -0.7961  0.2823
  115MOL   C21330081   6.246   5.468   7.089 -0.2091 -0.6371 -0.0304
  115MOL   C21430082   5.886   5.555   7.008 -0.6394  0.2146 -0.0119
  115MOL   H21530083   5.987   5.455   7.168  1.9342  0.3816 -0.0736
  115MOL   H21630084   6.141   5.486   6.903  2.2360  0.0083  0.5402
  115MOL   H21730085   6.255   5.672   7.007 -0.6405 -0.2318  0.3059
  115MOL   H21830086   6.144   5.662   7.148  2.5012  1.9458  0.2010
  115MOL   H21930087   6.336   5.449   7.030 -0.9664  1.4109 -1.9071
  115MOL   H22030088   6.241   5.423   7.188  1.3529  1.4145  1.0328
  115MOL   H22130089   5.911   5.653   7.047 -0.3871  0.6047 -1.1565
  115MOL   H22230090   5.891   5.562   6.899  1.1209 -3.7814 -0.3118
  115MOL   C22330091   5.733   5.544   7.052 -0.1427  0.3383 -0.0070
  115MOL   C22430092   5.679   5.668   6.996  0.0647  0.0958  0.6347
  115MOL   C22530093   5.662   5.695   6.846  1.2174  0.1179 -0.2608
  115MOL   C22630094   5.536   5.677   6.936  0.8501 -0.2254  0.6604
  115MOL   C22730095   5.708   5.517   7.204 -0.1504  0.8645 -0.4046
  115MOL   H22830096   5.691   5.466   6.988 -1.9289  0.2126  1.2875
  115MOL   H22930097   5.703   5.757   7.055  2.8474 -0.7739  0.8568
  115MOL   H23030098   5.685   5.619   6.772  0.9499 -0.2929  0.0763
  115MOL   H23130099   5.689   5.796   6.815 -0.2343  0.1174 -1.6173
  115MOL   H23230100   5.487   5.772   6.955  0.3911 -0.1645 -0.8042
  115MOL   H23330101   5.473   5.592   6.912  0.5487  0.7039 -2.0014
  115MOL   H23430102   5.744   5.415   7.216 -0.2403  0.9927  1.1015
  115MOL   H23530103   5.768   5.575   7.274  2.5657  1.2689 -2.9778
  115MOL   C23630104   5.561   5.529   7.258  0.0115 -0.0766 -0.3203
  115MOL   C23730105   5.563   5.513   7.406 -0.7033 -0.0611 -0.0676
  115MOL   C23830106   5.606   5.612   7.504  0.0241  0.4471  1.0674
  115MOL   C23930107   5.461   5.571   7.503  0.9496 -0.3168  0.3067
  115MOL   C24030108   5.468   5.431   7.189  0.2971  0.1740 -0.0890
  115MOL   H24130109   5.530   5.631   7.235  0.4947  0.1903  0.1893
  115MOL   H24230110   5.577   5.408   7.433 -0.9212  0.1056  0.6982
  115MOL   H24330111   5.669   5.574   7.584  1.1432  0.0953  0.0301
  115MOL   H24430112   5.631   5.712   7.471  0.8040 -0.6696 -1.8679
  115MOL   H24530113   5.383   5.642   7.476  1.2670 -0.3627 -0.7342
  115MOL   H24630114   5.446   5.509   7.591  1.4321 -2.5877 -1.1943
  115MOL   H24730115   5.505   5.411   7.088  1.0273  1.8777 -0.1869
  115MOL   H24830116   5.478   5.335   7.239 -1.1469  0.6075  1.0735
  115MOL   C24930117   5.317   5.460   7.202 -0.8854  0.5372 -0.1835
  115MOL   C25030118   5.230   5.334   7.182 -0.4383 -0.5890 -0.0117
  115MOL   C25130119   5.193   5.256   7.293 -0.3272  0.2354  0.4214
  115MOL   C25230120   5.084   5.323   7.223  0.3466 -0.1552 -0.2598
  115MOL   C25330121   5.264   5.576   7.108 -0.2808  0.2074 -0.5741
  115MOL   H25430122   5.303   5.488   7.307  1.5598  0.6536  0.1395
  115MOL   H25530123   5.255   5.288   7.087 -0.7658 -0.0610 -0.3607
  115MOL   H25630124   5.192   5.149   7.275 -1.6242  0.6248 -2.0818
  115MOL   H25730125   5.217   5.276   7.397  0.9058  0.9860  0.0065
  115MOL   H25830126   5.018   5.265   7.158  0.3167  0.0333 -0.3945
  115MOL   H25930127   5.036   5.407   7.272 -2.0866 -1.0183 -1.0875
  115MOL   H26030128   5.164   5.612   7.132 -0.9294 -1.1534 -1.1572
  115MOL   H26130129   5.250   5.530   7.010 -0.5976  2.9589 -1.8640
  115MOL   H26230130   5.335   5.658   7.118 -3.3075  2.9150 -0.6423
  116MOL     C130131   0.031   7.557   5.221  0.2015  0.4628  0.2692
  116MOL     C230132   0.037   7.703   5.175  0.3227  0.0616  0.8382
  116MOL     C330133   7.827   7.818   5.266  0.2594 -0.2717 -0.7325
  116MOL     C430134   7.749   7.782   5.140 -0.2617 -0.0381 -1.0784
  116MOL     C530135   0.108   7.464   5.121 -0.2186 -0.5840  0.4809
  116MOL     H630136   0.062   7.537   5.324  0.8411  0.7066  0.1250
  116MOL     H730137   0.124   7.729   5.116 -0.2005  0.7316  0.3551
  116MOL     H830138   7.788   7.795   5.365  0.4121 -0.4263 -0.7080
  116MOL     H930139   0.054   0.065   5.268  0.3724 -0.3736  0.8820
  116MOL    H1030140   7.740   0.023   5.067  1.2293  0.2868 -0.9175
  116MOL    H1130141   7.650   7.736   5.148 -0.7624  1.2726  0.8423
  116MOL    H1230142   0.213   7.486   5.102 -0.0545 -1.4020  0.4316
  116MOL    H1330143   0.074   7.489   5.020 -0.1890  0.0319  0.6218
  116MOL    H1430144   7.764   7.537   5.209  0.6631 -2.9848  1.4431
  116MOL    C1530145   0.080   7.314   5.154  0.0811 -0.6108 -0.3746
  116MOL    C1630146   0.121   7.226   5.037 -0.7212  0.1756 -1.2845
  116MOL    C1730147   0.202   7.265   4.914  0.1380 -1.1716 -0.5221
  116MOL    C1830148   0.055   7.239   4.906 -0.5231 -0.6702  0.1571
  116MOL    C1930149   0.162   7.273   5.281 -0.2267 -0.0874 -0.2271
  116MOL    H2030150   7.815   7.295   5.179  0.0737  2.8144  2.6481
  116MOL    H2130151   0.131   7.122   5.067  0.4508  0.1887 -1.5844
  116MOL    H2230152   0.272   7.194   4.870  1.0750  0.3844 -1.6025
  116MOL    H2330153   0.248   7.364   4.911  2.3295 -1.8998  4.4856
  116MOL    H2430154   7.826   7.321   4.884 -0.8256 -0.8048  0.6105
  116MOL    H2530155   0.032   7.147   4.854 -4.4137 -1.1747  2.6135
  116MOL    H2630156   0.136   7.172   5.311 -1.5295 -0.3045 -2.0374
  116MOL    H2730157   0.122   7.322   5.370  1.8187 -1.8464  1.7397
  116MOL    C2830158   0.317   7.283   5.296 -0.9968 -0.2344 -0.0588
  116MOL    C2930159   0.390   7.182   5.210  0.2431  0.3312 -0.4956
  116MOL    C3030160   0.508   7.098   5.250  0.7083 -0.0308 -0.4842
  116MOL    C3130161   0.366   7.040   5.242  0.6114 -0.3699 -0.2939
  116MOL    C3230162   0.356   7.276   5.448 -0.0411  0.2617  0.4146
  116MOL    H3330163   0.350   7.376   5.252  1.2644 -0.5973  0.7881
  116MOL    H3430164   0.389   7.213   5.106  2.4107 -0.9004 -0.9129
  116MOL    H3530165   0.546   7.091   5.352 -2.5506 -1.4393  0.6971
  116MOL    H3630166   0.577   7.055   5.177  0.9193 -0.4368 -0.0498
  116MOL    H3730167   0.311   7.012   5.333  2.7422 -0.3233  1.0395
  116MOL    H3830168   0.333   6.987   5.153 -0.3304 -1.9933  0.9928
  116MOL    H3930169   0.464   7.263   5.452  0.1251  1.8947  1.8657
  116MOL    H4030170   0.324   7.190   5.507  0.3724  0.6510  1.2279
  116MOL    C4130171   0.326   7.409   5.530 -0.2073 -0.6927  0.2572
  116MOL    C4230172   0.434   7.515   5.505 -0.0426 -0.1333 -0.5739
  116MOL    C4330173   0.410   7.662   5.529 -0.2736  0.4934  0.3228
  116MOL    C4430174   0.433   7.622   5.393 -0.4803 -0.5696  0.3360
  116MOL    C4530175   0.316   7.375   5.678  0.7267 -0.6813  0.3290
  116MOL    H4630176   0.230   7.450   5.497 -0.3569  0.9842  2.6325
  116MOL    H4730177   0.534   7.476   5.523  1.0480  1.0514 -3.6726
  116MOL    H4830178   0.306   7.687   5.550 -0.6443 -0.7433 -0.0060
  116MOL    H4930179   0.486   7.729   5.569 -1.2719  1.9227 -0.1242
  116MOL    H5030180   0.528   7.657   5.352  0.6278 -0.4631  2.9405
  116MOL    H5130181   0.345   7.621   5.329 -1.4779  0.6167  1.6663
  116MOL    H5230182   0.418   7.352   5.708  0.0227 -0.3425  3.1103
  116MOL    H5330183   0.264   7.281   5.695 -0.4036 -0.4256 -1.5795
  116MOL    C5430184   0.275   7.483   5.778  0.2144  0.3784  0.0461
  116MOL    C5530185   0.122   7.517   5.769  1.2275  0.2754 -0.5312
  116MOL    C5630186   0.065   7.633   5.685  0.3996  0.0185  0.5871
  116MOL    C5730187   0.061   7.637   5.831  0.4980 -0.2368  0.3202
  116MOL    C5830188   0.315   7.443   5.927  0.2840 -0.2130 -0.4942
  116MOL    H5930189   0.331   7.576   5.763 -0.2047  0.1620 -2.9927
  116MOL    H6030190   0.061   7.427   5.773  0.8335  0.4160 -2.8455
  116MOL    H6130191   0.132   7.710   5.647 -0.8747  2.6920  3.4458
  116MOL    H6230192   7.817   7.602   5.629  0.1498  0.7572  0.5514
  116MOL    H6330193   7.809   7.618   5.886  1.4932  0.3246  2.1948
  116MOL    H6430194   0.132   7.699   5.886 -1.6880  0.4908  2.4137
  116MOL    H6530195   0.249   7.506   5.986 -0.9010  1.0268 -3.0780
  116MOL    H6630196   0.276   7.344   5.952  1.0663 -0.4460 -0.1603
  116MOL    C6730197   0.462   7.457   5.976  1.3427  0.4317  0.8151
  116MOL    C6830198   0.506   7.605   5.979 -0.1374  0.6528 -0.1167
  116MOL    C6930199   0.647   7.637   5.978 -0.3007  0.0340  0.1095
  116MOL    C7030200   0.567   7.660   5.847  0.6077  0.0663 -0.0911
  116MOL    C7130201   0.470   7.388   6.111  0.2148 -0.4272  0.3166
  116MOL    H7230202   0.524   7.393   5.913  1.1577  2.7000 -1.7324
  116MOL    H7330203   0.438   7.668   6.036 -1.2495  0.0015 -0.7086
  116MOL    H7430204   0.689   7.728   6.020 -0.7231  1.2960 -2.1051
  116MOL    H7530205   0.707   7.551   6.008 -0.8239 -0.3742 -0.0081
  116MOL    H7630206   0.598   7.597   5.765  1.5237 -0.7436  0.8525
  116MOL    H7730207   0.552   7.766   5.829  0.5387 -0.0567 -0.7592
  116MOL    H7830208   0.396   7.434   6.176 -0.1589  1.1514 -1.1760
  116MOL    H7930209   0.570   7.413   6.147  0.2681 -1.3813  0.8427
  116MOL    C8030210   0.481   7.235   6.112  0.2812  0.1524 -0.7062
  116MOL    C8130211   0.446   7.187   6.248 -0.3767  0.3363  0.1974
  116MOL    C8230212   0.376   7.057   6.274  0.2191 -0.0687  0.2542
  116MOL    C8330213   0.310   7.194   6.301  0.2352  0.5349  0.4387
  116MOL    C8430214   0.630   7.190   6.080 -0.2029  0.1048  0.5702
  116MOL    H8530215   0.407   7.198   6.041 -0.6015 -0.8511  0.7236
  116MOL    H8630216   0.528   7.211   6.315 -1.7105 -1.9356  2.7225
  116MOL    H8730217   0.403   6.998   6.361 -1.3716  0.4398  1.1007
  116MOL    H8830218   0.337   7.013   6.182  0.4618 -0.5180  0.3642
  116MOL    H8930219   0.239   7.236   6.229  1.4346  0.0588 -1.0556
  116MOL    H9030220   0.299   7.230   6.403  2.7740 -0.5654  1.1201
  116MOL    H9130221   0.680   7.260   6.012  0.2548 -1.2190 -0.4626
  116MOL    H9230222   0.694   7.197   6.168  0.2938  0.6512  0.1690
  116MOL    C9330223   0.635   7.047   6.015 -0.4886  0.0961 -0.1075
  116MOL    C9430224   0.610   7.067   5.866 -0.9002 -0.0056  0.2279
  116MOL    C9530225   0.583   6.959   5.769  0.5257  0.1666 -0.1240
  116MOL    C9630226   0.474   7.061   5.807 -0.1930  0.4542 -0.5192
  116MOL    C9730227   0.761   6.960   6.046  0.8942  0.0038 -0.1685
  116MOL    H9830228   0.558   6.981   6.055  0.0308  0.5572  1.6822
  116MOL    H9930229   0.675   7.137   5.816 -1.4103  0.0733 -0.3243
  116MOL   H10030230   0.626   6.966   5.670 -0.9304  1.0334 -0.7185
  116MOL   H10130231   0.593   6.865   5.823 -1.6939 -0.0468 -0.0287
  116MOL   H10230232   0.455   7.150   5.748  0.9040  0.4107 -0.9663
  116MOL   H10330233   0.389   7.029   5.867  0.9283 -1.6096  0.0222
  116MOL   H10430234   0.762   6.873   5.980 -0.4905 -0.9674  1.0606
  116MOL   H10530235   0.751   6.932   6.151 -0.5795  0.1266 -0.2699
  116MOL   C10630236   0.894   7.038   6.050  0.3189  0.5086  0.9593
  116MOL   C10730237   0.994   6.975   6.146  0.0443 -0.6095  0.4537
  116MOL   C10830238   1.118   7.052   6.181  0.2680  0.1198 -0.0367
  116MOL   C10930239   1.021   7.013   6.292 -0.2079  1.4693 -0.0070
  116MOL   C11030240   0.942   7.043   5.896 -0.4509 -0.7346  0.0749
  116MOL   H11130241   0.877   7.141   6.081 -1.9185 -0.0885  1.8547
  116MOL   H11230242   0.995   6.866   6.144 -1.0208 -0.6090 -1.5230
  116MOL   H11330243   1.211   7.001   6.157 -0.4212 -0.9567 -0.4510
  116MOL   H11430244   1.111   7.157   6.155  0.5816  0.4933  1.3364
  116MOL   H11530245   0.959   7.092   6.333 -1.3599  0.1839  0.7622
  116MOL   H11630246   1.049   6.931   6.359 -0.9597  1.3968  0.2192
  116MOL   H11730247   1.006   6.958   5.869  0.9146  0.9676 -2.3181
  116MOL   H11830248   0.864   7.033   5.820  0.8262 -0.2655 -1.3326
  116MOL   C11930249   1.019   7.173   5.856 -0.1657 -0.7129  0.3174
  116MOL   C12030250   1.099   7.137   5.737  0.0635 -0.9136  0.7478
  116MOL   C12130251   1.210   7.042   5.763 -0.0606 -0.2198 -0.5555
  116MOL   C12230252   1.233   7.182   5.697 -0.1022  0.4493  0.2319
  116MOL   C12330253   0.934   7.303   5.831 -0.4978 -0.1304 -0.4691
  116MOL   H12430254   1.078   7.200   5.944  0.4028 -1.0436  0.0407
  116MOL   H12530255   1.039   7.118   5.648 -0.0234  2.7884 -0.0827
  116MOL   H12630256   1.225   6.949   5.710  0.0927 -0.7922  0.4736
  116MOL   H12730257   1.251   7.035   5.864 -1.2828 -0.4588 -0.0607
  116MOL   H12830258   1.290   7.260   5.748 -0.1462  0.9000 -0.4051
  116MOL   H12930259   1.261   7.172   5.592  0.0956  2.8087  0.0370
  116MOL   H13030260   0.863   7.267   5.757  0.2119 -0.3039 -1.0662
  116MOL   H13130261   0.871   7.322   5.918  0.6248 -0.3577  0.3998
  116MOL   C13230262   1.016   7.432   5.783 -0.2502 -0.3624  0.4428
  116MOL   C13330263   1.115   7.484   5.889  0.3316  0.8071 -0.2846
  116MOL   C13430264   1.093   7.612   5.959  0.7183  0.1376 -0.5021
  116MOL   C13530265   1.204   7.606   5.861 -0.2886 -0.2128  0.4887
  116MOL   C13630266   0.905   7.527   5.720  0.0769  0.6676 -0.0233
  116MOL   H13730267   1.076   7.405   5.696  0.8296  0.0754  1.0359
  116MOL   H13830268   1.161   7.405   5.949  1.1492  1.3152 -0.2315
  116MOL   H13930269   0.999   7.663   5.941  1.5274  1.3544 -1.3543
  116MOL   H14030270   1.126   7.626   6.062 -0.0021 -0.3042 -0.2104
  116MOL   H14130271   1.190   7.667   5.772  1.2025  0.6804  0.8430
  116MOL   H14230272   1.307   7.609   5.896 -0.0330 -3.3945  0.1837
  116MOL   H14330273   0.812   7.518   5.775 -0.8621  1.1609 -1.4954
  116MOL   H14430274   0.945   7.626   5.742  0.3897 -0.1016  3.0503
  116MOL   C14530275   0.875   7.512   5.566 -0.2536  0.2523 -0.9748
  116MOL   C14630276   0.810   7.385   5.530  0.6727  0.6957  0.8372
  116MOL   C14730277   0.805   7.330   5.384  0.5229  0.1577 -0.5675
  116MOL   C14830278   0.881   7.260   5.501  0.0981  0.0375 -0.3277
  116MOL   C14930279   0.789   7.625   5.518  0.3803 -0.2171 -0.7361
  116MOL   H15030280   0.971   7.523   5.516  0.0506 -2.0932 -0.9356
  116MOL   H15130281   0.717   7.363   5.580  0.7168 -1.2545  0.0821
  116MOL   H15230282   0.705   7.294   5.364  1.8029 -3.2315 -1.1867
  116MOL   H15330283   0.865   7.384   5.310  2.9530 -0.5211  0.8530
  116MOL   H15430284   0.988   7.257   5.479  0.4020 -0.9918  1.2048
  116MOL   H15530285   0.842   7.165   5.535 -1.2297  1.1723  1.4467
  116MOL   H15630286   0.754   7.604   5.417  0.8142 -1.4803 -0.6303
  116MOL   H15730287   0.699   7.635   5.578  1.3130  0.5102  0.5711
  116MOL   C15830288   0.863   7.762   5.514  0.0025  0.2310  0.4391
  116MOL   C15930289   0.756   0.034   5.547 -0.5688 -0.1109  0.1334
  116MOL   C16030290   0.730   0.088   5.685 -0.7963  0.3893  0.1256
  116MOL   C16130291   0.802   0.168   5.584  0.1058 -0.3857 -0.3936
  116MOL   C16230292   0.949   7.784   5.382  0.2971 -0.0234  0.7821
  116MOL   H16330293   0.936   7.764   5.595  0.7570 -1.3683 -0.1570
  116MOL   H16430294   0.671   0.035   5.479 -2.9489 -0.1626  2.9867
  116MOL   H16530295   0.788   0.067   5.774 -0.7286  0.7863  0.1762
  116MOL   H16630296   0.629   0.112   5.719 -0.0410  1.8271  1.4702
  116MOL   H16730297   0.761   0.258   5.538  1.0371  0.6338  0.7305
  116MOL   H16830298   0.909   0.171   5.602 -0.2769 -0.8401  2.1509
  116MOL   H16930299   1.027   7.707   5.380 -0.9936 -1.3535 -2.9120
  116MOL   H17030300   0.997   0.042   5.387  0.7363 -0.1267 -1.0419
  116MOL   C17130301   0.880   7.763   5.240  0.2324  0.1919 -0.2248
  116MOL   C17230302   0.872   0.059   5.171  0.1703 -0.0370  0.6259
  116MOL   C17330303   0.764   0.102   5.080 -0.1485 -0.3144 -0.3860
  116MOL   C17430304   0.778   0.165   5.217 -0.1761  0.3458 -0.9837
  116MOL   C17530305   0.958   7.650   5.171 -0.1799  0.7607  0.6386
  116MOL   H17630306   0.774   7.737   5.240 -0.0470  1.1346  2.9388
  116MOL   H17730307   0.971   0.092   5.140  1.0056 -0.9882  2.2185
  116MOL   H17830308   0.788   0.164   4.994  0.3333 -0.7831 -0.5941
  116MOL   H17930309   0.681   0.032   5.072 -0.4438 -0.3962  2.8568
  116MOL   H18030310   0.699   0.142   5.287  2.0282 -2.4341  0.7184
  116MOL   H18130311   0.813   0.268   5.207  0.6427  0.1477 -0.2793
  116MOL   H18230312   0.967   7.564   5.238 -0.4656 -1.6101 -2.3002
  116MOL   H18330313   1.057   7.694   5.165  1.0915 -2.0757  0.3007
  116MOL   C18430314   0.887   7.600   5.042 -0.6533 -0.2988 -0.1441
  116MOL   C18530315   0.760   7.511   5.073 -0.6641 -0.3829 -0.4924
  116MOL   C18630316   0.655   7.486   4.973 -0.2634  0.0409 -0.2863
  116MOL   C18730317   0.622   7.575   5.093 -0.1481 -0.0830 -0.4497
  116MOL   C18830318   0.982   7.513   4.964  0.3416 -0.1858 -0.3832
  116MOL   H18930319   0.870   7.691   4.985 -0.4104  0.4245  0.9144
  116MOL   H19030320   0.789   7.416   5.115  0.3047  0.3443  0.5053
  116MOL   H19130321   0.600   7.393   4.970  0.3700 -0.3097 -1.4842
  116MOL   H19230322   0.660   7.532   4.874  1.8168 -0.0677 -0.2562
  116MOL   H19330323   0.556   7.537   5.170 -0.0515  1.7691  0.5958
  116MOL   H19430324   0.622   7.682   5.071 -0.3954 -0.1857 -0.9503
  116MOL   H19530325   0.928   7.476   4.877  0.3937  1.0678 -0.9629
  116MOL   H19630326   1.008   7.421   5.017  1.7030 -0.2507 -1.1447
  116MOL   C19730327   1.120   7.567   4.911 -0.0454  0.7943 -0.6800
  116MOL   C19830328   1.114   7.693   4.830 -0.1434  0.1472  0.1572
  116MOL   C19930329   1.238   7.777   4.814 -0.6683 -0.0598  1.1386
  116MOL   C20030330   1.118   7.832   4.888 -0.2203  0.5397 -0.2422
  116MOL   C20130331   1.204   7.460   4.837 -0.1410  0.0032 -0.0631
  116MOL   H20230332   1.169   7.605   5.000 -1.1319 -2.3034  1.3439
  116MOL   H20330333   1.056   7.678   4.740 -0.1904  0.2651  0.1679
  116MOL   H20430334   1.319   7.751   4.882 -0.1054  0.9524  0.8764
  116MOL   H20530335   1.252   7.804   4.710  0.7546 -2.5314  0.6590
  116MOL   H20630336   1.129   0.009   4.995  1.0068  1.8346 -0.5553
  116MOL   H20730337   1.051   0.065   4.844  1.5204  1.5684 -1.2219
  116MOL   H20830338   1.150   7.429   4.748 -2.5848  1.2993  0.8938
  116MOL   H20930339   1.294   7.511   4.802 -0.9059  0.6243 -1.1620
  116MOL   C21030340   1.235   7.330   4.915 -0.6300  0.2325 -0.2843
  116MOL   C21130341   1.319   7.240   4.826  0.7337  0.1128  0.2928
  116MOL   C21230342   1.312   7.093   4.820  0.2182 -0.2799 -0.2358
  116MOL   C21330343   1.251   7.170   4.713  0.5449 -0.6093  0.8535
  116MOL   C21430344   1.276   7.356   5.065 -0.3024  0.4108  0.2550
  116MOL   H21530345   1.144   7.271   4.928  0.9728 -2.0127  0.9445
  116MOL   H21630346   1.419   7.276   4.802  0.5863 -1.2382 -2.5280
  116MOL   H21730347   1.415   7.059   4.812 -0.4594 -1.8648 -2.6248
  116MOL   H21830348   1.250   7.046   4.896 -1.4933  0.7110 -0.9843
  116MOL   H21930349   1.291   7.164   4.612 -2.0653 -1.4818 -0.1808
  116MOL   H22030350   1.142   7.169   4.710  0.5180  1.3301  0.3788
  116MOL   H22130351   1.367   7.416   5.069  0.7577 -0.9328 -2.2354
  116MOL   H22230352   1.205   7.426   5.109 -0.0973  0.1145  1.0628
  116MOL   C22330353   1.280   7.229   5.151  0.7979  0.5885  0.3250
  116MOL   C22430354   1.142   7.184   5.188 -0.2055  0.0395  0.3613
  116MOL   C22530355   1.048   7.096   5.104 -0.7312  0.1621  0.3023
  116MOL   C22630356   1.122   7.038   5.221 -0.9820 -0.1135  0.1868
  116MOL   C22730357   1.350   7.236   5.295  0.1639 -0.0389 -0.0388
  116MOL   H22830358   1.333   7.152   5.095  0.4857 -1.6472  2.9764
  116MOL   H22930359   1.094   7.240   5.268 -2.3484 -0.8176 -0.3065
  116MOL   H23030360   1.077   7.074   5.002  0.0024 -2.5141  1.0378
  116MOL   H23130361   0.941   7.110   5.116 -0.8974 -0.6944 -0.1834
  116MOL   H23230362   1.046   7.004   5.291 -2.5512  1.2592 -0.8194
  116MOL   H23330363   1.200   6.966   5.196 -1.7761 -1.1230  0.5435
  116MOL   H23430364   1.284   7.283   5.367  0.9334  0.9519  0.0225
  116MOL   H23530365   1.348   7.138   5.342 -1.8710  0.1372  0.2838
  116MOL   C23630366   1.488   7.300   5.293 -0.7137 -0.0219  0.3082
  116MOL   C23730367   1.580   7.210   5.223  0.5941  1.0718 -0.5500
  116MOL   C23830368   1.601   7.232   5.066 -0.3729 -0.3695  0.9221
  116MOL   C23930369   1.711   7.244   5.156  0.1660  0.1235 -0.5429
  116MOL   C24030370   1.530   7.349   5.431  0.3432 -0.2000  0.2752
  116MOL   H24130371   1.472   7.395   5.242  0.2297 -1.0494 -1.9350
  116MOL   H24230372   1.575   7.104   5.245 -1.6371  0.9236 -1.6422
  116MOL   H24330373   1.608   7.144   5.003 -0.8216  0.4839 -0.3287
  116MOL   H24430374   1.568   7.327   5.025 -1.1452 -1.4717 -1.0515
  116MOL   H24530375   1.753   7.339   5.189 -0.7934  1.1880 -2.3432
  116MOL   H24630376   1.786   7.165   5.168  0.0007  0.4759  3.3342
  116MOL   H24730377   1.542   7.258   5.490 -3.0015 -1.5065 -0.9616
  116MOL   H24830378   1.629   7.393   5.420 -0.3904  1.2321 -0.7291
  116MOL   C24930379   1.448   7.451   5.508  0.4538  0.6087 -0.0693
  116MOL   C25030380   1.406   7.576   5.440 -0.1786 -0.2318 -0.3227
  116MOL   C25130381   1.297   7.588   5.335 -0.7160  0.3962 -0.9440
  116MOL   C25230382   1.274   7.644   5.473 -0.3581  0.1216  0.0498
  116MOL   C25330383   1.518   7.496   5.636  0.0287 -0.2859  0.3250
  116MOL   H25430384   1.352   7.406   5.535  1.2716 -0.0732  1.7770
  116MOL   H25530385   1.489   7.646   5.429 -0.7213  0.2005 -1.7911
  116MOL   H25630386   1.315   7.655   5.251 -0.4203 -0.5231 -1.6278
  116MOL   H25730387   1.240   7.500   5.305 -1.7196  0.4154  0.8369
  116MOL   H25830388   1.280   7.752   5.473 -0.4362  0.1340 -0.9487
  116MOL   H25930389   1.208   7.586   5.537 -2.1597 -0.6838 -2.4522
  116MOL   H26030390   1.466   7.569   5.698 -0.2490 -0.6104  0.4825
  116MOL   H26130391   1.613   7.543   5.613  0.1339 -0.5661  0.1775
  116MOL   H26230392   1.534   7.413   5.706 -2.6765 -1.2889 -0.1868
  117MOL     C130393   3.551   6.800   6.361  0.0998 -1.1133 -0.2848
  117MOL     C230394   3.628   6.929   6.383  0.2577 -0.1045  0.5278
  117MOL     C330395   3.618   7.015   6.513  0.0509 -0.4314 -0.6000
  117MOL     C430396   3.545   7.052   6.387  0.4220 -0.0900  0.1934
  117MOL     C530397   3.642   6.681   6.375 -0.1520  0.1758  0.6347
  117MOL     H630398   3.465   6.790   6.428  0.7668 -0.0013  0.7759
  117MOL     H730399   3.728   6.944   6.342  0.5415  1.8746  1.8451
  117MOL     H830400   3.566   6.969   6.596 -0.9594  1.1514 -0.3255
  117MOL     H930401   3.715   7.053   6.545 -0.1042 -0.0445 -0.5919
  117MOL    H1030402   3.580   7.140   6.333 -2.8126 -0.1552 -2.1236
  117MOL    H1130403   3.439   7.030   6.388  0.8183 -2.1076  1.4252
  117MOL    H1230404   3.695   6.696   6.469 -1.7374  1.1795  1.3815
  117MOL    H1330405   3.723   6.685   6.301 -0.5610 -0.6324  0.1334
  117MOL    H1430406   3.507   6.796   6.262 -0.4507  0.8530 -0.1521
  117MOL    C1530407   3.579   6.541   6.393 -0.3652 -0.9294 -0.6942
  117MOL    C1630408   3.494   6.531   6.523  0.3152 -0.3673  0.4552
  117MOL    C1730409   3.569   6.522   6.658  0.3255  0.8845 -0.3755
  117MOL    C1830410   3.490   6.402   6.599 -0.3601  0.0702 -0.4315
  117MOL    C1930411   3.486   6.505   6.272 -0.3246  0.2704 -0.9650
  117MOL    H2030412   3.654   6.464   6.409 -0.7426 -0.9625  0.9918
  117MOL    H2130413   3.404   6.592   6.530 -0.5273 -1.6368  0.9589
  117MOL    H2230414   3.527   6.583   6.738  0.6008  0.2111  0.2858
  117MOL    H2330415   3.677   6.526   6.647  0.5586 -0.8307  1.0883
  117MOL    H2430416   3.546   6.323   6.549  1.6568 -1.3623  3.8329
  117MOL    H2530417   3.397   6.376   6.648 -0.6813  1.8693 -0.0464
  117MOL    H2630418   3.402   6.573   6.274 -0.9890 -0.5580  0.1437
  117MOL    H2730419   3.443   6.405   6.284  1.8452 -0.7963 -1.5861
  117MOL    C2830420   3.544   6.511   6.129  1.0415 -0.4059 -0.1576
  117MOL    C2930421   3.438   6.497   6.025  0.2864  0.0879 -0.2398
  117MOL    C3030422   3.329   6.598   6.029 -0.6494  0.6345 -0.2230
  117MOL    C3130423   3.414   6.588   5.903  0.1717  0.0859  0.5291
  117MOL    C3230424   3.651   6.391   6.113  0.3618  0.5255 -0.2164
  117MOL    H3330425   3.589   6.608   6.108 -1.1924  0.3053 -1.9768
  117MOL    H3430426   3.413   6.392   6.012 -1.2191  0.4193 -0.1258
  117MOL    H3530427   3.340   6.693   6.081  2.5778  0.4720 -0.4918
  117MOL    H3630428   3.235   6.544   6.028 -0.0418 -0.4376 -2.4413
  117MOL    H3730429   3.485   6.665   5.874  0.5614 -0.1449  0.8565
  117MOL    H3830430   3.353   6.563   5.817 -0.3778 -0.5916  1.1071
  117MOL    H3930431   3.608   6.293   6.138 -1.5476  1.3747 -0.0520
  117MOL    H4030432   3.723   6.396   6.195 -1.4041  1.2640  1.3443
  117MOL    C4130433   3.731   6.389   5.982 -0.1584 -0.3339 -0.2105
  117MOL    C4230434   3.807   6.261   5.967  0.1110  0.4465  0.2782
  117MOL    C4330435   3.840   6.190   5.839  0.0828  0.2763 -0.5592
  117MOL    C4430436   3.745   6.127   5.944  0.0378 -0.5185 -0.2771
  117MOL    C4530437   3.823   6.504   5.958  0.0277  0.7323  0.1636
  117MOL    H4630438   3.655   6.398   5.904  0.6845  1.4383 -0.8391
  117MOL    H4730439   3.892   6.262   6.034  1.1047 -0.1234 -0.9580
  117MOL    H4830440   3.804   6.230   5.744 -0.9425  0.6070 -0.0358
  117MOL    H4930441   3.933   6.134   5.832  0.0166  0.0767  0.1191
  117MOL    H5030442   3.795   6.038   5.981 -1.0577 -1.2261 -0.4790
  117MOL    H5130443   3.641   6.127   5.913 -0.1546 -2.0490  0.3539
  117MOL    H5230444   3.907   6.496   6.027  0.6080  1.3183 -0.4544
  117MOL    H5330445   3.771   6.593   5.995  2.0959  2.0970 -0.0925
  117MOL    C5430446   3.862   6.529   5.809  0.3546 -0.4717 -0.3838
  117MOL    C5530447   3.744   6.574   5.727  0.6080  0.7989 -1.0877
  117MOL    C5630448   3.647   6.473   5.657  0.3662  0.1083 -0.6559
  117MOL    C5730449   3.744   6.559   5.583 -0.2528 -0.0944  0.8735
  117MOL    C5830450   3.973   6.637   5.802  0.4564 -0.2050  0.0652
  117MOL    H5930451   3.910   6.440   5.768  1.9239 -1.1763  2.8252
  117MOL    H6030452   3.700   6.666   5.764 -2.4127 -1.4285  1.2083
  117MOL    H6130453   3.667   6.371   5.688  0.0084  0.4960  0.9124
  117MOL    H6230454   3.543   6.504   5.656  1.3141  3.5777  0.8459
  117MOL    H6330455   3.703   6.637   5.520 -0.2086  0.2171  1.2322
  117MOL    H6430456   3.825   6.509   5.531 -1.7460 -1.5396 -0.1486
  117MOL    H6530457   3.971   6.693   5.708 -0.2991  0.4784  0.4851
  117MOL    H6630458   3.935   6.714   5.870 -1.5965  0.5665 -1.8867
  117MOL    C6730459   4.110   6.583   5.833 -0.2061 -0.1408 -0.2516
  117MOL    C6830460   4.166   6.511   5.710 -0.2568 -0.6855  0.1030
  117MOL    C6930461   4.270   6.399   5.713 -0.6238  0.0938  0.7011
  117MOL    C7030462   4.134   6.369   5.667  0.3005 -0.2330 -0.0655
  117MOL    C7130463   4.212   6.697   5.885 -0.2956 -0.1264 -0.4243
  117MOL    H7230464   4.101   6.505   5.908  0.2127  2.2345  2.3725
  117MOL    H7330465   4.183   6.584   5.631 -0.7010 -0.6674  0.0206
  117MOL    H7430466   4.350   6.401   5.639  0.4938  1.9041  1.9259
  117MOL    H7530467   4.310   6.355   5.805 -2.0029 -2.2468  0.2199
  117MOL    H7630468   4.065   6.311   5.728  0.8592 -1.4204 -0.5564
  117MOL    H7730469   4.113   6.361   5.561  0.6272 -1.3604 -0.0482
  117MOL    H7830470   4.191   6.794   5.840 -1.1650  0.4304  1.1410
  117MOL    H7930471   4.306   6.669   5.839  0.7552 -0.2677  1.7412
  117MOL    C8030472   4.253   6.705   6.040  0.3490  0.5516 -0.4121
  117MOL    C8130473   4.127   6.772   6.103  0.4435 -0.3618  0.3378
  117MOL    C8230474   4.114   6.774   6.253  0.3837  0.3510 -0.2386
  117MOL    C8330475   4.015   6.692   6.174  0.0219 -0.0774  0.8602
  117MOL    C8430476   4.383   6.785   6.057  0.5100  0.0725  0.7029
  117MOL    H8530477   4.270   6.604   6.075  0.5371 -0.1387 -2.4215
  117MOL    H8630478   4.098   6.869   6.064  3.0476  0.2871 -0.1108
  117MOL    H8730479   4.086   6.874   6.285  1.2664  0.7663 -0.7629
  117MOL    H8830480   4.191   6.719   6.307 -1.1187 -1.0935  0.5034
  117MOL    H8930481   4.017   6.585   6.193  2.2654 -0.3001 -0.4616
  117MOL    H9030482   3.919   6.733   6.143  0.0013 -0.6584  0.1415
  117MOL    H9130483   4.464   6.752   5.993 -1.4048 -1.3923 -1.0238
  117MOL    H9230484   4.363   6.890   6.038 -2.6357 -0.5629  0.2068
  117MOL    C9330485   4.464   6.776   6.188  0.4879 -0.1635  0.1828
  117MOL    C9430486   4.507   6.626   6.216  0.7608 -0.1961 -0.2026
  117MOL    C9530487   4.565   6.591   6.353 -0.1544 -0.4935 -0.3394
  117MOL    C9630488   4.431   6.537   6.311 -1.3275 -0.5977 -0.4387
  117MOL    C9730489   4.593   6.859   6.185  0.1168  0.5518  0.1223
  117MOL    H9830490   4.411   6.819   6.273 -1.7603  1.5585 -2.0148
  117MOL    H9930491   4.546   6.568   6.132  0.3667 -0.2921 -0.3170
  117MOL   H10030492   4.626   6.503   6.370  0.3641 -0.4331 -1.8589
  117MOL   H10130493   4.543   6.646   6.445  0.8158 -0.6788  0.0140
  117MOL   H10230494   4.428   6.432   6.283 -0.0820 -1.0725  1.1548
  117MOL   H10330495   4.346   6.575   6.367 -0.1697  0.0798  0.8836
  117MOL   H10430496   4.648   6.837   6.093  1.6278  0.6852  0.9861
  117MOL   H10530497   4.656   6.831   6.269 -0.5013  1.9173  1.0567
  117MOL   C10630498   4.571   7.013   6.191 -0.5167  0.2818  0.4020
  117MOL   C10730499   4.548   7.064   6.329  0.0461  0.2683  0.8911
  117MOL   C10830500   4.468   7.196   6.360 -0.5565  0.2025 -0.0200
  117MOL   C10930501   4.406   7.066   6.383 -0.1567  0.7238  0.2985
  117MOL   C11030502   4.685   7.096   6.124  0.2311  0.3408  0.3638
  117MOL   H11130503   4.479   7.039   6.139 -0.8797 -2.1962 -0.2726
  117MOL   H11230504   4.622   7.042   6.405  0.7576  0.1461  0.1672
  117MOL   H11330505   4.495   7.256   6.447 -0.5271 -1.4425  1.1155
  117MOL   H11430506   4.436   7.246   6.269  2.5257 -0.9427 -1.7761
  117MOL   H11530507   4.319   7.042   6.323 -0.7344  0.5874  1.1776
  117MOL   H11630508   4.395   7.027   6.484 -0.0067  1.0992  0.4606
  117MOL   H11730509   4.689   7.194   6.173  0.9822 -0.0803  1.1629
  117MOL   H11830510   4.776   7.048   6.159  0.0221  0.5086  1.1493
  117MOL   C11930511   4.682   7.113   5.975 -0.4604 -0.2012  0.1557
  117MOL   C12030512   4.581   7.216   5.935 -0.1598  0.6987 -0.1025
  117MOL   C12130513   4.438   7.184   5.913  0.2735  0.1388 -0.0880
  117MOL   C12230514   4.527   7.221   5.799 -0.9780 -0.1300 -0.6058
  117MOL   C12330515   4.823   7.160   5.915  0.4906  0.0363  0.0722
  117MOL   H12430516   4.661   7.017   5.927  0.2530  1.0603 -2.8457
  117MOL   H12530517   4.598   7.314   5.979  0.2454  0.9576 -0.8273
  117MOL   H12630518   4.376   7.267   5.948  0.1191 -0.9041  2.1895
  117MOL   H12730519   4.393   7.086   5.924 -2.1911  1.2695  0.3587
  117MOL   H12830520   4.560   7.144   5.729 -0.5435 -0.9243  0.4501
  117MOL   H12930521   4.507   7.318   5.755  1.2839 -0.1194 -1.7064
  117MOL   H13030522   4.820   7.226   5.829 -0.5174 -0.1470 -0.0453
  117MOL   H13130523   4.878   7.225   5.983 -0.1688  0.5329  0.1338
  117MOL   C13230524   4.921   7.039   5.890 -0.1694 -0.5185  0.1800
  117MOL   C13330525   5.067   7.085   5.879  0.0215 -0.0683  0.5689
  117MOL   C13430526   5.189   6.995   5.901 -0.0344  0.8717  0.0028
  117MOL   C13530527   5.155   7.102   6.002 -0.1790 -0.7697  0.1049
  117MOL   C13630528   4.866   6.969   5.770  0.0255 -0.9333  0.4471
  117MOL   H13730529   4.914   6.964   5.969 -1.8822 -1.3759 -0.7443
  117MOL   H13830530   5.084   7.166   5.809 -0.4567 -1.0888 -0.7617
  117MOL   H13930531   5.159   6.896   5.936 -1.4129  1.2703 -0.0109
  117MOL   H14030532   5.272   7.019   5.834 -0.6966  1.0418 -0.7610
  117MOL   H14130533   5.101   7.090   6.096 -1.4027 -1.7660 -0.6919
  117MOL   H14230534   5.231   7.179   5.995  0.3099 -1.1913  0.8039
  117MOL   H14330535   4.781   7.027   5.735 -1.2195 -2.2846  1.1584
  117MOL   H14430536   4.947   6.981   5.698 -2.3033 -0.1499 -2.1383
  117MOL   C14530537   4.814   6.817   5.789 -0.3195 -0.3195 -0.1436
  117MOL   C14630538   4.694   6.789   5.697 -0.8517  0.2378  0.7389
  117MOL   C14730539   4.583   6.697   5.725 -0.2072  0.5626  0.6000
  117MOL   C14830540   4.557   6.850   5.718  0.3611  0.5822  0.7245
  117MOL   C14930541   4.939   6.722   5.764  0.5190 -0.5973 -0.0238
  117MOL   H15030542   4.772   6.813   5.890  0.2347  3.5919  0.3138
  117MOL   H15130543   4.722   6.809   5.594  1.3618 -1.0801  1.0659
  117MOL   H15230544   4.534   6.642   5.644 -0.2347 -1.7144  2.1245
  117MOL   H15330545   4.576   6.648   5.821 -0.7630 -2.1740 -0.7952
  117MOL   H15430546   4.526   6.888   5.815  2.4877 -1.4376  2.2567
  117MOL   H15530547   4.513   6.889   5.627  1.7162  0.4886  0.0200
  117MOL   H15630548   4.915   6.634   5.704 -0.8098 -1.2381  1.4035
  117MOL   H15730549   5.022   6.777   5.719  0.9787 -0.2012  1.2951
  117MOL   C15830550   4.996   6.661   5.894 -0.0503  0.3610 -0.2828
  117MOL   C15930551   5.135   6.604   5.875  0.9151 -0.4029  0.6615
  117MOL   C16030552   5.153   6.484   5.786  0.1632  0.3221 -0.1426
  117MOL   C16130553   5.217   6.614   5.752  0.8674 -0.2019  0.1624
  117MOL   C16230554   4.893   6.562   5.957  0.5092 -0.0929  0.0482
  117MOL   H16330555   4.998   6.736   5.973 -1.0429  0.0134  0.0779
  117MOL   H16430556   5.184   6.606   5.971  0.3389 -2.3131  1.0112
  117MOL   H16530557   5.063   6.457   5.732 -0.3409 -1.1702  1.4463
  117MOL   H16630558   5.218   6.407   5.826 -1.9237 -0.5550  1.6136
  117MOL   H16730559   5.325   6.621   5.764  0.8764 -1.9449  1.2706
  117MOL   H16830560   5.178   6.652   5.658  1.0347  0.0317  0.1862
  117MOL   H16930561   4.892   6.477   5.890 -0.1734 -0.3602  0.3985
  117MOL   H17030562   4.791   6.600   5.956  0.3280 -0.5859 -0.9738
  117MOL   C17130563   4.931   6.506   6.093  0.5011 -1.1973  0.0535
  117MOL   C17230564   4.902   6.617   6.191  0.3319  0.3255  0.6897
  117MOL   C17330565   4.962   6.619   6.326  1.2124 -0.4106  0.6773
  117MOL   C17430566   5.004   6.729   6.225  0.5023  0.5356 -0.6003
  117MOL   C17530567   4.846   6.381   6.123 -0.1878  0.1306 -0.4514
  117MOL   H17630568   5.036   6.478   6.086  0.9815  0.8222 -1.1847
  117MOL   H17730569   4.800   6.654   6.186 -0.4551 -1.9614 -1.1356
  117MOL   H17830570   4.890   6.659   6.397  0.4142  2.5077 -1.6722
  117MOL   H17930571   5.031   6.538   6.345  0.5590 -1.2076 -0.2743
  117MOL   H18030572   5.102   6.721   6.179  0.7262 -1.0681  0.1449
  117MOL   H18130573   4.971   6.831   6.244 -0.5055 -0.0665  1.0004
  117MOL   H18230574   4.770   6.377   6.046 -2.8337  0.1700  2.0517
  117MOL   H18330575   4.793   6.405   6.216 -1.4214  0.2085 -1.1671
  117MOL   C18430576   4.933   6.254   6.135 -0.1113  0.5998  0.5606
  117MOL   C18530577   5.047   6.252   6.233  0.4000  0.5804  0.4013
  117MOL   C18630578   5.068   6.136   6.332  0.1750 -0.1916  0.0321
  117MOL   C18730579   5.028   6.272   6.389 -0.0360 -0.0787 -0.7375
  117MOL   C18830580   4.983   6.194   5.998 -0.3285  0.7459  0.3285
  117MOL   H18930581   4.871   6.174   6.176 -0.4858  0.8261  0.4337
  117MOL   H19030582   5.136   6.302   6.195  0.8905  0.0328  0.8261
  117MOL   H19130583   5.174   6.114   6.345 -0.0928 -1.5359 -0.0707
  117MOL   H19230584   4.999   6.052   6.333  0.4321 -0.4024  0.9728
  117MOL   H19330585   5.108   6.318   6.447 -1.5415  0.6727  0.7971
  117MOL   H19430586   4.927   6.280   6.429 -0.2950 -2.7260 -0.7749
  117MOL   H19530587   5.032   6.099   6.017  0.7294  0.7946 -1.9350
  117MOL   H19630588   5.068   6.255   5.966 -0.2471  0.3860 -0.1370
  117MOL   C19730589   4.873   6.172   5.882 -0.6406  0.4954  0.4196
  117MOL   C19830590   4.772   6.060   5.919  0.7630  0.4334  0.1212
  117MOL   C19930591   4.628   6.072   5.867  0.5292 -0.0713 -0.4112
  117MOL   C20030592   4.659   6.085   6.012 -0.1887  0.0074 -0.1076
  117MOL   C20130593   4.947   6.145   5.753 -0.0198  0.2227 -0.4227
  117MOL   H20230594   4.810   6.260   5.868 -0.8615  0.1820 -0.6273
  117MOL   H20330595   4.819   5.963   5.928  2.0344  1.1608  1.4737
  117MOL   H20430596   4.611   6.165   5.813 -2.6544 -1.0377 -1.1858
  117MOL   H20530597   4.582   5.977   5.840  0.5067  0.3509 -1.8838
  117MOL   H20630598   4.646   6.185   6.052 -2.2647  0.4458 -1.7783
  117MOL   H20730599   4.650   5.997   6.076 -2.0425 -1.7680 -2.6415
  117MOL   H20830600   5.038   6.203   5.739  1.2008 -1.2648  1.1614
  117MOL   H20930601   4.977   6.040   5.755 -2.3364 -0.4636 -0.6903
  117MOL   C21030602   4.862   6.152   5.621  0.4442  0.1058 -0.0951
  117MOL   C21130603   4.835   6.298   5.578  0.7256 -0.1089  0.3939
  117MOL   C21230604   4.710   6.326   5.496  0.5870 -0.9642 -0.6616
  117MOL   C21330605   4.716   6.382   5.633 -0.3679 -0.0750 -0.6041
  117MOL   C21430606   4.922   6.064   5.503  0.0837 -0.0865 -0.3731
  117MOL   H21530607   4.769   6.101   5.647  0.9335 -1.3723 -1.2032
  117MOL   H21630608   4.922   6.359   5.558  1.9247 -3.0005 -3.7220
  117MOL   H21730609   4.734   6.397   5.417  1.0117  0.5461  0.7929
  117MOL   H21830610   4.640   6.245   5.475 -1.2351  0.7358 -1.1805
  117MOL   H21930611   4.742   6.488   5.638  1.2756 -0.5766  2.4138
  117MOL   H22030612   4.651   6.347   5.712  1.8148  0.4649  1.4924
  117MOL   H22130613   4.955   5.967   5.540  0.6104  0.4038  0.4352
  117MOL   H22230614   4.834   6.034   5.445  0.6524  1.3590 -2.0271
  117MOL   C22330615   5.023   6.126   5.400 -0.0320  0.1682  0.4833
  117MOL   C22430616   5.057   6.013   5.303 -0.2409 -0.0150 -0.6773
  117MOL   C22530617   4.958   5.948   5.207 -0.6374  0.4186 -0.1884
  117MOL   C22630618   5.087   6.026   5.160 -0.1105  0.3278 -0.6281
  117MOL   C22730619   5.146   6.199   5.466 -0.0490  0.2527 -0.3907
  117MOL   H22830620   4.974   6.203   5.341 -0.7189 -0.9268 -0.3957
  117MOL   H22930621   5.114   5.937   5.356  0.4433  1.5604  0.9121
  117MOL   H23030622   4.874   6.009   5.174  0.5861  1.0833 -2.1360
  117MOL   H23130623   4.956   5.839   5.204 -1.0766  0.4481 -4.9484
  117MOL   H23230624   5.185   5.985   5.135  1.4518  2.8290  1.1758
  117MOL   H23330625   5.064   6.125   5.121  1.2961  1.0376  0.2891
  117MOL   H23430626   5.101   6.275   5.530 -1.4487 -2.2039  1.6949
  117MOL   H23530627   5.187   6.121   5.531  1.4572  0.7284 -0.7605
  117MOL   C23630628   5.248   6.258   5.373  0.3278  0.4241 -0.5070
  117MOL   C23730629   5.387   6.214   5.406 -0.1898  0.5701  0.6200
  117MOL   C23830630   5.424   6.068   5.394  1.1862  0.4005  0.0785
  117MOL   C23930631   5.486   6.173   5.298  0.1173 -0.3072 -0.0773
  117MOL   C24030632   5.222   6.413   5.367 -0.1480 -0.4144 -0.7842
  117MOL   H24130633   5.222   6.213   5.277  2.0887 -1.9794  0.0873
  117MOL   H24230634   5.437   6.271   5.484  0.7773  3.7876 -2.2505
  117MOL   H24330635   5.478   6.023   5.477  0.1855  2.1892  1.7226
  117MOL   H24430636   5.362   5.999   5.336  2.1960  0.1482 -0.7202
  117MOL   H24530637   5.452   6.176   5.195  3.3825 -0.6561 -1.2287
  117MOL   H24630638   5.588   6.209   5.315  0.0530  0.4005 -1.1434
  117MOL   H24730639   5.120   6.438   5.399  0.3481 -0.6441  1.0552
  117MOL   H24830640   5.274   6.445   5.457  0.2766 -6.2690  1.2765
  117MOL   C24930641   5.265   6.487   5.248 -0.6932  0.2517  0.2821
  117MOL   C25030642   5.294   6.631   5.283  0.7247 -0.1621 -0.1250
  117MOL   C25130643   5.292   6.751   5.174  0.1028 -0.3691  0.2512
  117MOL   C25230644   5.189   6.746   5.283  0.0354 -0.1058  0.3255
  117MOL   C25330645   5.161   6.465   5.137  0.0778  0.1968 -0.0311
  117MOL   H25430646   5.365   6.459   5.215 -1.1469  0.8167 -1.6022
  117MOL   H25530647   5.377   6.654   5.350  0.2209 -0.4947  0.6293
  117MOL   H25630648   5.373   6.822   5.188  1.0187 -1.5898  1.3524
  117MOL   H25730649   5.259   6.728   5.073  0.7960  1.6171 -0.4514
  117MOL   H25830650   5.182   6.820   5.362  1.0134  0.6050 -0.2491
  117MOL   H25930651   5.093   6.712   5.243  1.0578 -1.7992 -0.7708
  117MOL   H26030652   5.066   6.511   5.164  0.2099  0.1277  0.5515
  117MOL   H26130653   5.143   6.358   5.122  3.4962 -0.3831 -0.3822
  117MOL   H26230654   5.187   6.494   5.035  1.1068 -1.7472 -0.3427
  118MOL     C130655   4.915   4.424   6.932  0.6646 -0.1510 -0.2612
  118MOL     C230656   4.839   4.458   6.805  0.6959  0.6342 -0.2911
  118MOL     C330657   4.816   4.346   6.702  0.2085 -0.0470 -0.4243
  118MOL     C430658   4.904   4.456   6.666  0.2152 -0.0560 -0.5338
  118MOL     C530659   4.916   4.533   7.043  0.5639  0.1955 -0.2403
  118MOL     H630660   4.879   4.330   6.973  1.1555 -1.0053 -1.7573
  118MOL     H730661   4.755   4.526   6.813 -0.1388 -0.4747  0.5002
  118MOL     H830662   4.865   4.249   6.713  1.5256  0.5483 -0.8925
  118MOL     H930663   4.715   4.338   6.662 -0.6085 -0.6228  1.6850
  118MOL    H1030664   4.869   4.532   6.596  2.2702  2.9178  1.5604
  118MOL    H1130665   5.006   4.425   6.650  0.7058  2.1922 -1.9481
  118MOL    H1230666   4.971   4.506   7.133  0.5283 -0.5686 -0.4431
  118MOL    H1330667   4.819   4.544   7.089  0.5656 -2.3343  0.4549
  118MOL    H1430668   5.020   4.424   6.904  0.9160  0.7522  0.6216
  118MOL    C1530669   4.968   4.670   6.992  0.3603 -0.0280  0.1747
  118MOL    C1630670   4.916   4.774   7.085  0.1769 -0.1438 -0.6556
  118MOL    C1730671   4.789   4.844   7.062 -0.1897  0.3153 -0.2552
  118MOL    C1830672   4.923   4.919   7.054  0.2726 -0.5297  0.3614
  118MOL    C1930673   5.130   4.664   6.986  0.4819  0.3409 -0.6805
  118MOL    H2030674   4.928   4.680   6.891  0.8896 -1.4091 -0.1868
  118MOL    H2130675   4.942   4.748   7.188 -1.4826  0.6725 -0.0069
  118MOL    H2230676   4.723   4.836   7.148 -0.5994  0.3561 -0.5675
  118MOL    H2330677   4.744   4.818   6.967 -1.1616  1.8211 -0.2219
  118MOL    H2430678   4.938   4.950   6.951 -2.6783  1.2820  0.4147
  118MOL    H2530679   4.943   4.989   7.135 -0.9670 -0.0012  0.2212
  118MOL    H2630680   5.161   4.560   6.976  0.1099  0.1158  0.5055
  118MOL    H2730681   5.173   4.693   7.082 -1.0089  2.3486 -0.5867
  118MOL    C2830682   5.200   4.756   6.883  0.2790  0.3878 -0.3410
  118MOL    C2930683   5.157   4.716   6.741 -0.8695  1.1108  0.0923
  118MOL    C3030684   5.056   4.800   6.671 -1.2581  0.1164 -0.3345
  118MOL    C3130685   5.196   4.793   6.614 -0.3045 -0.2589  0.5201
  118MOL    C3230686   5.352   4.761   6.901 -0.2526 -0.5457  0.4794
  118MOL    H3330687   5.173   4.860   6.901 -0.4050  0.1454  0.0732
  118MOL    H3430688   5.152   4.608   6.725  0.1370  0.6654  2.4924
  118MOL    H3530689   5.026   4.891   6.722  1.9394  2.2935 -2.2063
  118MOL    H3630690   4.984   4.748   6.609 -0.1509 -1.5524 -0.2443
  118MOL    H3730691   5.259   4.881   6.620 -1.2621  0.5653 -1.2757
  118MOL    H3830692   5.217   4.725   6.532  2.3439  0.6217  0.4382
  118MOL    H3930693   5.392   4.824   6.821  0.0844 -1.7904 -0.3521
  118MOL    H4030694   5.407   4.669   6.879 -0.6976 -0.7047  0.0188
  118MOL    C4130695   5.405   4.803   7.041 -0.2492 -0.4722  0.2959
  118MOL    C4230696   5.494   4.923   7.034 -0.6664 -0.7553 -1.1814
  118MOL    C4330697   5.503   5.027   7.142 -0.2479  0.7940 -1.1421
  118MOL    C4430698   5.429   5.055   7.011 -0.1748  0.0163 -0.0534
  118MOL    C4530699   5.465   4.686   7.124  0.0665  0.1285 -0.0704
  118MOL    H4630700   5.314   4.827   7.096 -0.8299 -0.5355 -0.6108
  118MOL    H4730701   5.593   4.912   6.991 -0.9098 -0.2901 -1.8764
  118MOL    H4830702   5.430   5.027   7.223  0.6674 -0.8755 -0.2870
  118MOL    H4930703   5.588   5.092   7.159 -0.7627  1.2114 -0.1348
  118MOL    H5030704   5.470   5.126   6.940 -1.8122  0.3661 -0.6721
  118MOL    H5130705   5.320   5.051   7.006 -0.0905 -0.8767 -1.4728
  118MOL    H5230706   5.565   4.653   7.095 -0.0303 -1.4011  1.3217
  118MOL    H5330707   5.403   4.599   7.102 -1.0825  0.7056  0.8248
  118MOL    C5430708   5.465   4.708   7.282  0.2499 -0.2894 -0.0794
  118MOL    C5530709   5.322   4.700   7.331  0.1714 -0.2446  1.1358
  118MOL    C5630710   5.236   4.814   7.365  0.0870 -0.4450 -0.0353
  118MOL    C5730711   5.293   4.729   7.479  0.0285 -0.2451  0.4739
  118MOL    C5830712   5.544   4.604   7.362  0.6890 -0.1924  0.0623
  118MOL    H5930713   5.509   4.805   7.304  3.0395 -1.4397 -0.4393
  118MOL    H6030714   5.271   4.611   7.295  1.1169 -0.6939  0.9039
  118MOL    H6130715   5.260   4.919   7.350 -1.7229 -0.1983 -1.3200
  118MOL    H6230716   5.131   4.796   7.342 -0.6786  2.4050  1.0016
  118MOL    H6330717   5.228   4.665   7.538  2.7687 -1.7292  1.9893
  118MOL    H6430718   5.375   4.766   7.540  1.4388  0.8198 -1.9809
  118MOL    H6530719   5.499   4.586   7.460 -0.2338 -1.7337 -0.6333
  118MOL    H6630720   5.537   4.507   7.314 -0.3240 -0.5480  0.9175
  118MOL    C6730721   5.689   4.648   7.378 -0.4619 -0.6318  0.3121
  118MOL    C6830722   5.700   4.742   7.504 -0.0108  0.9052  0.2361
  118MOL    C6930723   5.818   4.838   7.517 -0.0490  0.2835  0.1105
  118MOL    C7030724   5.674   4.890   7.495  0.1736  0.4477 -0.5544
  118MOL    C7130725   5.794   4.539   7.361  0.0882 -0.5537  0.5445
  118MOL    H7230726   5.713   4.717   7.297 -0.8166 -1.6735 -0.6927
  118MOL    H7330727   5.664   4.684   7.589 -0.1501  0.1961 -0.2974
  118MOL    H7430728   5.865   4.853   7.614  0.3543  2.2314 -0.3603
  118MOL    H7530729   5.883   4.854   7.431  0.7695 -0.7289  0.5385
  118MOL    H7630730   5.663   4.929   7.394  0.6015 -1.9221 -1.5510
  118MOL    H7730731   5.619   4.948   7.569 -1.6278  1.0082 -2.2877
  118MOL    H7830732   5.894   4.580   7.347  0.6777 -2.0238  0.3801
  118MOL    H7930733   5.774   4.483   7.270 -0.8017 -1.0490  1.0413
  118MOL    C8030734   5.807   4.437   7.479 -1.0679  0.1058  0.2880
  118MOL    C8130735   5.951   4.402   7.494 -0.0117 -0.2811  0.9393
  118MOL    C8230736   6.016   4.363   7.626  0.2553  0.5924  0.5705
  118MOL    C8330737   6.060   4.488   7.559  0.0469  0.0229 -0.7616
  118MOL    C8430738   5.719   4.312   7.452 -0.2891  0.0046 -0.0493
  118MOL    H8530739   5.782   4.489   7.571  1.4391  0.1782  0.9575
  118MOL    H8630740   5.992   4.358   7.403  3.0294  1.8928  1.1928
  118MOL    H8730741   6.074   4.271   7.621  1.1297  1.1156  0.9600
  118MOL    H8830742   5.942   4.360   7.705 -0.5207  2.6536 -0.0487
  118MOL    H8930743   6.031   4.583   7.603 -1.7266 -1.2407  0.9249
  118MOL    H9030744   6.161   4.487   7.520  0.3073  3.6233 -0.2934
  118MOL    H9130745   5.614   4.341   7.442 -1.0046 -2.2854  0.4109
  118MOL    H9230746   5.736   4.269   7.354 -0.8402 -0.7987  0.1980
  118MOL    C9330747   5.714   4.214   7.574  0.9942  0.0334 -0.2865
  118MOL    C9430748   5.568   4.184   7.615 -0.3095  0.4498  1.2232
  118MOL    C9530749   5.527   4.141   7.756  0.0501 -0.5373 -0.1442
  118MOL    C9630750   5.494   4.280   7.704  0.4036 -0.4863  0.6284
  118MOL    C9730751   5.794   4.086   7.542  0.2592  0.3763 -0.1912
  118MOL    H9830752   5.763   4.269   7.654  3.0017  0.1303 -1.5632
  118MOL    H9930753   5.512   4.138   7.533 -0.4274  0.2155  1.4363
  118MOL   H10030754   5.441   4.077   7.774  0.9551 -2.3961 -2.1343
  118MOL   H10130755   5.607   4.139   7.829  0.7288  0.1310 -0.8556
  118MOL   H10230756   5.386   4.287   7.697  0.3371 -2.2774 -0.4418
  118MOL   H10330757   5.555   4.356   7.753  0.5519 -0.0890 -0.1536
  118MOL   H10430758   5.812   4.031   7.634  1.0000 -0.6300 -0.9300
  118MOL   H10530759   5.897   4.107   7.513  1.0650 -3.0874 -0.0640
  118MOL   C10630760   5.734   3.987   7.435  0.2094 -0.2254 -0.0146
  118MOL   C10730761   5.842   3.940   7.341 -0.1428  0.5517  0.4454
  118MOL   C10830762   5.817   3.926   7.192  0.4080 -0.0180 -0.0905
  118MOL   C10930763   5.916   4.026   7.243  0.8218 -0.1761 -0.6317
  118MOL   C11030764   5.678   3.858   7.507 -0.5389  0.4283  0.0738
  118MOL   H11130765   5.661   4.047   7.382  2.2725  3.6815  1.3433
  118MOL   H11230766   5.887   3.850   7.383 -0.1861  0.3709  0.1069
  118MOL   H11330767   5.867   3.851   7.132  0.0369  0.5956 -1.1859
  118MOL   H11430768   5.724   3.962   7.148 -0.8312 -1.8862  0.9134
  118MOL   H11530769   5.900   4.132   7.226  0.2913  0.1651  1.8442
  118MOL   H11630770   6.015   3.987   7.222  0.3436 -1.4846 -0.5036
  118MOL   H11730771   5.754   3.814   7.571  0.9029  0.0292 -1.8461
  118MOL   H11830772   5.607   3.891   7.583  1.0878  0.5819  1.5284
  118MOL   C11930773   5.600   3.753   7.424 -0.8851  0.2112 -0.5297
  118MOL   C12030774   5.604   3.626   7.502 -0.0786  0.1780 -0.2604
  118MOL   C12130775   5.717   3.540   7.534 -0.0763 -0.1191 -0.2533
  118MOL   C12230776   5.595   3.487   7.450 -0.4100 -0.6046  0.1391
  118MOL   C12330777   5.458   3.793   7.379 -0.0260 -0.5556  0.4605
  118MOL   H12430778   5.666   3.744   7.338 -0.0921 -2.3839  0.3346
  118MOL   H12530779   5.542   3.642   7.590 -0.9704 -0.1189 -0.8190
  118MOL   H12630780   5.731   3.512   7.638  0.9005  0.2808 -0.2753
  118MOL   H12730781   5.809   3.579   7.491  0.2098 -0.0561  0.4096
  118MOL   H12830782   5.601   3.475   7.342 -0.9121 -1.2391  0.1787
  118MOL   H12930783   5.513   3.432   7.497 -2.4325 -0.0800 -2.5917
  118MOL   H13030784   5.388   3.781   7.462  0.3215 -1.7676  0.5820
  118MOL   H13130785   5.466   3.899   7.353 -0.1502 -1.0733 -1.7881
  118MOL   C13230786   5.406   3.726   7.242 -1.1503  0.0895 -0.1239
  118MOL   C13330787   5.498   3.746   7.119 -0.2113 -0.1543  0.3398
  118MOL   C13430788   5.503   3.630   7.018 -0.3349  0.5651  0.1420
  118MOL   C13530789   5.630   3.671   7.094  0.1744  0.7018 -0.3595
  118MOL   C13630790   5.258   3.749   7.216 -0.5999  0.0175  0.4668
  118MOL   H13730791   5.411   3.620   7.267  1.6764  0.5481  1.4717
  118MOL   H13830792   5.483   3.846   7.081 -2.0404 -0.1998  0.8982
  118MOL   H13930793   5.447   3.543   7.052 -1.7558  0.9938 -1.0458
  118MOL   H14030794   5.505   3.648   6.911 -2.1348 -0.8200 -0.1518
  118MOL   H14130795   5.660   3.608   7.177  2.3931  0.7516 -1.1176
  118MOL   H14230796   5.708   3.711   7.031 -1.0376  0.6339 -1.9290
  118MOL   H14330797   5.245   3.696   7.121 -0.7985 -0.3283  0.6885
  118MOL   H14430798   5.195   3.703   7.292 -1.4515 -0.1488 -0.3327
  118MOL   C14530799   5.211   3.889   7.192  0.1389 -0.0480  0.1389
  118MOL   C14630800   5.094   3.881   7.090 -0.2587  0.0924 -0.6639
  118MOL   C14730801   5.077   3.983   6.984  0.3135  0.4869 -0.1177
  118MOL   C14830802   5.110   3.841   6.945  0.0814  0.4936  0.0189
  118MOL   C14930803   5.177   3.972   7.323 -0.7533  0.0989 -0.2290
  118MOL   H15030804   5.294   3.936   7.139 -0.4696  1.2650  0.3358
  118MOL   H15130805   4.998   3.851   7.131 -0.1892  1.8796  0.8587
  118MOL   H15230806   4.974   4.014   6.963  0.3874 -0.1448 -1.4490
  118MOL   H15330807   5.156   4.056   6.968  0.6473  0.0694 -0.3817
  118MOL   H15430808   5.209   3.814   6.908 -0.3018 -0.9414  0.0218
  118MOL   H15530809   5.029   3.785   6.900  1.8169 -1.0707 -1.2367
  118MOL   H15630810   5.118   3.924   7.401  0.9646 -0.1084  0.9687
  118MOL   H15730811   5.270   3.999   7.372 -1.4487  0.3926  0.9657
  118MOL   C15830812   5.119   4.110   7.291  0.3490 -0.5769 -1.1265
  118MOL   C15930813   5.171   4.209   7.390  1.2286  0.1284 -0.7544
  118MOL   C16030814   5.304   4.285   7.360 -0.2680 -0.4264 -0.3161
  118MOL   C16130815   5.169   4.357   7.368 -0.3829  0.5152  0.2343
  118MOL   C16230816   4.964   4.130   7.279  0.4443  0.3143 -0.6889
  118MOL   H16330817   5.158   4.129   7.191  0.1261  0.1720 -1.0694
  118MOL   H16430818   5.173   4.173   7.493 -1.3499 -1.3441 -1.1837
  118MOL   H16530819   5.347   4.272   7.261 -0.6936 -0.4198 -0.5004
  118MOL   H16630820   5.374   4.311   7.438  1.0530  0.2446 -1.6937
  118MOL   H16730821   5.150   4.420   7.455 -1.8504  1.7207 -0.9189
  118MOL   H16830822   5.115   4.388   7.279  0.0407 -1.8659 -0.8908
  118MOL   H16930823   4.928   4.084   7.188  0.0206  1.9001 -1.3484
  118MOL   H17030824   4.950   4.238   7.277 -0.2394  0.2085 -1.6463
  118MOL   C17130825   4.879   4.084   7.402 -0.2077  0.0864  0.5371
  118MOL   C17230826   4.749   4.160   7.413 -0.6672  0.6902 -0.3089
  118MOL   C17330827   4.675   4.190   7.544 -0.4656 -0.6943  0.2288
  118MOL   C17430828   4.740   4.299   7.467 -0.0753 -0.5064  0.7984
  118MOL   C17530829   4.851   3.934   7.398  0.9608  0.5367 -0.1262
  118MOL   H17630830   4.932   4.110   7.494 -1.1478 -1.0661  1.4272
  118MOL   H17730831   4.688   4.149   7.324 -0.2082 -1.7816 -0.3704
  118MOL   H17830832   4.574   4.155   7.529 -0.5906 -0.3430  0.2351
  118MOL   H17930833   4.730   4.148   7.628  0.8817  1.2470  0.3675
  118MOL   H18030834   4.842   4.325   7.492  0.1303 -0.2033 -0.3516
  118MOL   H18130835   4.684   4.380   7.421  0.5619  0.0051  0.9147
  118MOL   H18230836   4.934   3.888   7.344  0.3668  0.6964 -1.1872
  118MOL   H18330837   4.766   3.913   7.333  1.5236  0.3564 -0.8084
  118MOL   C18430838   4.834   3.838   7.523 -0.0162 -0.3894 -0.0924
  118MOL   C18530839   4.963   3.836   7.615  0.7502 -0.4738  0.8015
  118MOL   C18630840   5.062   3.728   7.608  0.3762 -0.4089  0.2516
  118MOL   C18730841   4.991   3.755   7.742  0.2075  0.4507  0.3740
  118MOL   C18830842   4.788   3.691   7.478 -0.5787  0.3191 -0.3367
  118MOL   H18930843   4.760   3.885   7.587  0.5002  0.2223  0.0589
  118MOL   H19030844   5.009   3.934   7.619  0.6068 -0.4446  1.9355
  118MOL   H19130845   5.161   3.774   7.605 -0.5622  1.8408  1.7913
  118MOL   H19230846   5.040   3.643   7.544  1.7961 -0.0644 -0.7285
  118MOL   H19330847   5.058   3.786   7.822 -0.8808 -0.2045  1.5770
  118MOL   H19430848   4.911   3.688   7.773  0.2824 -0.4342 -1.3379
  118MOL   H19530849   4.808   3.621   7.559  2.3784 -0.5284 -1.7010
  118MOL   H19630850   4.863   3.645   7.414  0.7722 -3.2307  3.6085
  118MOL   C19730851   4.654   3.671   7.412 -0.9114  0.0070 -0.1684
  118MOL   C19830852   4.548   3.725   7.515 -0.5326 -0.7608 -0.0457
  118MOL   C19930853   4.412   3.767   7.478 -0.6744  0.4288 -0.4165
  118MOL   C20030854   4.514   3.872   7.510  0.7511 -0.1093 -0.7980
  118MOL   C20130855   4.626   3.519   7.396  0.2417 -0.6193  0.1183
  118MOL   H20230856   4.644   3.732   7.322  1.2803  1.3408  0.4404
  118MOL   H20330857   4.568   3.699   7.619 -3.4354  3.1285  1.6392
  118MOL   H20430858   4.375   3.761   7.376  1.0007  0.8386 -1.0677
  118MOL   H20530859   4.337   3.748   7.555  0.8106 -1.3195  0.6487
  118MOL   H20630860   4.554   3.936   7.432  1.6413  1.9882  1.3050
  118MOL   H20730861   4.516   3.918   7.609  1.6146 -0.6669 -0.5478
  118MOL   H20830862   4.640   3.463   7.489  1.4240 -1.8634 -0.7993
  118MOL   H20930863   4.518   3.514   7.384  0.2754  0.2193 -0.6087
  118MOL   C21030864   4.688   3.451   7.267 -0.3339  0.7112 -0.0641
  118MOL   C21130865   4.637   3.519   7.143 -0.4790 -0.1134  0.1093
  118MOL   C21230866   4.607   3.435   7.017 -0.3213 -0.3714 -0.0893
  118MOL   C21330867   4.491   3.503   7.096 -0.1061  0.2646 -0.4457
  118MOL   C21430868   4.843   3.430   7.270 -0.2282 -0.1651 -0.8642
  118MOL   H21530869   4.637   3.355   7.271 -0.5363  0.8570  0.8488
  118MOL   H21630870   4.676   3.617   7.117 -1.4456 -0.6580 -3.6675
  118MOL   H21730871   4.629   3.482   6.922 -0.1967 -1.3659 -0.5585
  118MOL   H21830872   4.638   3.331   7.023  0.6713 -0.0879 -0.1848
  118MOL   H21930873   4.438   3.577   7.037  1.2658  3.0143  1.6939
  118MOL   H22030874   4.442   3.424   7.152 -1.2624  1.2682 -0.0419
  118MOL   H22130875   4.893   3.522   7.239 -1.2876  1.4137  1.9917
  118MOL   H22230876   4.862   3.417   7.376  0.6690  1.5706 -0.7939
  118MOL   C22330877   4.908   3.311   7.188  0.2975 -0.1790 -0.6965
  118MOL   C22430878   4.861   3.170   7.237  0.1780 -0.8839 -0.2712
  118MOL   C22530879   4.720   3.113   7.216  0.4998 -0.1332 -0.4228
  118MOL   C22630880   4.827   3.059   7.138  0.1708  0.1223  0.3607
  118MOL   C22730881   5.061   3.328   7.189  0.4320  0.2620 -0.2549
  118MOL   H22830882   4.868   3.326   7.087  0.8881 -0.2272 -0.9428
  118MOL   H22930883   4.912   3.132   7.325  3.8736  0.1158 -1.8997
  118MOL   H23030884   4.643   3.162   7.157 -0.7240 -0.1163  1.1556
  118MOL   H23130885   4.682   3.048   7.296  2.3738  0.2884  0.8542
  118MOL   H23230886   4.870   2.962   7.162 -0.5166  0.0050  1.1212
  118MOL   H23330887   4.839   3.087   7.033 -0.5043  0.3912  0.3496
  118MOL   H23430888   5.099   3.428   7.168  1.7520 -0.5163 -1.7037
  118MOL   H23530889   5.088   3.308   7.293  0.1995 -0.9843 -0.4233
  118MOL   C23630890   5.145   3.232   7.099 -0.1241  0.1373 -0.5614
  118MOL   C23730891   5.293   3.235   7.124  0.6488 -0.4781  0.0139
  118MOL   C23830892   5.350   3.189   7.256  0.3818 -0.0310  0.6306
  118MOL   C23930893   5.387   3.117   7.127 -0.2628 -0.2298  0.1136
  118MOL   C24030894   5.104   3.251   6.953 -0.4862 -0.2046 -0.0021
  118MOL   H24130895   5.125   3.131   7.133  1.0616  0.4195  1.0156
  118MOL   H24230896   5.335   3.329   7.089 -0.3556 -0.8242 -2.1403
  118MOL   H24330897   5.420   3.259   7.301  2.0290  0.7362 -2.9595
  118MOL   H24430898   5.289   3.127   7.321  3.1240 -1.2529  2.1057
  118MOL   H24530899   5.345   3.020   7.101  1.2419 -1.0868  0.8308
  118MOL   H24630900   5.489   3.137   7.096 -0.1629 -0.2622  0.4196
  118MOL   H24730901   5.142   3.166   6.897  0.6024  0.3800 -0.1622
  118MOL   H24830902   4.995   3.248   6.945 -0.5653 -0.7032  1.2829
  118MOL   C24930903   5.147   3.377   6.874  0.3835  0.2886  1.0739
  118MOL   C25030904   5.044   3.407   6.767  0.2693  0.7118  0.3111
  118MOL   C25130905   4.930   3.501   6.795 -0.0494 -0.9216 -0.0928
  118MOL   C25230906   5.037   3.547   6.702  0.0814  0.2316 -0.6319
  118MOL   C25330907   5.285   3.342   6.797 -1.0518  0.0144 -0.2356
  118MOL   H25430908   5.155   3.467   6.935  0.8846  0.4651  0.7552
  118MOL   H25530909   5.015   3.318   6.712  0.8351 -0.3451  1.6796
  118MOL   H25630910   4.830   3.480   6.757  0.0225 -1.2195 -0.1191
  118MOL   H25730911   4.931   3.553   6.890 -2.1152  2.6118 -1.9068
  118MOL   H25830912   5.023   3.551   6.594  1.7347  1.4431 -0.8277
  118MOL   H25930913   5.111   3.609   6.752 -0.9959  1.2308 -0.2238
  118MOL   H26030914   5.292   3.415   6.716  0.7200 -0.3909 -0.4587
  118MOL   H26130915   5.291   3.247   6.745  0.1116 -0.0826  0.0669
  118MOL   H26230916   5.364   3.374   6.864 -0.9613  1.2508 -0.9120
  119MOL     C130917   4.559   3.648   6.465 -0.0560  0.4299 -1.2725
  119MOL     C230918   4.440   3.739   6.454 -0.2021 -0.0370  0.0385
  119MOL     C330919   4.354   3.739   6.332 -0.3147 -0.3921  0.5184
  119MOL     C430920   4.444   3.858   6.360  0.1393 -0.6778 -0.3999
  119MOL     C530921   4.513   3.502   6.484  0.0805  0.1884  0.0310
  119MOL     H630922   4.626   3.668   6.382 -0.2299  1.4148 -1.1829
  119MOL     H730923   4.382   3.757   6.544 -2.5577 -3.1098 -0.7564
  119MOL     H830924   4.375   3.668   6.252 -0.4277  1.4424 -1.1646
  119MOL     H930925   4.248   3.764   6.336  0.2874  2.4437 -0.1228
  119MOL    H1030926   4.414   3.954   6.402  2.6166 -0.1735  0.3119
  119MOL    H1130927   4.540   3.868   6.310 -0.5380  0.7727 -1.4710
  119MOL    H1230928   4.422   3.483   6.426 -0.3303  3.7753 -0.6133
  119MOL    H1330929   4.497   3.491   6.591  2.2253  2.1880  0.6018
  119MOL    H1430930   4.623   3.682   6.547  0.6183 -0.6740 -1.3317
  119MOL    C1530931   4.614   3.396   6.434 -0.2562 -0.1483 -0.5329
  119MOL    C1630932   4.588   3.263   6.496  0.2368  0.1889  0.9607
  119MOL    C1730933   4.618   3.245   6.633 -0.2558  0.1001  0.2288
  119MOL    C1830934   4.680   3.150   6.531 -0.7870  0.2376  0.2669
  119MOL    C1930935   4.612   3.391   6.286 -0.1086  0.2233  0.4058
  119MOL    H2030936   4.710   3.423   6.478 -0.4251 -0.4323  0.0264
  119MOL    H2130937   4.497   3.227   6.449  0.2294  3.5129 -1.8605
  119MOL    H2230938   4.530   3.208   6.685  1.2941 -0.9754  2.1562
  119MOL    H2330939   4.684   3.309   6.692  1.3780 -0.0941 -1.3459
  119MOL    H2430940   4.786   3.165   6.512 -0.5538 -0.5048  0.9494
  119MOL    H2530941   4.654   3.045   6.537 -1.0343  0.3467  1.2578
  119MOL    H2630942   4.577   3.484   6.240 -1.7762 -0.5208  0.1396
  119MOL    H2730943   4.541   3.315   6.253 -1.4657  1.7366 -0.2596
  119MOL    C2830944   4.749   3.349   6.221  0.9755 -0.6680  0.1749
  119MOL    C2930945   4.853   3.459   6.242 -0.5412 -0.4206  0.4352
  119MOL    C3030946   4.945   3.470   6.361 -0.2422  0.8313 -0.6762
  119MOL    C3130947   4.998   3.413   6.235 -0.1758 -0.6963  0.5104
  119MOL    C3230948   4.729   3.329   6.069 -0.0367  0.1251  0.3788
  119MOL    H3330949   4.785   3.259   6.270  0.6182 -0.1406  1.4214
  119MOL    H3430950   4.839   3.547   6.179 -0.6425  0.3809  1.5683
  119MOL    H3530951   4.947   3.395   6.440 -0.6974  0.0371 -1.4107
  119MOL    H3630952   4.949   3.572   6.398 -2.2532  1.1645 -1.3149
  119MOL    H3730953   5.005   3.305   6.233  1.1363 -0.6036 -1.7032
  119MOL    H3830954   5.062   3.472   6.170 -0.4785  0.1024  0.9305
  119MOL    H3930955   4.827   3.328   6.022 -0.0378 -2.1635  0.3621
  119MOL    H4030956   4.676   3.415   6.027 -0.0114  1.0991  2.3128
  119MOL    C4130957   4.668   3.194   6.024  0.2144 -0.5853 -0.2457
  119MOL    C4230958   4.758   3.069   6.059 -0.2658  0.2471  0.1399
  119MOL    C4330959   4.864   3.020   5.959 -0.3501  0.0223  0.0543
  119MOL    C4430960   4.748   2.935   5.993 -0.6740  0.3759  0.5636
  119MOL    C4530961   4.617   3.197   5.874 -0.2797 -0.3426 -0.2045
  119MOL    H4630962   4.581   3.179   6.088 -0.4888  0.2327 -0.9916
  119MOL    H4730963   4.787   3.065   6.164 -1.6340  1.5449  0.5818
  119MOL    H4830964   4.873   3.070   5.862 -1.1600 -0.0977 -0.0809
  119MOL    H4930965   4.960   3.001   6.008 -0.9924  0.1700  1.3847
  119MOL    H5030966   4.778   2.851   6.056 -1.4003 -0.1967  0.1611
  119MOL    H5130967   4.684   2.919   5.907  1.2392  0.9272 -0.9889
  119MOL    H5230968   4.563   3.103   5.860 -2.3488  1.1048 -2.1825
  119MOL    H5330969   4.702   3.190   5.806  0.2472  0.6145  0.3427
  119MOL    C5430970   4.515   3.304   5.824 -1.0163 -0.1347  0.7109
  119MOL    C5530971   4.513   3.302   5.668  0.5373 -0.2639 -0.1200
  119MOL    C5630972   4.639   3.348   5.593  0.3046 -0.3161 -0.1201
  119MOL    C5730973   4.512   3.436   5.598  0.5411  0.2245 -0.7722
  119MOL    C5830974   4.371   3.290   5.876 -0.0539  0.1340 -0.0869
  119MOL    H5930975   4.557   3.403   5.841 -1.4307 -0.3300  2.9750
  119MOL    H6030976   4.459   3.224   5.616 -0.3742 -1.1641  2.1152
  119MOL    H6130977   4.717   3.400   5.647  0.9304 -0.8677 -0.4937
  119MOL    H6230978   4.666   3.302   5.498 -2.3012  2.2632 -2.2172
  119MOL    H6330979   4.455   3.437   5.505 -0.0277 -1.8537 -0.4765
  119MOL    H6430980   4.512   3.527   5.658  0.3833 -1.2008  1.4197
  119MOL    H6530981   4.331   3.193   5.843  0.7789 -1.1826  2.6250
  119MOL    H6630982   4.362   3.288   5.985  0.1374 -2.3409 -0.0833
  119MOL    C6730983   4.270   3.394   5.828 -1.0710  0.3423 -0.4642
  119MOL    C6830984   4.134   3.339   5.874  0.3954 -0.1404 -0.3029
  119MOL    C6930985   4.009   3.361   5.795 -0.8323  0.8205  0.0854
  119MOL    C7030986   4.058   3.216   5.815 -0.2083  0.3092 -0.1112
  119MOL    C7130987   4.290   3.530   5.889 -0.4765  0.2387 -0.0842
  119MOL    H7230988   4.283   3.401   5.719  3.2637 -1.3301 -0.1683
  119MOL    H7330989   4.118   3.351   5.981  0.6330  0.7164 -0.3666
  119MOL    H7430990   3.915   3.387   5.843  0.6986  2.6706  2.1805
  119MOL    H7530991   4.028   3.418   5.704  1.0601 -0.7658 -0.5440
  119MOL    H7630992   4.102   3.172   5.725 -1.9901  0.5160 -1.1202
  119MOL    H7730993   4.007   3.151   5.886  1.8507  0.5900  1.6584
  119MOL    H7830994   4.396   3.552   5.872 -0.4686 -1.8399 -3.1665
  119MOL    H7930995   4.277   3.518   5.996 -0.5300 -0.2886 -0.1437
  119MOL    C8030996   4.202   3.654   5.850  0.3067 -0.1704 -1.6057
  119MOL    C8130997   4.247   3.691   5.713  0.0863  0.0221  0.6667
  119MOL    C8230998   4.163   3.789   5.626  0.3689 -0.1780 -0.5854
  119MOL    C8330999   4.180   3.648   5.587 -0.2731 -0.4746 -0.4100
  119MOL    C8431000   4.229   3.772   5.947 -0.0038 -0.4539 -0.0977
  119MOL    H8531001   4.095   3.632   5.848 -0.4788  3.3736 -1.2302
  119MOL    H8631002   4.353   3.713   5.703  0.0514  0.9068  2.2486
  119MOL    H8731003   4.223   3.849   5.558 -1.1676  1.7124 -0.3001
  119MOL    H8831004   4.063   3.804   5.666 -0.0258 -0.8519 -1.3107
  119MOL    H8931005   4.092   3.585   5.589 -1.0130  0.5812  0.3969
  119MOL    H9031006   4.251   3.618   5.510  1.2187  0.8682  0.3963
  119MOL    H9131007   4.241   3.743   6.051  1.4117 -0.8236 -0.3562
  119MOL    H9231008   4.319   3.822   5.911 -1.6592  1.5610 -1.5229
  119MOL    C9331009   4.124   3.887   5.959 -0.4417  0.5998 -0.0708
  119MOL    C9431010   3.982   3.842   6.004 -0.7135  0.0589 -0.0464
  119MOL    C9531011   3.862   3.923   5.960  0.4401 -0.5977 -0.2524
  119MOL    C9631012   3.876   3.774   5.921  0.6100 -0.0287 -0.5136
  119MOL    C9731013   4.183   4.010   6.032  0.8530  0.6360 -0.8658
  119MOL    H9831014   4.107   3.922   5.857 -3.0879  2.6279  1.0063
  119MOL    H9931015   3.986   3.817   6.110  0.8098  1.5534  0.2628
  119MOL   H10031016   3.759   3.930   5.994  0.4407  1.6133 -0.6352
  119MOL   H10131017   3.881   3.987   5.874  4.1764  0.0780  0.9671
  119MOL   H10231018   3.825   3.690   5.969  1.4826  0.4534  1.2966
  119MOL   H10331019   3.896   3.764   5.814  0.6835  2.6796 -0.7913
  119MOL   H10431020   4.289   3.995   6.055  0.3851  0.5681  1.3809
  119MOL   H10531021   4.124   4.030   6.122 -1.4583  0.6292 -2.3640
  119MOL   C10631022   4.167   4.135   5.938  0.2362  0.0763 -0.5838
  119MOL   C10731023   4.178   4.257   6.020  0.3353 -1.2413 -0.5202
  119MOL   C10831024   4.108   4.392   5.979 -0.2202 -0.1897  0.3811
  119MOL   C10931025   4.056   4.317   6.097 -0.2955 -0.2540  0.2464
  119MOL   C11031026   4.286   4.132   5.838  0.2815 -0.2318 -0.2705
  119MOL   H11131027   4.068   4.131   5.891  0.3162 -0.8410 -0.6818
  119MOL   H11231028   4.274   4.277   6.067 -0.4565 -0.7196  0.9061
  119MOL   H11331029   4.174   4.477   5.997 -0.7308  0.4147 -0.5751
  119MOL   H11431030   4.043   4.401   5.893 -0.4868 -0.8346  0.5068
  119MOL   H11531031   3.961   4.264   6.087 -0.1976 -0.8989  2.3353
  119MOL   H11631032   4.074   4.372   6.189  0.7457 -1.8375  1.0303
  119MOL   H11731033   4.379   4.157   5.891 -0.3948  2.4184 -0.2283
  119MOL   H11831034   4.296   4.034   5.792  1.2139 -0.0088 -0.5524
  119MOL   C11931035   4.277   4.239   5.726  0.0221 -0.5966  0.8413
  119MOL   C12031036   4.416   4.261   5.661  0.1382 -0.4608 -0.7067
  119MOL   C12131037   4.511   4.356   5.733 -0.0819 -0.3004  0.6031
  119MOL   C12231038   4.458   4.394   5.599 -0.6177 -0.5931  0.6607
  119MOL   C12331039   4.171   4.205   5.616 -0.3767 -0.6423 -0.2573
  119MOL   H12431040   4.253   4.333   5.775  1.8911  1.1884 -1.4881
  119MOL   H12531041   4.458   4.171   5.617 -1.1995 -1.0930 -0.7123
  119MOL   H12631042   4.616   4.329   5.738  0.1185  0.3725  0.0751
  119MOL   H12731043   4.464   4.385   5.826  0.3049 -1.3078  1.1238
  119MOL   H12831044   4.392   4.480   5.589  0.3707 -0.0699 -1.6899
  119MOL   H12931045   4.528   4.386   5.516  1.0464 -0.5348  2.0277
  119MOL   H13031046   4.204   4.116   5.563 -1.3549 -0.4639 -1.1908
  119MOL   H13131047   4.081   4.170   5.669  0.0508  1.2062  1.7492
  119MOL   C13231048   4.113   4.318   5.527 -0.2515  0.0089  0.2441
  119MOL   C13331049   4.027   4.425   5.596 -0.4596  0.3362  0.4123
  119MOL   C13431050   4.006   4.546   5.510 -0.1159  0.4063 -0.4596
  119MOL   C13531051   4.091   4.554   5.635  0.0454 -0.2228  0.1437
  119MOL   C13631052   4.034   4.267   5.403  0.1914  0.0521 -0.1053
  119MOL   H13731053   4.199   4.371   5.484 -0.8447  2.2165  1.6688
  119MOL   H13831054   3.936   4.398   5.649 -0.9763  1.7503  0.2638
  119MOL   H13931055   4.047   4.545   5.409  0.1547  1.2705 -0.3650
  119MOL   H14031056   3.922   4.614   5.517  0.4806  1.0629  0.3680
  119MOL   H14131057   4.196   4.579   5.623  0.1517 -0.5999  0.2934
  119MOL   H14231058   4.039   4.602   5.718  1.0701 -0.5327  0.9873
  119MOL   H14331059   3.972   4.343   5.355 -1.0995  0.7307  2.5393
  119MOL   H14431060   4.112   4.238   5.333  0.1753  0.2713 -0.2136
  119MOL   C14531061   3.951   4.141   5.420  0.3429  0.1225 -0.6887
  119MOL   C14631062   3.812   4.164   5.477  1.1248 -0.7170  0.4030
  119MOL   C14731063   3.723   4.050   5.530  0.0055  0.0021  0.1720
  119MOL   C14831064   3.788   4.150   5.626 -0.2640  0.3495 -0.4346
  119MOL   C14931065   3.930   4.070   5.285  1.1979 -0.0333 -0.3934
  119MOL   H15031066   4.004   4.065   5.477  0.2650  0.9331  0.4953
  119MOL   H15131067   3.751   4.238   5.426  2.2118  1.3136  1.9740
  119MOL   H15231068   3.615   4.054   5.518 -0.0142 -0.5349  0.1669
  119MOL   H15331069   3.748   3.944   5.520  0.2015 -0.0722  1.3628
  119MOL   H15431070   3.860   4.109   5.696 -0.5633 -2.1563 -1.5503
  119MOL   H15531071   3.722   4.219   5.679  1.4271  1.6479  0.0096
  119MOL   H15631072   3.870   3.979   5.288  0.7541  0.2486 -0.6630
  119MOL   H15731073   3.859   4.128   5.227 -0.3009 -0.4180  1.0017
  119MOL   C15831074   4.049   4.032   5.196 -1.0169  0.0225 -0.4041
  119MOL   C15931075   3.994   4.005   5.056  0.3084  0.0502 -0.5203
  119MOL   C16031076   3.933   4.121   4.975  0.4525  0.5649 -0.2826
  119MOL   C16131077   4.066   4.052   4.935  0.0255  0.0886 -1.1254
  119MOL   C16231078   4.136   3.921   5.255  0.2787 -0.0270  0.2034
  119MOL   H16331079   4.108   4.122   5.182 -1.1966  0.1018 -0.6649
  119MOL   H16431080   3.950   3.907   5.040 -0.0682  0.2651 -0.8192
  119MOL   H16531081   3.945   4.222   5.013  0.4784 -0.4867  2.5568
  119MOL   H16631082   3.846   4.096   4.914 -1.1322 -1.3077  2.6602
  119MOL   H16731083   4.074   3.968   4.865 -0.8820 -0.8873 -0.0773
  119MOL   H16831084   4.154   4.113   4.953  0.2053 -0.7218  0.8314
  119MOL   H16931085   4.100   3.819   5.238 -2.0235  0.9176 -0.7371
  119MOL   H17031086   4.128   3.916   5.364 -0.4870 -1.3907  0.0948
  119MOL   C17131087   4.290   3.927   5.213 -0.0715 -0.1806 -0.1940
  119MOL   C17231088   4.367   4.026   5.305 -0.3445 -0.1450 -0.5688
  119MOL   C17331089   4.497   4.094   5.260  0.6592 -0.5675  0.0597
  119MOL   C17431090   4.370   4.175   5.277 -0.7815  0.7799  0.1408
  119MOL   C17531091   4.363   3.794   5.226  0.1780 -0.3468 -0.4664
  119MOL   H17631092   4.296   3.966   5.112  1.3448 -0.8209 -0.3791
  119MOL   H17731093   4.378   3.997   5.409  2.7688  0.3970 -0.7104
  119MOL   H17831094   4.566   4.103   5.344  0.8785 -0.2156 -0.1571
  119MOL   H17931095   4.534   4.090   5.158  0.1379 -1.9455 -0.0854
  119MOL   H18031096   4.310   4.206   5.192  0.5312  1.7096 -0.4605
  119MOL   H18131097   4.358   4.246   5.358 -0.1103  1.1823 -0.1142
  119MOL   H18231098   4.324   3.757   5.321 -1.8728  1.3305 -0.6303
  119MOL   H18331099   4.469   3.818   5.231  0.0388  0.3340 -0.7132
  119MOL   C18431100   4.343   3.691   5.109 -0.5040  0.2755  0.2838
  119MOL   C18531101   4.377   3.555   5.164 -0.1165 -0.0984  0.0430
  119MOL   C18631102   4.341   3.419   5.100 -0.7783  0.4487 -0.1105
  119MOL   C18731103   4.266   3.469   5.225  0.0254 -0.1200  1.0633
  119MOL   C18831104   4.420   3.722   4.974  0.5750  0.1393 -0.3072
  119MOL   H18931105   4.237   3.699   5.087 -0.7938 -0.3427  1.4620
  119MOL   H19031106   4.472   3.545   5.216  0.1769 -2.1784 -0.8059
  119MOL   H19131107   4.404   3.335   5.126 -2.6722 -1.1451 -0.5598
  119MOL   H19231108   4.280   3.412   5.010  1.9776 -0.2320 -1.9857
  119MOL   H19331109   4.284   3.410   5.315  0.2978  1.4927  2.0847
  119MOL   H19431110   4.162   3.501   5.214  0.4868  1.4840  1.2351
  119MOL   H19531111   4.524   3.739   5.000  1.0048  0.5770 -2.2726
  119MOL   H19631112   4.393   3.823   4.946  2.5455  0.4884 -1.0238
  119MOL   C19731113   4.396   3.636   4.851  0.6237  0.2476  0.3363
  119MOL   C19831114   4.494   3.689   4.742 -0.1562  0.3231 -0.3796
  119MOL   C19931115   4.568   3.600   4.642  0.0260 -0.2043 -0.0591
  119MOL   C20031116   4.646   3.664   4.759  0.2568 -0.6784  0.2700
  119MOL   C20131117   4.245   3.638   4.808 -0.0864 -0.2186 -0.6041
  119MOL   H20231118   4.433   3.537   4.875 -0.7523 -0.9097 -2.1376
  119MOL   H20331119   4.468   3.792   4.715 -1.6744  0.4663  1.5562
  119MOL   H20431120   4.548   3.493   4.650  0.7952 -0.5500 -2.3541
  119MOL   H20531121   4.562   3.642   4.542  1.3405 -0.3995 -0.2266
  119MOL   H20631122   4.678   3.587   4.829 -2.1565 -2.7572 -0.8056
  119MOL   H20731123   4.717   3.744   4.743 -0.3190 -0.4686 -1.3812
  119MOL   H20831124   4.173   3.605   4.883 -2.5900  0.1445 -2.7668
  119MOL   H20931125   4.213   3.742   4.802 -0.4751 -0.2349  0.9089
  119MOL   C21031126   4.210   3.552   4.687  0.4270  0.3070 -0.2195
  119MOL   C21131127   4.189   3.404   4.732 -0.4850  0.3312 -0.0160
  119MOL   C21231128   4.207   3.268   4.646 -0.4448 -1.1326 -0.5688
  119MOL   C21331129   4.308   3.308   4.759  0.2306  0.6215  0.2999
  119MOL   C21431130   4.089   3.605   4.611 -0.5767  0.7930  0.1823
  119MOL   H21531131   4.286   3.565   4.610  1.1915  0.4849  0.5576
  119MOL   H21631132   4.114   3.398   4.811 -0.8337  2.4220 -0.1710
  119MOL   H21731133   4.130   3.192   4.663 -1.1927 -0.3053 -0.2237
  119MOL   H21831134   4.239   3.283   4.543 -0.0122 -1.6648 -0.5153
  119MOL   H21931135   4.315   3.239   4.843 -2.2211  0.1745  0.1728
  119MOL   H22031136   4.408   3.345   4.736  0.6230 -1.8158 -2.2629
  119MOL   H22131137   4.053   3.516   4.560  1.6909 -0.1374  0.1745
  119MOL   H22231138   4.004   3.620   4.679  1.2754  0.3619  2.6579
  119MOL   C22331139   4.110   3.719   4.507 -0.1296  0.0510  0.1448
  119MOL   C22431140   4.136   3.853   4.567  0.1152  0.5950  0.2855
  119MOL   C22531141   4.277   3.914   4.569  1.0235 -0.8410  0.1747
  119MOL   C22631142   4.171   3.969   4.478 -0.6313 -0.5610  0.5028
  119MOL   C22731143   3.986   3.737   4.410 -0.8017 -0.4079 -0.7576
  119MOL   H22831144   4.194   3.689   4.446  0.1147 -0.2982  0.6429
  119MOL   H22931145   4.066   3.884   4.644 -2.0659 -0.5881 -1.1689
  119MOL   H23031146   4.354   3.844   4.538  1.1291 -1.7608  2.4430
  119MOL   H23131147   4.301   3.969   4.660 -1.3458 -0.5010  0.6425
  119MOL   H23231148   4.111   4.059   4.496 -0.9465 -0.6348 -0.1504
  119MOL   H23331149   4.179   3.951   4.371 -1.5958 -1.0030  0.4977
  119MOL   H23431150   3.902   3.754   4.477  0.1320  0.1863  0.2753
  119MOL   H23531151   4.000   3.824   4.345  2.7989 -0.3717 -0.0390
  119MOL   C23631152   3.964   3.619   4.309  0.3872 -0.1069  0.5354
  119MOL   C23731153   4.066   3.627   4.197  0.1640  0.3529 -0.7784
  119MOL   C23831154   4.205   3.562   4.208  0.5258  0.7113  0.2674
  119MOL   C23931155   4.104   3.513   4.109 -0.3949  0.1219 -0.0830
  119MOL   C24031156   3.827   3.626   4.240  0.6825  0.3246  0.3622
  119MOL   H24131157   3.986   3.524   4.357  1.3894  0.2172  0.7285
  119MOL   H24231158   4.064   3.725   4.149  1.4421 -0.2134 -2.0023
  119MOL   H24331159   4.293   3.611   4.168  0.1961 -0.9389 -2.6866
  119MOL   H24431160   4.230   3.490   4.286 -1.5098 -1.2138 -0.7978
  119MOL   H24531161   4.063   3.414   4.129 -0.2492  0.0961  0.0863
  119MOL   H24631162   4.101   3.554   4.008 -0.6166  1.0965  0.3233
  119MOL   H24731163   3.824   3.722   4.187  2.4445  0.3936  0.3468
  119MOL   H24831164   3.821   3.548   4.164 -1.0181  1.4715 -0.7191
  119MOL   C24931165   3.700   3.603   4.324  0.2656  0.4958  0.2621
  119MOL   C25031166   3.709   3.468   4.398 -0.2271 -0.2714 -0.3408
  119MOL   C25131167   3.735   3.447   4.548 -0.3430 -0.3115 -0.0743
  119MOL   C25231168   3.592   3.430   4.498 -0.2194 -0.9104 -0.2030
  119MOL   C25331169   3.574   3.607   4.233 -0.2763 -0.0359 -0.3801
  119MOL   H25431170   3.681   3.679   4.400  1.5432 -0.1711  1.2738
  119MOL   H25531171   3.755   3.386   4.342  1.5576 -1.9040  3.3162
  119MOL   H25631172   3.796   3.358   4.560 -1.0761 -1.0809 -1.8018
  119MOL   H25731173   3.755   3.525   4.621 -0.4597 -0.1561 -0.2080
  119MOL   H25831174   3.551   3.330   4.506 -0.7909 -0.6841 -0.2423
  119MOL   H25931175   3.515   3.504   4.522 -2.4337 -2.7841 -1.2735
  119MOL   H26031176   3.480   3.627   4.285 -0.8275  0.9100 -1.7198
  119MOL   H26131177   3.567   3.516   4.173 -1.7542 -0.4441  0.3741
  119MOL   H26231178   3.577   3.692   4.165 -0.0470 -0.9990 -1.5802
  120MOL     C131179   1.148   6.974   3.590  0.1791  0.0371 -0.9292
  120MOL     C231180   1.216   6.845   3.626  0.3137 -0.5682 -0.0490
  120MOL     C331181   1.366   6.835   3.638 -0.4507 -0.3706 -0.5660
  120MOL     C431182   1.301   6.762   3.528  0.5072 -0.4441  0.3804
  120MOL     C531183   1.003   6.979   3.574 -0.8272 -0.0671  0.3863
  120MOL     H631184   1.178   7.047   3.666 -0.0960 -0.5558 -0.2434
  120MOL     H731185   1.160   6.791   3.702  0.3750  0.5675  0.8098
  120MOL     H831186   1.421   6.927   3.616 -0.8263  0.5486  2.1478
  120MOL     H931187   1.406   6.779   3.722 -1.6807 -0.2009  0.1499
  120MOL    H1031188   1.310   6.655   3.541  0.9716 -0.3420  0.9388
  120MOL    H1131189   1.338   6.795   3.431 -2.1677  3.0228  0.4115
  120MOL    H1231190   0.962   6.961   3.673  0.3155 -0.8204  0.7265
  120MOL    H1331191   0.975   6.888   3.521  2.6595  0.0010 -1.7280
  120MOL    H1431192   1.208   7.018   3.510  0.2638  2.5757  0.4778
  120MOL    C1531193   0.946   7.109   3.513 -0.5212  0.9039  0.1625
  120MOL    C1631194   0.972   7.234   3.602  0.6443 -0.3085 -0.6693
  120MOL    C1731195   0.927   7.242   3.748 -0.2247  0.2828 -0.3062
  120MOL    C1831196   0.869   7.333   3.643  0.2411  0.2332  0.1645
  120MOL    C1931197   0.990   7.142   3.367 -0.2145 -0.2149 -0.5190
  120MOL    H2031198   0.837   7.108   3.520 -0.5056 -0.4208  0.5022
  120MOL    H2131199   1.069   7.281   3.590  0.7478 -0.7311 -1.5228
  120MOL    H2231200   1.002   7.280   3.818  0.4179 -1.7642  0.1578
  120MOL    H2331201   0.861   7.168   3.793 -1.8264  2.5606  1.2208
  120MOL    H2431202   0.766   7.312   3.619 -0.0006  1.8360 -0.2799
  120MOL    H2531203   0.900   7.437   3.654  0.3140  0.2717 -0.3893
  120MOL    H2631204   1.096   7.132   3.346  0.0005 -0.6550  0.7739
  120MOL    H2731205   0.951   7.242   3.351 -1.4142 -0.5227  0.3638
  120MOL    C2831206   0.919   7.052   3.263  0.4576 -0.0576 -0.0763
  120MOL    C2931207   1.016   7.020   3.149  0.3893  0.5368  0.0997
  120MOL    C3031208   1.136   6.938   3.199 -0.0598  0.7115  0.0296
  120MOL    C3131209   1.036   6.879   3.098  0.0101  0.0286 -0.4435
  120MOL    C3231210   0.791   7.116   3.217 -0.3777 -0.6916 -0.4946
  120MOL    H3331211   0.895   6.959   3.314  0.3590 -0.1056 -0.2111
  120MOL    H3431212   1.059   7.108   3.100  1.1755  1.5387  2.5032
  120MOL    H3531213   1.133   6.898   3.300 -1.1522 -1.4155 -0.8169
  120MOL    H3631214   1.236   6.977   3.180 -0.5595  0.9638 -2.2836
  120MOL    H3731215   0.966   6.808   3.141 -2.1125  1.7011 -1.0350
  120MOL    H3831216   1.058   6.866   2.992 -3.8093 -0.7497 -1.2145
  120MOL    H3931217   0.831   7.205   3.168  1.5098 -0.3442  1.6032
  120MOL    H4031218   0.724   7.151   3.295 -0.6126 -1.7729 -0.2077
  120MOL    C4131219   0.708   7.042   3.113 -0.5947  0.2185  0.3132
  120MOL    C4231220   0.609   7.139   3.043  0.3922  0.2173 -0.9887
  120MOL    C4331221   0.610   7.138   2.891 -0.2973  0.2966  0.4663
  120MOL    C4431222   0.666   7.254   2.961  0.4665 -0.8859 -1.1167
  120MOL    C4531223   0.639   6.917   3.177  0.6473 -0.1018 -0.0618
  120MOL    H4631224   0.774   7.019   3.030 -0.7921 -0.6934  0.4088
  120MOL    H4731225   0.525   7.177   3.100  0.9487 -0.2288  0.1409
  120MOL    H4831226   0.687   7.092   2.829  0.0554 -0.3378  1.3560
  120MOL    H4931227   0.521   7.157   2.832 -0.4474 -0.4240  0.4599
  120MOL    H5031228   0.606   7.345   2.958 -0.5841 -1.5248 -0.0964
  120MOL    H5131229   0.774   7.266   2.954  0.6650 -2.4169 -0.8591
  120MOL    H5231230   0.561   6.963   3.237  0.8952 -0.6435  0.6796
  120MOL    H5331231   0.707   6.867   3.246 -1.2089 -1.4001  0.8839
  120MOL    C5431232   0.581   6.809   3.079 -0.6364 -0.3220 -0.1811
  120MOL    C5531233   0.685   6.714   3.036 -0.3209  0.2341 -0.1678
  120MOL    C5631234   0.766   6.743   2.907 -0.2049  0.1687  0.6791
  120MOL    C5731235   0.669   6.622   2.913  1.0768  0.2847 -0.5776
  120MOL    C5831236   0.467   6.729   3.151  0.0644  0.4197 -0.3375
  120MOL    H5931237   0.558   6.859   2.985 -0.2642  0.0992 -0.0457
  120MOL    H6031238   0.736   6.665   3.118 -2.0466 -2.2764 -0.5397
  120MOL    H6131239   0.737   6.825   2.842 -0.0348  0.2132  0.6588
  120MOL    H6231240   0.871   6.717   2.896 -0.1979  0.0646  0.9919
  120MOL    H6331241   0.713   6.525   2.931 -1.2920 -1.0352 -1.7689
  120MOL    H6431242   0.570   6.620   2.867  1.1267 -0.9566 -0.6298
  120MOL    H6531243   0.443   6.629   3.113 -0.1260  0.6951 -0.9439
  120MOL    H6631244   0.500   6.694   3.249  0.1489 -1.7987 -1.1363
  120MOL    C6731245   0.335   6.802   3.163  0.2461  0.0401  0.7675
  120MOL    C6831246   0.265   6.810   3.027 -0.0273  0.6671 -0.1697
  120MOL    C6931247   0.162   6.923   2.989  0.3200  0.3935  0.0663
  120MOL    C7031248   0.296   6.926   2.936 -0.3072 -0.2254 -0.4545
  120MOL    C7131249   0.231   6.750   3.263  0.0500 -1.0218 -0.5586
  120MOL    H7231250   0.359   6.903   3.198 -0.3730  0.9919 -1.4554
  120MOL    H7331251   0.241   6.714   2.982  1.8406  1.1786 -2.3957
  120MOL    H7431252   0.091   6.910   2.908 -1.7526  0.6333  1.7962
  120MOL    H7531253   0.132   7.000   3.060 -2.2992 -3.0066  2.8233
  120MOL    H7631254   0.355   7.005   2.982 -0.2587 -0.8256  0.5336
  120MOL    H7731255   0.305   6.903   2.830  1.5201  0.6517 -0.5049
  120MOL    H7831256   0.219   6.644   3.243 -2.8120 -1.1912  1.7704
  120MOL    H7931257   0.136   6.798   3.238 -0.6235 -1.9661  0.1515
  120MOL    C8031258   0.259   6.794   3.416 -0.1684 -0.1844  0.2949
  120MOL    C8131259   0.181   6.697   3.497  0.4848  0.2043  0.3729
  120MOL    C8231260   0.212   6.655   3.635 -0.2697 -0.1133 -0.2805
  120MOL    C8331261   0.238   6.560   3.529 -0.2202  0.0245  0.4165
  120MOL    C8431262   0.200   6.933   3.446  0.2151  0.2447 -1.0753
  120MOL    H8531263   0.365   6.787   3.440 -0.9582 -2.8412  3.3484
  120MOL    H8631264   0.074   6.708   3.480  0.3954 -2.8484 -1.6220
  120MOL    H8731265   0.140   6.607   3.701 -0.6274 -0.1253 -0.6807
  120MOL    H8831266   0.293   6.710   3.683 -0.7735 -0.0682  0.5228
  120MOL    H8931267   0.162   6.483   3.515 -0.4011  0.2029  0.4051
  120MOL    H9031268   0.343   6.555   3.501  0.1180  0.4854  1.5671
  120MOL    H9131269   0.208   6.985   3.350 -2.8511  1.8054 -0.5355
  120MOL    H9231270   0.095   6.925   3.470  0.7157  0.9530  1.4832
  120MOL    C9331271   0.274   7.016   3.555  0.5764 -0.5446 -0.2386
  120MOL    C9431272   0.389   7.087   3.493  0.1772  0.6255 -0.0338
  120MOL    C9531273   0.386   7.222   3.441  0.0572 -0.4271  0.1639
  120MOL    C9631274   0.482   7.193   3.551 -0.1726  0.7795  0.2791
  120MOL    C9731275   0.172   7.114   3.633 -0.8055 -0.5091 -0.0298
  120MOL    H9831276   0.317   6.947   3.629  1.1943 -0.2970 -0.3644
  120MOL    H9931277   0.437   7.018   3.424 -2.7146 -0.6945 -0.7685
  120MOL   H10031278   0.415   7.229   3.336 -1.6367 -0.1047 -0.2991
  120MOL   H10131279   0.306   7.290   3.469  0.1279 -0.1003 -0.4086
  120MOL   H10231280   0.585   7.193   3.514  0.1650  0.1877  1.2327
  120MOL   H10331281   0.460   7.226   3.652 -1.0458  1.8158 -0.2380
  120MOL   H10431282   0.113   7.171   3.561 -1.4574 -0.4954  0.5059
  120MOL   H10531283   0.224   7.189   3.693 -0.4558 -0.0655 -0.8796
  120MOL   C10631284   0.083   7.038   3.734  0.1801  0.6177 -0.1408
  120MOL   C10731285   0.149   7.054   3.868  0.6327  0.3530 -0.4588
  120MOL   C10831286   0.135   6.947   3.976 -0.3153 -0.9937 -0.3470
  120MOL   C10931287   0.275   6.977   3.915 -0.2854  0.7945  0.2995
  120MOL   C11031288   7.777   7.082   3.732  0.2764 -0.7550  0.1425
  120MOL   H11131289   0.104   6.932   3.721  2.2008  1.1224 -1.0681
  120MOL   H11231290   0.145   7.160   3.893 -2.9054  0.2305 -0.1857
  120MOL   H11331291   0.123   6.973   4.081 -0.6328 -3.3895  0.2259
  120MOL   H11431292   0.073   6.863   3.945 -1.5378  0.4057 -1.7966
  120MOL   H11531293   0.304   6.893   3.853 -0.0798 -0.1167  1.5959
  120MOL   H11631294   0.352   7.024   3.977  2.0607 -1.7969 -0.5347
  120MOL   H11731295   7.756   7.165   3.800  0.4217 -0.7583  0.1911
  120MOL   H11831296   7.741   7.115   3.635 -0.9474  1.2834  1.2761
  120MOL   C11931297   7.676   6.972   3.770 -0.1893  1.3384 -0.3369
  120MOL   C12031298   7.541   7.028   3.813 -0.3059 -0.4997  0.3279
  120MOL   C12131299   7.521   7.114   3.937 -0.3495 -0.5589 -0.2706
  120MOL   C12231300   7.480   6.971   3.938  0.3070 -0.3540  0.1933
  120MOL   C12331301   7.668   6.876   3.646  0.1038  0.7154 -0.4874
  120MOL   H12431302   7.715   6.912   3.851 -2.2244  0.0751 -0.2378
  120MOL   H12531303   7.479   7.068   3.733 -0.2440 -0.7308  0.1616
  120MOL   H12631304   7.438   7.185   3.937  0.0637 -0.0625  1.4651
  120MOL   H12731305   7.609   7.132   3.999  0.2952 -1.1830 -0.9810
  120MOL   H12831306   7.540   6.913   4.008 -1.1633 -0.3882  1.4509
  120MOL   H12931307   7.374   6.949   3.932  0.6269 -2.0867  0.6584
  120MOL   H13031308   7.647   6.927   3.552 -1.0951  0.1134 -0.5456
  120MOL   H13131309   7.771   6.842   3.635  0.4349  1.6303 -0.2702
  120MOL   C13231310   7.578   6.758   3.674  0.0169  0.2488 -0.2476
  120MOL   C13331311   7.657   6.655   3.757 -0.1894  0.3035 -0.8280
  120MOL   C13431312   7.592   6.533   3.819 -0.1703  0.3162 -0.8956
  120MOL   C13531313   7.653   6.637   3.912  0.4047  0.0475  0.6828
  120MOL   C13631314   7.521   6.691   3.544  0.4710  0.5625  0.3464
  120MOL   H13731315   7.498   6.785   3.743  0.5910  1.6432 -0.1057
  120MOL   H13831316   7.750   6.633   3.706 -1.2430 -0.4503 -2.4855
  120MOL   H13931317   7.485   6.515   3.815 -0.0212 -0.8088 -0.1464
  120MOL   H14031318   7.643   6.437   3.819  1.1274  0.9430  2.0062
  120MOL   H14131319   7.580   6.697   3.966  0.1845 -0.2173  0.6806
  120MOL   H14231320   7.750   6.618   3.955  0.1323  1.1042  1.7682
  120MOL   H14331321   7.449   6.613   3.571  0.4521  0.3017 -0.4513
  120MOL   H14431322   7.460   6.765   3.492  0.6044  0.9543  0.7447
  120MOL   C14531323   7.625   6.625   3.450 -0.1266  0.1007 -0.3537
  120MOL   C14631324   7.574   6.496   3.381  0.6097 -0.3738 -0.5407
  120MOL   C14731325   7.675   6.399   3.333 -0.4169 -0.1793 -0.5572
  120MOL   C14831326   7.580   6.360   3.445 -0.2056  0.2801 -0.3826
  120MOL   C14931327   7.683   6.721   3.335 -0.0218 -0.3692  0.5042
  120MOL   H15031328   7.710   6.595   3.511 -1.0731 -0.3270  0.7713
  120MOL   H15131329   7.487   6.508   3.317 -0.9695 -2.7815  1.0914
  120MOL   H15231330   7.642   6.373   3.233  0.3341 -0.1342 -0.8210
  120MOL   H15331331   7.781   6.422   3.345 -0.4183  0.6031 -1.9608
  120MOL   H15431332   7.605   6.358   3.551 -0.5795  0.7310 -0.2832
  120MOL   H15531333   7.509   6.281   3.421 -0.6272 -0.0926  2.0404
  120MOL   H15631334   7.688   6.815   3.390 -0.7519  0.1488 -0.2993
  120MOL   H15731335   7.782   6.690   3.302 -0.3194  0.3060 -1.0657
  120MOL   C15831336   7.593   6.749   3.212  0.2247  0.2763 -0.2600
  120MOL   C15931337   7.643   6.662   3.092 -0.1602  0.3349 -0.0603
  120MOL   C16031338   7.590   6.673   2.950 -0.1530  0.3158 -0.4507
  120MOL   C16131339   7.739   6.707   2.985  0.5561  0.3731 -0.1891
  120MOL   C16231340   7.592   6.899   3.180  0.2334 -0.3229  0.2275
  120MOL   H16331341   7.495   6.722   3.252  1.1615  2.1745  3.5403
  120MOL   H16431342   7.656   6.557   3.116  1.7063 -0.0529 -2.5167
  120MOL   H16531343   7.511   6.746   2.936 -0.4462  0.4276  1.6888
  120MOL   H16631344   7.578   6.579   2.897 -0.1955 -0.2566  0.5836
  120MOL   H16731345   7.826   6.642   2.971 -0.0515 -0.5583  0.3198
  120MOL   H16831346   7.757   6.814   2.980  0.6383  0.3337 -0.7662
  120MOL   H16931347   7.548   6.902   3.081 -0.0720 -1.6923  0.3025
  120MOL   H17031348   7.698   6.924   3.178  0.1128  0.2744  1.0098
  120MOL   C17131349   7.511   6.994   3.273  0.0800  0.3975 -0.5047
  120MOL   C17231350   7.570   7.132   3.251  0.1769  0.3217  0.0858
  120MOL   C17331351   7.608   7.217   3.371 -0.2906  0.4285 -0.8810
  120MOL   C17431352   7.715   7.170   3.275  0.6632 -0.3803  0.0832
  120MOL   C17531353   7.354   6.980   3.245  0.6469 -0.2307  0.5067
  120MOL   H17631354   7.529   6.965   3.376  0.2684  0.5071 -0.5069
  120MOL   H17731355   7.530   7.189   3.167  0.2654 -1.6353 -1.3174
  120MOL   H17831356   7.602   7.325   3.368  0.7269  0.5333  0.2809
  120MOL   H17931357   7.600   7.176   3.472  0.1128  0.3041 -0.8987
  120MOL   H18031358   7.784   7.113   3.338  0.7462  2.0250  2.2716
  120MOL   H18131359   7.760   7.255   3.224 -0.1191  0.8447  1.4003
  120MOL   H18231360   7.327   6.880   3.280  0.9953 -0.2886  0.6102
  120MOL   H18331361   7.329   6.975   3.139 -0.5204  1.3663  0.6821
  120MOL   C18431362   7.254   7.068   3.317 -0.3147  0.0022 -0.1304
  120MOL   C18531363   7.239   7.210   3.258 -0.0836 -0.5963 -0.3870
  120MOL   C18631364   7.105   7.282   3.243  0.2980  0.1419  0.1008
  120MOL   C18731365   7.184   7.223   3.119 -0.0583 -0.4414 -0.0418
  120MOL   C18831366   7.270   7.076   3.470 -0.0738  0.1893 -0.6001
  120MOL   H18931367   7.160   7.014   3.304  1.4401 -3.0349 -0.6665
  120MOL   H19031368   7.325   7.273   3.276 -1.6418  1.5717 -0.2800
  120MOL   H19131369   7.097   7.389   3.260 -2.3051  0.2258 -1.3652
  120MOL   H19231370   7.011   7.234   3.273  0.7769 -0.0596  1.2980
  120MOL   H19331371   7.213   7.304   3.053 -0.9680 -0.4470 -0.4577
  120MOL   H19431372   7.146   7.133   3.071  1.2958 -1.4283  0.6945
  120MOL   H19531373   7.344   7.152   3.495 -1.1088  1.1227 -0.3032
  120MOL   H19631374   7.309   6.977   3.491 -1.7527 -0.1571  1.1132
  120MOL   C19731375   7.137   7.090   3.558  0.3471  0.4860 -0.4210
  120MOL   C19831376   7.150   7.216   3.641 -0.4810  0.3847  0.3870
  120MOL   C19931377   7.043   7.331   3.633  0.1355  0.8041  0.1829
  120MOL   C20031378   7.187   7.355   3.584 -0.0854  0.3514 -0.3417
  120MOL   C20131379   7.122   6.982   3.663 -0.4543  0.5284 -0.0789
  120MOL   H20231380   7.050   7.100   3.493 -2.2154 -2.9337  2.2895
  120MOL   H20331381   7.192   7.196   3.739 -1.7364  0.5661  0.9674
  120MOL   H20431382   6.959   7.298   3.572  0.1086 -3.7948  2.4516
  120MOL   H20531383   7.010   7.382   3.723  0.9970  1.7095 -0.0031
  120MOL   H20631384   7.198   7.371   3.476  0.2201  0.8579 -0.2371
  120MOL   H20731385   7.264   7.403   3.643 -0.2964 -0.3680  0.5149
  120MOL   H20831386   7.219   6.989   3.713 -0.1142  0.7803 -0.7722
  120MOL   H20931387   7.037   7.008   3.727 -0.7838  2.4843 -1.2520
  120MOL   C21031388   7.101   6.835   3.612  0.1110  0.0196 -0.0768
  120MOL   C21131389   7.062   6.751   3.739  0.3886 -0.6031  0.4283
  120MOL   C21231390   7.108   6.611   3.753 -0.4164 -0.2032 -0.6312
  120MOL   C21331391   7.168   6.720   3.841 -0.9595  0.9115  0.2020
  120MOL   C21431392   6.987   6.831   3.510  0.8865 -0.5789 -0.8688
  120MOL   H21531393   7.198   6.802   3.574  1.2283  2.6666  0.3778
  120MOL   H21631394   6.967   6.782   3.781  0.9192 -0.8667  1.8251
  120MOL   H21731395   7.031   6.545   3.792  0.0679 -1.3094 -1.5249
  120MOL   H21831396   7.185   6.566   3.691 -0.0398 -0.8535  0.2950
  120MOL   H21931397   7.137   6.719   3.945 -0.3390 -0.3787  0.3899
  120MOL   H22031398   7.264   6.762   3.813  0.0206 -1.0499  0.4833
  120MOL   H22131399   6.895   6.853   3.565  2.1021  0.3390  0.8457
  120MOL   H22231400   7.007   6.913   3.440  0.2976  1.5126  1.3160
  120MOL   C22331401   6.959   6.704   3.427 -0.1708  0.2403  0.2426
  120MOL   C22431402   7.067   6.687   3.331 -1.0681 -0.1601 -0.2814
  120MOL   C22531403   7.205   6.628   3.371  0.4820  0.4038  0.8168
  120MOL   C22631404   7.113   6.551   3.287  0.1340  0.6362  0.1923
  120MOL   C22731405   6.827   6.726   3.344  0.1813  0.4164 -0.3493
  120MOL   H22831406   6.964   6.605   3.473 -0.4349  0.7513  1.3684
  120MOL   H22931407   7.072   6.764   3.255  2.8221  0.7846  0.7821
  120MOL   H23031408   7.221   6.565   3.458 -1.9487 -3.4148 -1.3596
  120MOL   H23131409   7.298   6.662   3.326 -0.4907  0.2307 -1.4067
  120MOL   H23231410   7.132   6.544   3.180 -0.8087  0.0144  0.0585
  120MOL   H23331411   7.055   6.467   3.325 -1.0143  1.3191 -0.0206
  120MOL   H23431412   6.847   6.816   3.285  1.8936 -0.1057 -0.5891
  120MOL   H23531413   6.802   6.644   3.277 -0.9757  1.2464 -0.9471
  120MOL   C23631414   6.701   6.738   3.424  0.0512  0.3252  0.5610
  120MOL   C23731415   6.670   6.624   3.516 -0.0340  0.8441  0.1891
  120MOL   C23831416   6.719   6.619   3.663 -0.6664  0.4769 -0.0751
  120MOL   C23931417   6.563   6.621   3.624  0.6974 -0.3685 -1.1012
  120MOL   C24031418   6.583   6.769   3.331 -0.1607  0.3803  0.2307
  120MOL   H24131419   6.696   6.823   3.492 -2.4758  1.0090 -0.4267
  120MOL   H24231420   6.685   6.528   3.467  0.0133  1.3971 -0.8914
  120MOL   H24331421   6.765   6.524   3.688 -0.6461 -0.0302 -1.9230
  120MOL   H24431422   6.764   6.710   3.701 -2.3408  1.2606  0.1023
  120MOL   H24531423   6.508   6.712   3.649  1.3166 -0.5108  0.9236
  120MOL   H24631424   6.504   6.532   3.645  0.7857 -0.4612 -1.2486
  120MOL   H24731425   6.571   6.699   3.248  1.1418 -0.7049  0.9369
  120MOL   H24831426   6.494   6.773   3.393 -0.2588  1.4979  0.0240
  120MOL   C24931427   6.582   6.911   3.275 -0.0335  0.1801 -0.3130
  120MOL   C25031428   6.564   7.016   3.385 -0.5117  0.8097 -0.8697
  120MOL   C25131429   6.688   7.079   3.454  0.8130  0.2364  0.3798
  120MOL   C25231430   6.597   7.162   3.368  0.2966 -0.0193  0.1365
  120MOL   C25331431   6.468   6.928   3.173  0.2744  0.5741  0.0649
  120MOL   H25431432   6.670   6.942   3.219 -1.3265  0.6876 -2.1207
  120MOL   H25531433   6.476   7.010   3.449 -0.1370  0.1956 -0.4043
  120MOL   H25631434   6.687   7.094   3.562 -1.9386  0.2036  0.4096
  120MOL   H25731435   6.778   7.037   3.411 -1.3631 -0.7108 -3.5001
  120MOL   H25831436   6.511   7.218   3.403  0.0932 -1.4251  1.9619
  120MOL   H25931437   6.635   7.185   3.269 -0.7192 -0.3710 -0.3389
  120MOL   H26031438   6.453   7.032   3.145  2.1576  0.8474 -0.0268
  120MOL   H26131439   6.370   6.900   3.211  1.0863 -1.0204  0.9901
  120MOL   H26231440   6.481   6.867   3.083  0.5379  0.8566 -0.0913
  121MOL     C131441   4.440   4.815   0.423  0.1410  0.3977 -0.4458
  121MOL     C231442   4.525   4.878   0.317  0.6680  0.4252  0.0855
  121MOL     C331443   4.527   5.026   0.284 -0.1695 -0.3710  0.3429
  121MOL     C431444   4.457   4.935   0.190 -0.3771 -0.4127 -0.0335
  121MOL     C531445   4.477   4.848   0.581 -0.3441 -0.2070 -0.6530
  121MOL     H631446   4.333   4.829   0.408  0.3142  0.4620 -1.6371
  121MOL     H731447   4.623   4.832   0.307  1.2544  1.2282  1.8538
  121MOL     H831448   4.475   5.102   0.343  3.0578  1.5476  0.8361
  121MOL     H931449   4.612   5.074   0.237 -0.6836  0.1127 -0.0987
  121MOL    H1031450   4.498   4.870   0.113 -0.7336 -0.0332 -0.5536
  121MOL    H1131451   4.350   4.951   0.175 -0.1550  1.7821  0.5918
  121MOL    H1231452   4.433   4.945   0.603  0.7996 -0.3510  2.4803
  121MOL    H1331453   4.585   4.857   0.565  0.3701 -4.9028  0.9144
  121MOL    H1431454   4.467   4.709   0.414  1.3190  0.4734  1.7330
  121MOL    C1531455   4.434   4.748   0.680 -0.4645  0.0087 -0.1311
  121MOL    C1631456   4.503   4.784   0.810 -0.4111 -0.3822 -0.4808
  121MOL    C1731457   4.656   4.780   0.816  0.2761  0.0519  0.2793
  121MOL    C1831458   4.568   4.685   0.902  0.2612  0.3453  0.2277
  121MOL    C1931459   4.283   4.738   0.698 -0.0465 -0.5495  0.6385
  121MOL    H2031460   4.445   4.649   0.635 -1.4398 -0.0650 -0.2161
  121MOL    H2131461   4.452   4.872   0.848 -0.9374 -0.5347 -0.8153
  121MOL    H2231462   4.706   4.866   0.861 -2.5347  1.4199  0.9001
  121MOL    H2331463   4.712   4.731   0.737  2.9427  1.2199  1.3752
  121MOL    H2431464   4.571   4.579   0.881  2.4767 -0.1274  2.7385
  121MOL    H2531465   4.544   4.692   1.008 -2.0013 -1.8410 -0.0939
  121MOL    H2631466   4.230   4.735   0.603 -0.8142  1.5376  0.9870
  121MOL    H2731467   4.253   4.827   0.752  0.1922  0.1656 -0.3770
  121MOL    C2831468   4.240   4.619   0.777 -0.1698  0.8635 -0.5203
  121MOL    C2931469   4.233   4.492   0.703  0.2302 -0.0117  0.0248
  121MOL    C3031470   4.348   4.394   0.685  0.0915 -0.0391 -0.2579
  121MOL    C3131471   4.235   4.358   0.776 -0.7321 -0.2981 -0.0587
  121MOL    C3231472   4.108   4.631   0.843 -0.3950 -0.0994  0.1269
  121MOL    H3331473   4.316   4.594   0.851  0.0642 -0.6838 -1.2579
  121MOL    H3431474   4.162   4.495   0.620 -1.0261 -0.5313  1.0648
  121MOL    H3531475   4.446   4.425   0.721  0.0741 -2.6289  2.1420
  121MOL    H3631476   4.357   4.328   0.599 -0.2261  1.6497 -1.6187
  121MOL    H3731477   4.254   4.365   0.883  1.4630  2.4418 -0.5868
  121MOL    H3831478   4.169   4.277   0.745 -0.4977  0.3430 -2.2697
  121MOL    H3931479   4.060   4.535   0.858  2.0808 -1.1710  1.3988
  121MOL    H4031480   4.046   4.686   0.772  1.2131  0.5171 -0.8320
  121MOL    C4131481   4.125   4.716   0.973 -0.1157 -0.2282 -0.2414
  121MOL    C4231482   4.133   4.617   1.087  0.1889 -0.4915 -0.6945
  121MOL    C4331483   4.183   4.665   1.224  0.1562 -0.5281 -0.5332
  121MOL    C4431484   4.262   4.572   1.145  0.7220  0.2281 -0.0812
  121MOL    C4531485   4.006   4.819   0.989  0.1724 -0.1395 -0.0692
  121MOL    H4631486   4.223   4.759   0.990 -0.2477 -0.4469  1.0694
  121MOL    H4731487   4.057   4.539   1.094 -0.3913  0.2717  2.1352
  121MOL    H4831488   4.199   4.772   1.231 -0.9298 -0.5122  2.5289
  121MOL    H4931489   4.116   4.624   1.300 -0.1286  1.3294  0.2488
  121MOL    H5031490   4.260   4.480   1.203  1.6265  0.0419 -0.3351
  121MOL    H5131491   4.359   4.609   1.112  0.7810 -1.5126 -1.9747
  121MOL    H5231492   3.989   4.846   1.094 -0.3351 -2.2708  0.4153
  121MOL    H5331493   3.915   4.767   0.957  1.1792 -2.1868  0.3637
  121MOL    C5431494   4.020   4.948   0.913 -0.0651  0.9204 -0.3664
  121MOL    C5531495   3.885   5.025   0.904  0.1937  0.9032 -0.9639
  121MOL    C5631496   3.771   4.963   0.825 -0.1617  0.0455  0.6573
  121MOL    C5731497   3.839   5.088   0.772  0.7228  0.0097 -1.6417
  121MOL    C5831498   4.120   5.044   0.979  0.1129 -0.0750 -0.4881
  121MOL    H5931499   4.036   4.932   0.807 -4.3269  1.9436 -1.2599
  121MOL    H6031500   3.855   5.081   0.992  1.3399  0.3053 -0.1705
  121MOL    H6131501   3.788   4.871   0.770  0.5816 -0.4080  1.6549
  121MOL    H6231502   3.676   4.966   0.878  0.3896 -1.3470  1.7408
  121MOL    H6331503   3.793   5.186   0.780  0.8617  0.1063 -1.9870
  121MOL    H6431504   3.906   5.076   0.686  1.6935  0.6178 -0.9790
  121MOL    H6531505   4.070   5.079   1.069  2.2142 -0.6767  0.9642
  121MOL    H6631506   4.208   4.987   1.010 -0.2732 -0.5277 -0.2146
  121MOL    C6731507   4.155   5.178   0.913  0.2701  0.4958  0.1889
  121MOL    C6831508   4.220   5.270   1.013  0.5718  0.1302 -0.0976
  121MOL    C6931509   4.208   5.416   1.024 -0.0384 -0.8633 -0.3033
  121MOL    C7031510   4.146   5.328   1.128  0.0771 -0.3091  0.2117
  121MOL    C7131511   4.238   5.162   0.780 -0.5065  0.2812 -0.3850
  121MOL    H7231512   4.060   5.215   0.873  1.4755  1.1273 -2.1676
  121MOL    H7331513   4.322   5.235   1.021  0.1973 -1.7657 -2.7664
  121MOL    H7431514   4.303   5.466   1.034 -0.4346  0.2367 -1.9415
  121MOL    H7531515   4.142   5.469   0.956 -0.9143 -2.0077 -0.3688
  121MOL    H7631516   4.038   5.339   1.131  0.3738  2.7401  1.0453
  121MOL    H7731517   4.193   5.332   1.226 -1.3177 -1.4877  0.9527
  121MOL    H7831518   4.194   5.081   0.722 -2.0212  0.9799 -0.2510
  121MOL    H7931519   4.339   5.134   0.809 -0.2790 -1.1570 -2.4396
  121MOL    C8031520   4.258   5.289   0.700  0.1102 -0.1267 -0.3845
  121MOL    C8131521   4.138   5.322   0.617 -0.3882  0.1371  0.1711
  121MOL    C8231522   4.126   5.461   0.568  0.4356 -0.3754  0.7229
  121MOL    C8331523   4.028   5.416   0.667 -0.1594 -0.2955 -0.0808
  121MOL    C8431524   4.382   5.277   0.610 -0.7154 -0.3813 -0.0225
  121MOL    H8531525   4.271   5.376   0.764 -1.4544  0.4346 -0.8067
  121MOL    H8631526   4.100   5.242   0.554 -1.1609  2.0973 -1.9109
  121MOL    H8731527   4.069   5.483   0.478  2.7556 -1.3292 -1.0146
  121MOL    H8831528   4.200   5.538   0.587 -0.2942  0.7593 -0.9186
  121MOL    H8931529   4.028   5.472   0.760  0.2609 -0.9699  0.3310
  121MOL    H9031530   3.933   5.373   0.637 -0.2693 -0.0461 -0.0921
  121MOL    H9131531   4.400   5.176   0.572  0.3020 -0.7259  1.3251
  121MOL    H9231532   4.373   5.331   0.516  2.2775  0.3518  0.0767
  121MOL    C9331533   4.519   5.344   0.660 -0.3737  0.2860 -0.0789
  121MOL    C9431534   4.514   5.497   0.656  0.2542  0.3321 -0.0387
  121MOL    C9531535   4.638   5.582   0.622 -0.2423  0.2360  0.4881
  121MOL    C9631536   4.530   5.557   0.516  0.0212  0.1373 -0.0030
  121MOL    C9731537   4.554   5.296   0.804 -0.5867 -0.0043  0.3156
  121MOL    H9831538   4.612   5.320   0.608 -0.3496 -1.0378  0.5663
  121MOL    H9931539   4.440   5.541   0.722 -0.9111 -0.7854 -0.5514
  121MOL   H10031540   4.636   5.686   0.653  0.0377  0.5179 -0.4057
  121MOL   H10131541   4.731   5.528   0.635  0.0500  0.8728  1.0545
  121MOL   H10231542   4.476   5.648   0.494 -0.4186 -0.1490 -0.1091
  121MOL   H10331543   4.574   5.505   0.431  0.0509 -1.7870  1.1524
  121MOL   H10431544   4.540   5.188   0.808 -2.3451  0.1765 -0.8036
  121MOL   H10531545   4.492   5.348   0.878  0.6942 -0.1990  1.5690
  121MOL   C10631546   4.697   5.317   0.846 -0.4380 -0.1688  0.1784
  121MOL   C10731547   4.702   5.296   0.998  0.0158 -0.0890  0.7451
  121MOL   C10831548   4.785   5.378   1.094  0.1876  0.0965 -0.6114
  121MOL   C10931549   4.632   5.393   1.086 -0.2492 -0.0550 -0.0655
  121MOL   C11031550   4.790   5.212   0.774  0.6696 -0.2058 -0.2117
  121MOL   H11131551   4.733   5.417   0.824  0.4825 -0.3952  0.6531
  121MOL   H11231552   4.695   5.191   1.026 -1.1544 -0.5113 -1.0389
  121MOL   H11331553   4.824   5.348   1.191 -1.2597 -1.7100 -0.5770
  121MOL   H11431554   4.842   5.456   1.043 -0.1220  1.0417  0.4859
  121MOL   H11531555   4.597   5.486   1.043 -0.6742 -1.0264 -1.8919
  121MOL   H11631556   4.568   5.349   1.163  1.0545 -2.4486 -0.2808
  121MOL   H11731557   4.752   5.113   0.798  1.6633 -0.4668  0.3037
  121MOL   H11831558   4.772   5.223   0.667  1.6212  0.6759 -0.2841
  121MOL   C11931559   4.940   5.217   0.809 -0.0729  0.0497 -0.4554
  121MOL   C12031560   5.009   5.084   0.757 -0.0038  0.0458 -0.8434
  121MOL   C12131561   5.006   4.944   0.817  0.1256  0.1491  0.4542
  121MOL   C12231562   5.139   5.025   0.814 -0.4326 -0.6868 -0.0780
  121MOL   C12331563   4.994   5.348   0.740  0.7348 -0.3704  0.2132
  121MOL   H12431564   4.953   5.226   0.917  1.7835 -1.3632 -0.5279
  121MOL   H12531565   5.000   5.082   0.649  2.0105 -0.8295 -1.0104
  121MOL   H12631566   4.985   4.863   0.748  3.0951 -1.3529  1.2026
  121MOL   H12731567   4.966   4.945   0.918  1.5620  3.7909  1.0669
  121MOL   H12831568   5.171   5.056   0.913 -0.1252  2.9870 -1.2457
  121MOL   H12931569   5.217   4.989   0.747  1.9165  0.7351  1.8355
  121MOL   H13031570   4.983   5.342   0.632  1.7254  0.1479  0.0756
  121MOL   H13131571   4.944   5.441   0.764 -1.3120 -1.3302 -0.2086
  121MOL   C13231572   5.151   5.370   0.776  0.6256 -0.0958  0.8230
  121MOL   C13331573   5.166   5.517   0.813  0.2341 -0.5312  0.0589
  121MOL   C13431574   5.260   5.569   0.913 -0.2400  0.3338 -0.7075
  121MOL   C13531575   5.111   5.578   0.934 -0.0408  0.5084  0.4769
  121MOL   C13631576   5.241   5.321   0.663  0.1979  0.3197  0.1180
  121MOL   H13731577   5.186   5.308   0.859  2.3027  1.6132  1.4242
  121MOL   H13831578   5.143   5.579   0.727  2.0201 -1.1198 -0.8518
  121MOL   H13931579   5.307   5.502   0.985 -2.4016 -1.3310 -0.8087
  121MOL   H14031580   5.311   5.663   0.890  0.6424 -0.5062 -2.2703
  121MOL   H14131581   5.068   5.519   1.013 -0.4163 -1.7868 -1.4016
  121MOL   H14231582   5.085   5.684   0.938 -0.6051  0.3938 -0.1416
  121MOL   H14331583   5.217   5.224   0.621  0.7916  0.9865 -1.7852
  121MOL   H14431584   5.218   5.379   0.574 -0.4221  2.6621  1.7437
  121MOL   C14531585   5.390   5.329   0.687 -0.0974 -0.2556 -0.2031
  121MOL   C14631586   5.442   5.226   0.786 -0.4507  0.3302 -0.2015
  121MOL   C14731587   5.579   5.241   0.841 -0.3087 -0.5106  0.1186
  121MOL   C14831588   5.462   5.235   0.936 -0.6270  0.0009 -0.0090
  121MOL   C14931589   5.464   5.316   0.553 -0.4511  0.4761 -0.3023
  121MOL   H15031590   5.410   5.425   0.735  1.4673 -1.0794  0.8378
  121MOL   H15131591   5.439   5.130   0.736  0.6249  0.9708 -1.5184
  121MOL   H15231592   5.632   5.146   0.837  1.1361  0.2687  0.1177
  121MOL   H15331593   5.633   5.333   0.818  0.4361 -0.5853  1.5032
  121MOL   H15431594   5.411   5.322   0.975 -0.9471  1.0812 -2.6990
  121MOL   H15531595   5.438   5.143   0.990  0.5578  0.3498  1.1444
  121MOL   H15631596   5.569   5.298   0.577 -0.9839 -0.7964  1.1330
  121MOL   H15731597   5.436   5.225   0.500 -1.1713 -0.0434  0.9608
  121MOL   C15831598   5.440   5.430   0.445  0.0286  0.4105 -0.5568
  121MOL   C15931599   5.529   5.401   0.328  0.4977  0.0885  0.3897
  121MOL   C16031600   5.494   5.277   0.249 -0.7442  0.5048  0.6396
  121MOL   C16131601   5.497   5.413   0.181 -0.5409  0.5873 -0.1756
  121MOL   C16231602   5.470   5.568   0.499 -0.8865 -0.9129 -0.2869
  121MOL   H16331603   5.336   5.428   0.411 -0.6501 -0.3731  1.5230
  121MOL   H16431604   5.636   5.408   0.348  0.5480 -1.0018  0.5751
  121MOL   H16531605   5.393   5.236   0.244 -0.8411  0.8178  0.0812
  121MOL   H16631606   5.575   5.206   0.237  0.7502  2.1232  0.9418
  121MOL   H16731607   5.586   5.438   0.124 -0.6163 -0.9261 -0.9733
  121MOL   H16831608   5.402   5.463   0.160 -0.4859  1.4241  1.4743
  121MOL   H16931609   5.577   5.578   0.517 -0.7286 -1.9534 -0.6217
  121MOL   H17031610   5.415   5.587   0.591 -0.4175  0.6427 -0.3108
  121MOL   C17131611   5.434   5.689   0.414 -0.4462 -0.4348 -0.4668
  121MOL   C17231612   5.319   5.761   0.476 -0.4733 -0.8771  0.5389
  121MOL   C17331613   5.201   5.795   0.386  0.2243 -0.1391  0.4018
  121MOL   C17431614   5.186   5.699   0.504  0.2685  0.1881 -0.6227
  121MOL   C17531615   5.560   5.770   0.374  0.3902  0.0109 -0.6939
  121MOL   H17631616   5.396   5.658   0.317  0.5265 -0.8204 -0.7311
  121MOL   H17731617   5.344   5.858   0.517 -2.4692 -0.4789  0.8621
  121MOL   H17831618   5.153   5.893   0.386 -0.6875 -0.5763  0.4725
  121MOL   H17931619   5.207   5.757   0.285 -2.4785  2.0123 -0.6283
  121MOL   H18031620   5.167   5.593   0.489  0.6896 -0.1643  1.2235
  121MOL   H18131621   5.130   5.747   0.584  2.7695  0.0260  1.3001
  121MOL   H18231622   5.635   5.710   0.322  1.6771 -2.2190  3.5351
  121MOL   H18331623   5.606   5.810   0.465  2.0237 -0.4927 -1.2752
  121MOL   C18431624   5.544   5.899   0.295 -0.2512  0.2497 -0.1439
  121MOL   C18531625   5.477   5.864   0.159  0.0462 -0.3485 -0.1698
  121MOL   C18631626   5.552   5.809   0.042 -0.1988 -0.1619 -0.2904
  121MOL   C18731627   5.493   5.954   0.031 -0.0205 -0.3689  0.1938
  121MOL   C18831628   5.695   5.955   0.286  0.0091 -0.2530  0.0400
  121MOL   H18931629   5.479   5.975   0.337  1.0948  1.4261 -0.1452
  121MOL   H19031630   5.373   5.842   0.180 -0.9414  4.1419  0.0395
  121MOL   H19131631   5.502   5.723   7.838  1.6819 -1.8283  0.7443
  121MOL   H19231632   5.661   5.808   0.046 -0.2566 -0.9258  1.7750
  121MOL   H19331633   5.401   5.967   7.813  0.5232 -2.3026 -1.1744
  121MOL   H19431634   5.559   6.040   0.040 -1.4893  0.7873  0.1523
  121MOL   H19531635   5.693   6.043   0.222 -1.3598  0.8517  1.5575
  121MOL   H19631636   5.769   5.885   0.247  0.3404  1.4082 -2.4225
  121MOL   C19731637   5.754   6.025   0.405  0.0860  0.4172 -0.2528
  121MOL   C19831638   5.669   6.125   0.467 -0.1865  0.5324 -0.1137
  121MOL   C19931639   5.688   6.156   0.617 -0.1154 -0.5080  0.0793
  121MOL   C20031640   5.566   6.076   0.569 -0.0727 -0.2696  0.4385
  121MOL   C20131641   5.906   6.062   0.391 -0.0427 -0.3120 -0.1720
  121MOL   H20231642   5.747   5.952   0.486 -1.7743  0.7993 -0.0467
  121MOL   H20331643   5.643   6.203   0.396 -1.5447 -1.9157 -2.3844
  121MOL   H20431644   5.757   6.112   0.689 -0.2744  0.2827  0.7240
  121MOL   H20531645   5.663   6.259   0.643  0.9922  0.2287 -1.6877
  121MOL   H20631646   5.568   5.972   0.600  0.7049 -0.4014 -0.0378
  121MOL   H20731647   5.469   6.126   0.576  0.4524  0.7437  0.5242
  121MOL   H20831648   5.905   6.100   0.289 -2.7823 -1.7280 -0.7235
  121MOL   H20931649   5.936   6.143   0.458  1.5608 -1.2606  0.2865
  121MOL   C21031650   5.996   5.940   0.396 -0.4688 -0.5206 -0.4559
  121MOL   C21131651   6.132   5.976   0.350 -0.8360 -0.7872 -0.2273
  121MOL   C21231652   6.208   5.878   0.266 -0.4191  0.4556  0.2141
  121MOL   C21331653   6.159   6.009   0.201 -0.6992  0.6332 -0.3647
  121MOL   C21431654   5.999   5.884   0.542  0.1594 -0.8258 -0.5983
  121MOL   H21531655   5.960   5.869   0.322 -0.1630  0.1326 -1.2372
  121MOL   H21631656   6.190   6.043   0.414 -1.9265 -0.5162  0.4853
  121MOL   H21731657   6.313   5.851   0.272 -0.2685  0.6208 -1.3090
  121MOL   H21831658   6.150   5.787   0.253  1.7499 -0.7102 -1.7038
  121MOL   H21931659   6.239   6.078   0.177  0.4773  0.1792  2.0847
  121MOL   H22031660   6.076   6.011   0.131 -2.5891  1.9044  1.8515
  121MOL   H22131661   6.062   5.950   0.601 -1.1513  0.6658 -0.8194
  121MOL   H22231662   5.905   5.879   0.598  0.2875 -0.9561 -0.3962
  121MOL   C22331663   6.063   5.740   0.561 -0.0196  0.3825  0.6212
  121MOL   C22431664   5.978   5.630   0.516 -0.1094  0.3552 -0.5369
  121MOL   C22531665   5.965   5.571   0.372  0.2215  0.5948  0.3936
  121MOL   C22631666   6.041   5.493   0.478  0.3911  0.3124  0.6973
  121MOL   C22731667   6.125   5.707   0.707  0.5151  0.5350  0.1898
  121MOL   H22831668   6.152   5.745   0.499  0.9684 -3.0052  1.6989
  121MOL   H22931669   5.880   5.643   0.562 -1.1224 -0.8785 -2.2723
  121MOL   H23031670   6.010   5.631   0.293  0.0732  0.8446  0.4992
  121MOL   H23131671   5.865   5.534   0.350  0.5696 -0.1725  0.0904
  121MOL   H23231672   5.997   5.403   0.519  1.6849 -0.9333 -0.5992
  121MOL   H23331673   6.141   5.470   0.440 -0.0093  0.3939 -0.4347
  121MOL   H23431674   6.039   5.700   0.773  0.5424  2.0742  0.4097
  121MOL   H23531675   6.158   5.603   0.709 -0.3200  0.2599  0.0102
  121MOL   C23631676   6.215   5.805   0.797 -0.1168  0.6170 -0.9741
  121MOL   C23731677   6.366   5.802   0.753 -0.2769 -0.1278 -0.1567
  121MOL   C23831678   6.406   5.865   0.625 -0.4407  0.9359 -0.6792
  121MOL   C23931679   6.450   5.920   0.759 -0.2123  0.1677  0.6981
  121MOL   C24031680   6.220   5.768   0.947  0.6861  0.4102  0.4950
  121MOL   H24131681   6.171   5.901   0.772  0.1343  1.3816  1.4100
  121MOL   H24231682   6.422   5.711   0.773  0.9792 -0.5777 -5.1425
  121MOL   H24331683   6.489   5.826   0.566 -1.4186  0.7778 -1.9518
  121MOL   H24431684   6.332   5.919   0.568 -0.9973  1.0033  0.1092
  121MOL   H24531685   6.399   6.007   0.801 -1.8827 -1.5702  2.3334
  121MOL   H24631686   6.557   5.903   0.761 -0.5562 -2.4752 -1.0457
  121MOL   H24731687   6.117   5.738   0.965  0.9306 -1.8412 -1.6164
  121MOL   H24831688   6.288   5.683   0.958 -0.5309 -0.9325 -1.9523
  121MOL   C24931689   6.261   5.879   1.049  0.7585  0.3375 -0.3376
  121MOL   C25031690   6.328   5.834   1.174 -0.6873 -0.3257 -0.6725
  121MOL   C25131691   6.470   5.775   1.176 -0.8251 -0.2261  0.0252
  121MOL   C25231692   6.441   5.922   1.233  0.1052  0.2708 -0.0955
  121MOL   C25331693   6.148   5.981   1.077  0.4761  0.3059  0.3312
  121MOL   H25431694   6.335   5.944   1.003 -0.8172  1.3013 -1.6009
  121MOL   H25531695   6.257   5.790   1.243  1.2183 -0.3543  1.3579
  121MOL   H25631696   6.497   5.691   1.240 -0.3929  0.0025  0.1429
  121MOL   H25731697   6.529   5.774   1.085  0.2911  0.3916  0.7396
  121MOL   H25831698   6.433   5.926   1.341 -3.3843 -2.6360 -0.1492
  121MOL   H25931699   6.474   6.008   1.176 -0.1254  0.7741  0.5358
  121MOL   H26031700   6.196   6.067   1.123  0.7378 -0.2915  1.1944
  121MOL   H26131701   6.079   5.947   1.155  0.1734 -0.3838 -0.2281
  121MOL   H26231702   6.088   6.016   0.993  1.5609 -0.4118 -0.7607
  122MOL     C131703   3.408   0.572   5.585  0.5364  0.3188  0.2242
  122MOL     C231704   3.265   0.568   5.638  0.8030 -0.1874  0.0391
  122MOL     C331705   3.183   0.439   5.637  0.4675  0.0650  0.5833
  122MOL     C431706   3.145   0.557   5.549 -0.8341 -0.3889  0.2871
  122MOL     C531707   3.444   0.698   5.512  0.6724  0.5971  0.0925
  122MOL     H631708   3.478   0.547   5.664  1.6755  1.8799 -0.2531
  122MOL     H731709   3.253   0.639   5.720 -2.9379  1.7863 -2.0428
  122MOL     H831710   3.206   0.348   5.582 -0.5417 -0.1481  0.4978
  122MOL     H931711   3.130   0.419   5.730  1.2961 -1.7966  0.6725
  122MOL    H1031712   3.058   0.613   5.582 -1.3716 -1.6249  1.0116
  122MOL    H1131713   3.151   0.546   5.441 -1.2968 -2.2420  0.4270
  122MOL    H1231714   3.386   0.773   5.565  0.0747 -0.9321  1.6560
  122MOL    H1331715   3.397   0.679   5.415 -2.5167  1.0609  1.4829
  122MOL    H1431716   3.416   0.495   5.508  2.6485  1.1339 -0.4298
  122MOL    C1531717   3.590   0.739   5.484  0.2093 -0.0961  0.4387
  122MOL    C1631718   3.609   0.846   5.376 -0.3538 -0.1390 -0.2101
  122MOL    C1731719   3.600   0.813   5.232  0.3408  0.1320  0.6502
  122MOL    C1831720   3.733   0.851   5.292  0.4823 -0.2174  0.5263
  122MOL    C1931721   3.677   0.763   5.610 -0.3953  0.2031  0.7888
  122MOL    H2031722   3.637   0.657   5.430 -2.2254 -0.4422 -1.1909
  122MOL    H2131723   3.576   0.945   5.407  0.5628 -0.4775  1.9631
  122MOL    H2231724   3.557   0.889   5.168  1.7050 -0.5266 -1.0894
  122MOL    H2331725   3.601   0.714   5.187  1.0973  0.2805  0.3316
  122MOL    H2431726   3.804   0.769   5.293  0.0450 -0.6387 -1.4871
  122MOL    H2531727   3.778   0.942   5.251  0.0649 -0.8683 -1.4393
  122MOL    H2631728   3.780   0.743   5.581  0.2225  2.7463  1.1480
  122MOL    H2731729   3.660   0.679   5.678  0.3285 -1.3273 -0.8881
  122MOL    C2831730   3.661   0.894   5.692 -0.2930  0.4590  0.3405
  122MOL    C2931731   3.804   0.934   5.744  0.5910 -0.1849  0.1372
  122MOL    C3031732   3.915   0.974   5.652  0.0959 -0.8520 -0.6111
  122MOL    C3131733   3.854   1.078   5.734  0.2632 -0.1953  0.1405
  122MOL    C3231734   3.556   0.872   5.808 -0.0132 -0.4123  0.3182
  122MOL    H3331735   3.625   0.974   5.628  0.2602 -1.1905 -2.0887
  122MOL    H3431736   3.834   0.864   5.822 -1.3399  0.1647  1.2150
  122MOL    H3531737   3.886   0.970   5.548  0.4884  1.3215 -0.8248
  122MOL    H3631738   4.018   0.942   5.671 -0.0314 -0.3895  0.9228
  122MOL    H3731739   3.767   1.132   5.696 -2.2676 -3.4245  1.0937
  122MOL    H3831740   3.914   1.118   5.815  2.0388 -1.3091 -0.5872
  122MOL    H3931741   3.574   0.773   5.850  0.6004 -1.6852 -2.8197
  122MOL    H4031742   3.457   0.860   5.764 -0.2081  0.0585  0.6324
  122MOL    C4131743   3.549   0.984   5.903  0.1846  0.0328  0.0424
  122MOL    C4231744   3.464   0.932   6.021  0.4229 -0.1759  0.6660
  122MOL    C4331745   3.468   0.995   6.164  0.5935 -0.4215  0.5348
  122MOL    C4431746   3.523   0.859   6.140 -0.2413 -0.2627 -0.1358
  122MOL    C4531747   3.490   1.114   5.855 -1.0939 -0.0276  0.7372
  122MOL    H4631748   3.647   1.004   5.945  0.2094  1.3376 -0.6031
  122MOL    H4731749   3.374   0.881   5.990  0.9786 -1.2767  0.8361
  122MOL    H4831750   3.541   1.072   6.185  0.4718  0.1555 -1.1236
  122MOL    H4931751   3.374   1.013   6.217  0.8175 -1.7648  1.4317
  122MOL    H5031752   3.472   0.780   6.193  0.5816 -1.3907 -0.9887
  122MOL    H5131753   3.631   0.848   6.140  0.0050  1.9345 -0.7602
  122MOL    H5231754   3.552   1.161   5.779 -1.6863 -1.5710 -0.7368
  122MOL    H5331755   3.499   1.184   5.938  1.4546  0.1631  0.3402
  122MOL    C5431756   3.351   1.115   5.802  0.1778  0.3026  0.2565
  122MOL    C5531757   3.259   1.209   5.872  0.3880  0.5389 -0.6602
  122MOL    C5631758   3.163   1.153   5.986  0.1052  0.5186  0.0652
  122MOL    C5731759   3.110   1.190   5.848  1.0852  0.0523  0.6239
  122MOL    C5831760   3.338   1.133   5.647 -0.2147  0.1757 -0.7323
  122MOL    H5931761   3.314   1.014   5.820 -0.4090  0.3456 -0.6316
  122MOL    H6031762   3.289   1.314   5.875 -1.7523  1.2180 -1.7050
  122MOL    H6131763   3.149   1.048   6.009 -0.1489  0.8234  1.3540
  122MOL    H6231764   3.160   1.210   6.079 -0.7727  0.9120 -0.1989
  122MOL    H6331765   3.052   1.282   5.852  1.1460  0.0545  1.7634
  122MOL    H6431766   3.082   1.112   5.778  0.6475  0.8130 -0.0515
  122MOL    H6531767   3.415   1.067   5.607  0.0142 -0.0554  0.0806
  122MOL    H6631768   3.246   1.087   5.612 -0.8902  1.6667 -0.9780
  122MOL    C6731769   3.357   1.271   5.583  0.6013 -1.0582 -0.0362
  122MOL    C6831770   3.492   1.338   5.597  0.3413 -0.2639 -0.8371
  122MOL    C6931771   3.509   1.488   5.570  0.2395  0.0052 -0.1354
  122MOL    C7031772   3.521   1.435   5.714  0.4155 -0.2989 -0.3703
  122MOL    C7131773   3.325   1.263   5.429 -0.0731  0.6190 -0.4602
  122MOL    H7231774   3.282   1.332   5.633  1.3475  0.4579 -0.7250
  122MOL    H7331775   3.569   1.267   5.569 -0.2101 -1.7194  1.1933
  122MOL    H7431776   3.602   1.511   5.519 -0.5274  1.5677 -0.8645
  122MOL    H7531777   3.422   1.550   5.553 -0.4563 -0.0352  2.9469
  122MOL    H7631778   3.442   1.455   5.786  1.4732 -2.3984  1.4260
  122MOL    H7731779   3.622   1.431   5.753 -0.3958  1.1971  2.0531
  122MOL    H7831780   3.392   1.187   5.388  0.1430  1.2579 -1.3014
  122MOL    H7931781   3.366   1.356   5.389 -1.3343  0.8969 -1.1274
  122MOL    C8031782   3.175   1.268   5.387 -0.2310  0.9009  0.2666
  122MOL    C8131783   3.156   1.152   5.289 -0.1694 -0.1789  0.6344
  122MOL    C8231784   3.025   1.081   5.260 -0.6315  0.0768 -0.4359
  122MOL    C8331785   3.136   1.007   5.326 -0.1112  0.9166  0.2393
  122MOL    C8431786   3.123   1.401   5.346  0.2901  0.1720  0.7463
  122MOL    H8531787   3.119   1.235   5.475 -0.6340  0.1570 -0.2695
  122MOL    H8631788   3.194   1.186   5.193 -0.1480  0.2572  0.7954
  122MOL    H8731789   3.001   1.045   5.160 -2.5932 -1.3314  0.5045
  122MOL    H8831790   2.938   1.097   5.323 -2.8508 -2.5829 -2.6717
  122MOL    H8931791   3.128   0.978   5.430  0.0340 -1.6208 -0.4204
  122MOL    H9031792   3.189   0.935   5.264 -0.6042  0.1858  0.6683
  122MOL    H9131793   3.190   1.427   5.264  0.1088 -1.1599  0.1671
  122MOL    H9231794   3.021   1.394   5.308  0.3877 -0.1213  0.5374
  122MOL    C9331795   3.123   1.507   5.456  0.2908  0.5570 -0.3306
  122MOL    C9431796   3.105   1.647   5.386  0.2952 -0.0826  0.5019
  122MOL    C9531797   3.184   1.768   5.426 -0.6689 -0.5043 -0.1964
  122MOL    C9631798   3.201   1.707   5.290  0.7267  0.1226  0.0211
  122MOL    C9731799   3.018   1.484   5.571 -0.5982 -0.3798 -0.2147
  122MOL    H9831800   3.222   1.514   5.501  1.2517 -2.9014 -1.7809
  122MOL    H9931801   3.002   1.664   5.355  0.3516  1.1644  0.9299
  122MOL   H10031802   3.132   1.864   5.431 -1.8205 -1.0785 -0.8973
  122MOL   H10131803   3.261   1.753   5.501 -1.5997  0.8788  1.0863
  122MOL   H10231804   3.160   1.763   5.207 -0.3680 -1.3599 -0.4716
  122MOL   H10331805   3.285   1.643   5.265  0.7617  0.1554  0.0532
  122MOL   H10431806   3.042   1.385   5.609  0.6623 -0.9542 -2.4336
  122MOL   H10531807   2.920   1.491   5.522 -0.5111 -1.3627 -0.5502
  122MOL   C10631808   3.009   1.583   5.688 -0.4271  0.1493 -0.0507
  122MOL   C10731809   2.887   1.546   5.773  0.5286 -0.2626  0.0609
  122MOL   C10831810   2.822   1.652   5.852 -0.2510 -0.1073 -0.0726
  122MOL   C10931811   2.750   1.597   5.731 -0.0989  0.5756  0.2645
  122MOL   C11031812   3.139   1.584   5.776  0.2518 -0.0871  0.7781
  122MOL   H11131813   2.996   1.686   5.653  0.9833  0.4577  0.2726
  122MOL   H11231814   2.896   1.442   5.804 -0.1871 -0.3687 -0.0734
  122MOL   H11331815   2.793   1.623   5.953  1.0933  0.0663  0.3795
  122MOL   H11431816   2.848   1.757   5.846  0.0647 -0.1615  0.3038
  122MOL   H11531817   2.741   1.668   5.650  1.8232 -0.9476 -1.3238
  122MOL   H11631818   2.670   1.525   5.748  0.1941  0.3417  0.6803
  122MOL   H11731819   3.147   1.480   5.809 -0.0441 -0.1083  0.7827
  122MOL   H11831820   3.228   1.599   5.715  0.3958 -0.2788  0.9413
  122MOL   C11931821   3.158   1.682   5.898  0.6184  0.6652  0.4682
  122MOL   C12031822   3.285   1.644   5.969 -0.7447  0.0964  0.5238
  122MOL   C12131823   3.293   1.523   6.058  0.3035  0.2317 -0.1736
  122MOL   C12231824   3.281   1.649   6.125  0.2097 -0.4181 -0.5436
  122MOL   C12331825   3.162   1.830   5.847  0.2558  0.1552 -0.2541
  122MOL   H12431826   3.075   1.671   5.968 -1.3489 -2.3803 -2.2198
  122MOL   H12531827   3.383   1.667   5.927  0.9501 -1.6525  3.3731
  122MOL   H12631828   3.389   1.473   6.061 -0.1756 -0.6322  1.3866
  122MOL   H12731829   3.204   1.461   6.050  0.0884  0.5853 -0.5020
  122MOL   H12831830   3.181   1.690   6.141 -0.5392 -2.3106 -0.2410
  122MOL   H12931831   3.366   1.704   6.164 -0.4683 -0.7295  1.4117
  122MOL   H13031832   3.230   1.835   5.762  1.6379 -0.3609  0.7956
  122MOL   H13131833   3.062   1.849   5.809 -0.5569 -0.3808  1.5535
  122MOL   C13231834   3.196   1.938   5.953  0.7738  0.4024 -0.5305
  122MOL   C13331835   3.074   1.959   6.048 -0.5940 -0.3281 -0.3942
  122MOL   C13431836   2.951   2.042   5.999 -0.4365  0.3740  0.0772
  122MOL   C13531837   3.036   2.095   6.115  0.0679 -0.2494  1.0335
  122MOL   C13631838   3.260   2.061   5.885  0.0786  0.2982  0.9675
  122MOL   H13731839   3.266   1.891   6.022 -0.2221 -1.3357 -0.6804
  122MOL   H13831840   3.047   1.876   6.114 -0.7318  0.9683  1.2174
  122MOL   H13931841   2.972   2.075   5.897  0.0892  1.2497  0.4619
  122MOL   H14031842   2.863   1.978   6.007  0.4390 -1.1712 -2.2824
  122MOL   H14131843   3.088   2.188   6.092 -1.6314  0.6897  0.8940
  122MOL   H14231844   3.012   2.084   6.221  2.1279  2.6505  1.8697
  122MOL   H14331845   3.256   2.046   5.777  3.3359 -0.0704  0.8221
  122MOL   H14431846   3.193   2.146   5.896  1.3423  1.7130 -1.6642
  122MOL   C14531847   3.400   2.113   5.932 -0.1984 -0.0596 -0.3294
  122MOL   C14631848   3.407   2.143   6.079  0.4005 -0.1296  0.1291
  122MOL   C14731849   3.485   2.258   6.128 -0.6422 -1.3373  0.5111
  122MOL   C14831850   3.336   2.268   6.127  0.0789 -0.2142  0.3790
  122MOL   C14931851   3.515   2.025   5.890  0.7053  1.1100 -0.6663
  122MOL   H15031852   3.427   2.209   5.888  0.6125 -0.4492 -0.7150
  122MOL   H15131853   3.411   2.052   6.138  0.0817 -0.6241 -0.5939
  122MOL   H15231854   3.530   2.246   6.226  1.1006  0.1882 -0.0864
  122MOL   H15331855   3.537   2.319   6.055 -2.5925  0.9643  0.9576
  122MOL   H15431856   3.308   2.348   6.058 -1.5471 -1.1385 -0.0585
  122MOL   H15531857   3.301   2.285   6.228 -0.2563  0.6481  0.1217
  122MOL   H15631858   3.605   2.047   5.947 -0.3587  0.5021  1.2973
  122MOL   H15731859   3.504   1.923   5.927 -0.3166  1.0224 -1.1912
  122MOL   C15831860   3.541   2.020   5.736  0.3031 -0.4191 -0.0093
  122MOL   C15931861   3.641   1.913   5.698  0.2220  0.2070  0.0229
  122MOL   C16031862   3.599   1.768   5.691  0.3016 -0.3873  0.0684
  122MOL   C16131863   3.630   1.847   5.567 -0.4199 -0.0915 -0.2199
  122MOL   C16231864   3.600   2.151   5.679 -0.3294 -0.0241 -0.8235
  122MOL   H16331865   3.449   1.989   5.686  0.7470 -0.5006 -0.7722
  122MOL   H16431866   3.741   1.923   5.740 -0.8309  1.7237  2.3052
  122MOL   H16531867   3.494   1.742   5.700  0.3530 -1.1646 -1.4115
  122MOL   H16631868   3.674   1.707   5.741 -1.7067 -0.9458  2.4910
  122MOL   H16731869   3.724   1.823   5.519 -0.8591 -1.4282 -0.4367
  122MOL   H16831870   3.550   1.882   5.501 -1.0622  1.4179  1.3144
  122MOL   H16931871   3.709   2.139   5.672 -0.2870  0.4509 -0.9970
  122MOL   H17031872   3.596   2.227   5.757 -0.5486 -0.7259 -0.1396
  122MOL   C17131873   3.550   2.196   5.540  0.5101  0.1765  0.4856
  122MOL   C17231874   3.393   2.195   5.532 -0.1277  0.2608 -0.2402
  122MOL   C17331875   3.310   2.223   5.404  0.0342  0.4436 -0.0783
  122MOL   C17431876   3.325   2.086   5.465 -0.7408  0.6327  0.0195
  122MOL   C17531877   3.606   2.333   5.484  0.0064  0.8819  0.2918
  122MOL   H17631878   3.571   2.118   5.467  0.8940 -0.3165  1.1276
  122MOL   H17731879   3.348   2.224   5.627 -1.1857 -2.1615  0.0449
  122MOL   H17831880   3.205   2.253   5.405 -0.3890 -0.9979 -0.0328
  122MOL   H17931881   3.371   2.250   5.318  0.6880 -1.1468 -0.1361
  122MOL   H18031882   3.373   2.008   5.407 -2.9203 -0.0866 -0.8672
  122MOL   H18131883   3.259   2.029   5.531 -0.0418 -1.9048 -1.4272
  122MOL   H18231884   3.662   2.379   5.565 -0.5909  2.0891  0.0389
  122MOL   H18331885   3.523   2.399   5.458 -1.7202 -1.3728 -0.0566
  122MOL   C18431886   3.691   2.327   5.350 -0.5513  0.1383  0.5445
  122MOL   C18531887   3.823   2.255   5.373  0.1461 -0.2456 -0.0219
  122MOL   C18631888   3.906   2.191   5.262  0.7787 -0.8091 -0.5997
  122MOL   C18731889   3.825   2.105   5.365 -0.2367  0.4760 -0.1779
  122MOL   C18831890   3.701   2.460   5.271 -0.4671  0.1273 -0.6682
  122MOL   H18931891   3.638   2.262   5.282  1.1088  0.5915 -1.2379
  122MOL   H19031892   3.876   2.302   5.455 -0.1179  0.7693 -0.4249
  122MOL   H19131893   4.013   2.187   5.281  0.8983  2.8772 -0.0545
  122MOL   H19231894   3.863   2.202   5.163 -0.8031 -0.8298  0.0737
  122MOL   H19331895   3.874   2.045   5.442 -1.1299  0.2624  0.2309
  122MOL   H19431896   3.730   2.063   5.332 -2.0253  1.0406  3.9957
  122MOL   H19531897   3.600   2.491   5.245 -0.3849  1.4567  0.5597
  122MOL   H19631898   3.742   2.445   5.171  0.4153  1.3937 -0.5186
  122MOL   C19731899   3.792   2.574   5.325 -0.2714  0.1095  0.2820
  122MOL   C19831900   3.716   2.707   5.331 -0.6257  0.6219 -1.1675
  122MOL   C19931901   3.758   2.821   5.427 -0.1551 -0.2105  0.2205
  122MOL   C20031902   3.632   2.741   5.454  0.3044  0.4676 -0.2880
  122MOL   C20131903   3.937   2.588   5.258 -0.4744  0.4003 -0.0375
  122MOL   H20231904   3.806   2.526   5.421 -1.7149  1.0690  0.9898
  122MOL   H20331905   3.666   2.728   5.237 -0.6877  1.9337 -0.8439
  122MOL   H20431906   3.852   2.798   5.477 -0.6453 -1.0696  0.7517
  122MOL   H20531907   3.752   2.923   5.390 -0.9684 -0.5539 -0.6103
  122MOL   H20631908   3.632   2.674   5.540  1.1586 -0.4130 -0.9632
  122MOL   H20731909   3.546   2.807   5.449  0.8837  1.3243  0.7264
  122MOL   H20831910   3.956   2.507   5.188  0.4108  2.0547 -1.7435
  122MOL   H20931911   3.926   2.678   5.197 -0.2168 -0.2126 -1.0056
  122MOL   C21031912   4.054   2.600   5.352 -0.5988  0.5877  0.0258
  122MOL   C21131913   4.070   2.486   5.453  0.2294  0.1640 -0.2169
  122MOL   C21231914   4.173   2.501   5.569  0.1734 -0.1956 -0.0158
  122MOL   C21331915   4.021   2.496   5.593 -0.6453 -0.4259 -0.1191
  122MOL   C21431916   4.186   2.622   5.261  0.1280  0.2837 -0.4008
  122MOL   H21531917   4.033   2.687   5.414 -3.1741  0.6795 -0.9065
  122MOL   H21631918   4.053   2.389   5.406  1.0338  0.4369 -1.0887
  122MOL   H21731919   4.238   2.415   5.585  0.6300  0.6454  2.9741
  122MOL   H21831920   4.215   2.602   5.574  0.6139 -0.3671 -0.2304
  122MOL   H21931921   3.972   2.416   5.648 -2.0714 -0.3390 -1.2315
  122MOL   H22031922   3.982   2.596   5.610  2.0996  0.2847  2.3597
  122MOL   H22131923   4.275   2.595   5.319 -1.0969  0.0388  1.3944
  122MOL   H22231924   4.191   2.542   5.188 -0.4178  0.5706 -0.7578
  122MOL   C22331925   4.199   2.763   5.190  0.0722  0.1193 -0.7948
  122MOL   C22431926   4.253   2.728   5.055 -0.1159  0.0247  0.2673
  122MOL   C22531927   4.162   2.676   4.943 -0.4743 -0.0464 -0.4382
  122MOL   C22631928   4.230   2.813   4.931 -0.3902  0.4219  0.4077
  122MOL   C22731929   4.288   2.863   5.262 -0.0082 -0.3810  0.1455
  122MOL   H22831930   4.107   2.816   5.164 -0.5758 -0.3705  0.4365
  122MOL   H22931931   4.353   2.684   5.056  0.5024  1.3666  2.5955
  122MOL   H23031932   4.057   2.673   4.968  0.1769 -1.2049  2.3522
  122MOL   H23131933   4.195   2.589   4.887 -0.0449 -0.8090  0.9809
  122MOL   H23231934   4.299   2.815   4.847  1.1110  1.1446  1.6391
  122MOL   H23331935   4.177   2.906   4.950 -1.6965 -0.1703 -0.2424
  122MOL   H23431936   4.383   2.815   5.287 -0.0342  0.5935  2.2026
  122MOL   H23531937   4.308   2.949   5.199  0.1183 -0.9286 -0.5711
  122MOL   C23631938   4.239   2.916   5.400  0.1385  0.4892  0.1337
  122MOL   C23731939   4.147   3.037   5.373  0.2558  0.2255  0.2712
  122MOL   C23831940   4.005   3.037   5.328  0.8051 -0.1500 -0.4147
  122MOL   C23931941   4.041   3.093   5.464 -0.5490  0.1774  0.2519
  122MOL   C24031942   4.359   2.966   5.492  0.4200 -0.1183  0.5780
  122MOL   H24131943   4.190   2.829   5.441  2.3513 -1.0076 -0.2987
  122MOL   H24231944   4.202   3.117   5.324  2.7388 -1.8715 -0.4879
  122MOL   H24331945   3.967   3.112   5.259  0.3740 -1.6397 -1.8165
  122MOL   H24431946   3.953   2.942   5.333  2.6344 -1.1146  0.5542
  122MOL   H24531947   4.025   3.034   5.554  0.7469  0.9594  1.0090
  122MOL   H24631948   4.057   3.199   5.483  0.6484  0.2959 -1.2953
  122MOL   H24731949   4.455   2.962   5.440 -0.2329 -3.6012 -0.5092
  122MOL   H24831950   4.336   3.068   5.522 -0.3969  0.0723 -0.6815
  122MOL   C24931951   4.372   2.893   5.630  0.5140 -0.7268  0.2921
  122MOL   C25031952   4.442   2.756   5.611 -0.3191  0.2353  0.7234
  122MOL   C25131953   4.591   2.733   5.639 -0.1856 -0.6268  0.4274
  122MOL   C25231954   4.477   2.670   5.720 -0.6794  0.3019 -0.1908
  122MOL   C25331955   4.243   2.881   5.710 -0.1149  0.0300  0.0269
  122MOL   H25431956   4.428   2.957   5.698  1.9520 -1.8774  0.2150
  122MOL   H25531957   4.399   2.707   5.525 -1.1075  0.2008  1.1307
  122MOL   H25631958   4.650   2.666   5.576 -1.3752 -0.4597 -0.8898
  122MOL   H25731959   4.642   2.822   5.673 -1.3861  0.5470 -0.7788
  122MOL   H25831960   4.456   2.565   5.702  1.8068 -0.1281 -0.7735
  122MOL   H25931961   4.474   2.710   5.821  0.7212  0.6838 -0.2830
  122MOL   H26031962   4.166   2.816   5.669  0.3858  0.1232 -1.0825
  122MOL   H26131963   4.207   2.984   5.711 -0.7112 -0.1842  0.8019
  122MOL   H26231964   4.253   2.849   5.813 -1.6700 -1.1029 -0.1561
  123MOL     C131965   5.272   0.409   3.739  0.6755 -0.1481  0.0533
  123MOL     C231966   5.378   0.313   3.687  0.3870  0.7449  0.2704
  123MOL     C331967   5.337   0.185   3.611 -0.0405  0.0625  0.4869
  123MOL     C431968   5.378   0.172   3.748 -0.0765 -0.4420 -0.0409
  123MOL     C531969   5.233   0.505   3.627 -0.0900 -0.0014 -0.3886
  123MOL     H631970   5.188   0.349   3.774  0.5107  1.0665  1.7945
  123MOL     H731971   5.464   0.354   3.634  0.7160 -3.0552 -2.3643
  123MOL     H831972   5.233   0.173   3.581  0.0253 -3.7345  1.4282
  123MOL     H931973   5.413   0.133   3.554  0.1051 -0.5137  1.1874
  123MOL    H1031974   5.477   0.129   3.765  0.4383  0.1952 -1.3298
  123MOL    H1131975   5.305   0.151   3.826 -0.8461 -2.1874 -1.2001
  123MOL    H1231976   5.228   0.446   3.535  0.0943 -0.3891 -0.1497
  123MOL    H1331977   5.322   0.564   3.605 -0.2381  0.3615 -0.0104
  123MOL    H1431978   5.322   0.461   3.821 -0.4597  1.1511 -0.0783
  123MOL    C1531979   5.109   0.587   3.664 -0.5662  0.1171  0.0943
  123MOL    C1631980   5.126   0.659   3.798  0.5170 -0.3564 -0.2200
  123MOL    C1731981   5.075   0.605   3.937  0.3506 -0.2735 -0.0898
  123MOL    C1831982   5.004   0.715   3.871 -0.3120  0.2170  1.1604
  123MOL    C1931983   5.075   0.691   3.554 -0.6441 -0.0404 -0.0006
  123MOL    H2031984   5.025   0.518   3.672  1.3171 -2.1973  0.7348
  123MOL    H2131985   5.219   0.715   3.798 -0.4737  1.3415 -1.7580
  123MOL    H2231986   5.121   0.619   4.034 -0.7275  1.6753  0.1650
  123MOL    H2331987   5.021   0.510   3.927 -0.9433  0.4550 -0.1301
  123MOL    H2431988   4.907   0.691   3.828  0.7749 -1.5788 -0.3499
  123MOL    H2531989   5.020   0.818   3.904  0.7641  0.1507  0.8535
  123MOL    H2631990   5.150   0.768   3.573 -0.7393  0.2354 -0.7299
  123MOL    H2731991   4.983   0.745   3.576 -1.7958 -2.0782  0.2081
  123MOL    C2831992   5.067   0.645   3.401  0.3097  0.1229 -0.6070
  123MOL    C2931993   5.050   0.773   3.330 -0.2069 -0.0167  0.1602
  123MOL    C3031994   5.157   0.872   3.294  0.3363  0.4377 -0.4107
  123MOL    C3131995   5.109   0.768   3.192 -0.1377 -0.1317 -0.2296
  123MOL    C3231996   4.958   0.540   3.368  0.6255  0.7798  0.2785
  123MOL    H3331997   5.168   0.614   3.374 -0.0621 -1.5257 -0.1675
  123MOL    H3431998   4.950   0.815   3.344 -0.8595 -0.6687 -2.2969
  123MOL    H3531999   5.257   0.853   3.330  0.7194  0.5958 -1.3664
  123MOL    H3632000   5.133   0.975   3.269  1.3759  0.5951 -0.7629
  123MOL    H3732001   5.173   0.681   3.178  0.2176  0.0196  0.4383
  123MOL    H3832002   5.029   0.783   3.119 -1.8479 -1.4937  1.3178
  123MOL    H3932003   4.866   0.596   3.352  2.1205  3.2060 -0.2835
  123MOL    H4032004   4.938   0.480   3.457  0.9458 -0.9127 -0.7721
  123MOL    C4132005   4.972   0.454   3.238  0.3460  0.3046 -0.7797
  123MOL    C4232006   4.838   0.379   3.223 -0.1202 -0.3672  0.3244
  123MOL    C4332007   4.791   0.258   3.307 -0.4296  0.1709  0.2987
  123MOL    C4432008   4.822   0.243   3.156 -0.3178 -0.3148 -0.1931
  123MOL    C4532009   5.103   0.359   3.262  0.2707  0.8580  0.3909
  123MOL    H4632010   4.985   0.519   3.152  1.5662  0.1745 -0.7073
  123MOL    H4732011   4.763   0.442   3.174 -0.5484 -1.0854  0.0382
  123MOL    H4832012   4.850   0.213   3.386 -0.5643  0.0291  0.3181
  123MOL    H4932013   4.686   0.264   3.335 -0.0330 -1.4289  2.1879
  123MOL    H5032014   4.745   0.238   3.079  1.2344  1.5538 -1.9214
  123MOL    H5132015   4.901   0.173   3.132 -1.9233 -2.1359 -0.3477
  123MOL    H5232016   5.073   0.270   3.317  1.9506  0.2715  0.3911
  123MOL    H5332017   5.182   0.410   3.317  0.2711  2.0396 -0.6655
  123MOL    C5432018   5.173   0.306   3.130 -0.3613  0.0240 -0.1431
  123MOL    C5532019   5.261   0.420   3.068  0.6158  0.4253 -0.5099
  123MOL    C5632020   5.220   0.500   2.945 -0.1268 -0.1747 -0.9912
  123MOL    C5732021   5.325   0.388   2.932 -0.0596  0.1354  0.7204
  123MOL    C5832022   5.264   0.185   3.161  0.1043  0.2142 -0.8561
  123MOL    H5932023   5.108   0.274   3.049 -0.1622 -1.4942  0.2781
  123MOL    H6032024   5.338   0.463   3.131  0.7095  0.3702 -0.5850
  123MOL    H6132025   5.118   0.484   2.910 -0.1444 -1.8000 -0.2707
  123MOL    H6232026   5.256   0.602   2.945  1.5139 -0.6322  3.1962
  123MOL    H6332027   5.429   0.413   2.910 -1.1062  2.0363 -2.3225
  123MOL    H6432028   5.287   0.299   2.882  3.3448 -0.2431 -1.4133
  123MOL    H6532029   5.357   0.196   3.104 -0.3138  0.1985 -1.5436
  123MOL    H6632030   5.288   0.186   3.267 -3.2981  0.5802 -0.0333
  123MOL    C6732031   5.200   0.041   3.141  0.9414  0.2519 -0.1665
  123MOL    C6832032   5.304   7.788   3.090 -0.0865  0.3990  0.7690
  123MOL    C6932033   5.273   7.695   2.978  0.8489 -0.2244 -0.1735
  123MOL    C7032034   5.357   7.814   2.946  0.6550 -0.5742 -0.3532
  123MOL    C7132035   5.129   7.835   3.271 -0.3194  0.6507  0.4553
  123MOL    H7232036   5.124   0.044   3.063 -0.3179  1.1822  1.0906
  123MOL    H7332037   5.366   7.736   3.163 -0.3033 -2.0646 -0.7420
  123MOL    H7432038   5.314   7.594   2.976 -0.2077 -0.6295 -1.9864
  123MOL    H7532039   5.175   7.700   2.930  1.2772 -2.5777 -1.3525
  123MOL    H7632040   5.306   0.058   2.897 -2.3608 -2.4064 -0.4369
  123MOL    H7732041   5.464   7.817   2.927  0.6875 -2.6651 -0.6566
  123MOL    H7832042   5.046   0.063   3.295 -0.8047 -0.2262  1.2557
  123MOL    H7932043   5.191   0.004   3.359 -0.3225 -1.7324  0.7226
  123MOL    C8032044   5.052   7.710   3.257 -0.2902 -0.1803 -0.2380
  123MOL    C8132045   4.909   7.737   3.203  0.2149 -0.5530 -0.4974
  123MOL    C8232046   4.827   7.623   3.147  0.3984 -0.3183 -0.3258
  123MOL    C8332047   4.887   7.726   3.057 -0.1704 -1.1067  0.2182
  123MOL    C8432048   5.031   7.644   3.387  0.2696  0.3738  0.9044
  123MOL    H8532049   5.106   7.646   3.186 -0.2458  1.9764 -2.2269
  123MOL    H8632050   4.853   7.817   3.251 -2.5730 -3.1023  0.6051
  123MOL    H8732051   4.721   7.623   3.169  0.2812  0.6631 -0.8916
  123MOL    H8832052   4.878   7.527   3.155  0.8967  0.0033  0.4307
  123MOL    H8932053   4.974   7.697   2.998  0.7955  2.0101 -0.0053
  123MOL    H9032054   4.826   7.807   3.016  0.5710 -0.9776 -0.6561
  123MOL    H9132055   4.997   7.715   3.463  1.8761  2.6638 -0.4571
  123MOL    H9232056   4.942   7.581   3.382 -1.2042  2.4944 -0.4969
  123MOL    C9332057   5.156   7.554   3.429 -0.0113 -0.1050  0.1039
  123MOL    C9432058   5.173   7.568   3.581  0.3010 -0.4543 -0.1663
  123MOL    C9532059   5.301   7.584   3.653  0.2818 -0.2877  0.6268
  123MOL    C9632060   5.212   7.698   3.643 -0.9198 -0.8634 -0.6629
  123MOL    C9732061   5.137   7.406   3.377  0.6598  0.0510  0.2675
  123MOL    H9832062   5.251   7.579   3.382 -0.8293  0.4083 -1.2839
  123MOL    H9932063   5.087   7.533   3.638  0.8858  2.6764  2.8440
  123MOL   H10032064   5.304   7.543   3.754 -1.8987 -2.7384 -0.2487
  123MOL   H10132065   5.398   7.597   3.605  0.0302 -0.0985  0.1735
  123MOL   H10232066   5.148   7.738   3.722  1.3165  1.6508 -0.0536
  123MOL   H10332067   5.246   7.779   3.579  0.1082 -1.7345 -1.2252
  123MOL   H10432068   5.106   7.421   3.273  0.3040 -0.5742  0.2783
  123MOL   H10532069   5.048   7.360   3.419  0.6167  0.7517  0.9557
  123MOL   C10632070   5.258   7.305   3.384 -0.5313 -0.3042 -0.0026
  123MOL   C10732071   5.387   7.365   3.323  0.3759 -0.2347 -0.4945
  123MOL   C10832072   5.473   7.280   3.226  0.6370  0.4569 -0.1164
  123MOL   C10932073   5.401   7.399   3.180  0.2645 -0.2943  0.9010
  123MOL   C11032074   5.275   7.233   3.517  0.0135 -0.3586 -0.0447
  123MOL   H11132075   5.235   7.227   3.311  1.5563 -1.7880  0.8553
  123MOL   H11232076   5.433   7.435   3.392 -0.4776  0.4556 -0.6192
  123MOL   H11332077   5.581   7.285   3.238  0.7489 -3.3328  1.0175
  123MOL   H11432078   5.427   7.195   3.176 -0.6559  1.1017 -0.0488
  123MOL   H11532079   5.310   7.379   3.122 -0.5720  3.1062  0.9372
  123MOL   H11632080   5.468   7.473   3.137 -0.5797  0.8033  1.4540
  123MOL   H11732081   5.367   7.279   3.552 -0.7839  0.2561  1.2722
  123MOL   H11832082   5.191   7.279   3.568  0.1516  1.8909 -1.7529
  123MOL   C11932083   5.290   7.078   3.516  0.6940 -0.3281 -0.2009
  123MOL   C12032084   5.372   7.038   3.639  0.3298 -0.4890 -0.5990
  123MOL   C12132085   5.525   7.038   3.644  0.5159 -0.4192 -0.1084
  123MOL   C12232086   5.445   6.903   3.651  0.1478  0.2491 -0.3276
  123MOL   C12332087   5.151   7.006   3.525 -0.1146  0.3550  0.0403
  123MOL   H12432088   5.339   7.031   3.431  1.2613  2.3037 -1.3804
  123MOL   H12532089   5.320   7.066   3.730  1.5575  1.5729 -0.5105
  123MOL   H12632090   5.560   7.071   3.741 -1.6453 -0.5560  0.7473
  123MOL   H12732091   5.576   7.075   3.555  2.3054 -0.6316  0.8059
  123MOL   H12832092   5.457   6.839   3.564  0.8490  1.3321 -1.0419
  123MOL   H12932093   5.419   6.848   3.742 -0.3274  0.3359 -0.4112
  123MOL   H13032094   5.168   6.902   3.554 -0.0009  0.1371 -0.7779
  123MOL   H13132095   5.105   7.054   3.611  1.8159  1.4997  0.4570
  123MOL   C13232096   5.052   7.010   3.399  0.3580  0.0675 -0.2844
  123MOL   C13332097   4.908   7.004   3.460 -0.6444  0.3468 -0.2893
  123MOL   C13432098   4.796   7.093   3.417 -0.5471  0.2349 -0.7065
  123MOL   C13532099   4.859   7.110   3.554  0.4497  0.1487 -0.5270
  123MOL   C13632100   5.078   6.889   3.300  0.1054 -0.4224 -0.5921
  123MOL   H13732101   5.048   7.108   3.351 -1.2961 -0.1353 -0.5719
  123MOL   H13832102   4.871   6.904   3.481 -0.9123  0.2443 -1.1944
  123MOL   H13932103   4.806   7.165   3.336  1.0604  0.5228 -0.2610
  123MOL   H14032104   4.697   7.047   3.421  0.8056 -2.7697 -0.3800
  123MOL   H14132105   4.929   7.189   3.579 -2.1151  1.8424  1.5829
  123MOL   H14232106   4.805   7.087   3.646  1.0107  1.7201  0.2107
  123MOL   H14332107   5.179   6.886   3.259 -0.4722 -2.8831 -1.9122
  123MOL   H14432108   5.064   6.792   3.348  0.8668 -0.3845 -0.2937
  123MOL   C14532109   5.002   6.894   3.165  1.0446  0.2142 -1.0086
  123MOL   C14632110   4.876   6.817   3.171 -0.6390 -1.2901  0.4767
  123MOL   C14732111   4.824   6.738   3.049 -0.3395 -0.2469 -0.8042
  123MOL   C14832112   4.878   6.669   3.165  0.0853 -0.2730 -0.1212
  123MOL   C14932113   4.984   7.031   3.085 -0.4134  0.2485 -0.9405
  123MOL   H15032114   5.067   6.835   3.102  0.5054 -0.9435 -0.5070
  123MOL   H15132115   4.799   6.859   3.236 -0.3797 -1.3204  0.8025
  123MOL   H15232116   4.718   6.729   3.027  0.0425  0.5580 -3.2150
  123MOL   H15332117   4.884   6.744   2.958 -0.0118  2.1259 -0.4641
  123MOL   H15432118   4.966   6.607   3.148  1.0375  1.1910 -0.6473
  123MOL   H15532119   4.809   6.627   3.238  2.5267 -1.9370  1.3022
  123MOL   H15632120   4.925   7.014   2.995 -0.3946  0.2889 -0.9593
  123MOL   H15732121   4.923   7.106   3.134  0.1071  2.1840 -3.2118
  123MOL   C15832122   5.112   7.098   3.029  1.0391 -0.2340 -0.4024
  123MOL   C15932123   5.070   7.245   3.002  0.1282 -0.2641  0.0562
  123MOL   C16032124   5.107   7.331   2.880  0.0964  0.1885 -0.2373
  123MOL   C16132125   4.962   7.284   2.897 -1.0589 -0.3355  0.0274
  123MOL   C16232126   5.179   7.031   2.911 -0.1952 -0.5629 -0.8474
  123MOL   H16332127   5.180   7.107   3.113  0.9198 -0.8625 -0.2334
  123MOL   H16432128   5.066   7.301   3.094 -1.3388  1.4828 -1.0439
  123MOL   H16532129   5.134   7.305   2.778 -1.4011 -0.2569 -0.5307
  123MOL   H16632130   5.117   7.439   2.894 -2.4126 -0.0115  4.1724
  123MOL   H16732131   4.891   7.360   2.931  0.0868  2.1193 -2.8746
  123MOL   H16832132   4.918   7.207   2.835 -1.8760 -0.2484  0.4890
  123MOL   H16932133   5.220   7.093   2.830 -2.6581  1.7392 -0.4080
  123MOL   H17032134   5.091   6.984   2.868 -0.4533 -1.7721  0.9976
  123MOL   C17132135   5.283   6.926   2.943  0.6247 -0.1720 -0.0295
  123MOL   C17232136   5.279   6.797   2.858  0.4715 -0.3976 -0.7124
  123MOL   C17332137   5.152   6.741   2.790 -0.1952  0.6946 -0.5007
  123MOL   C17432138   5.256   6.813   2.707 -0.6773 -0.4137  0.1454
  123MOL   C17532139   5.427   6.982   2.936  0.8390 -0.2222 -0.1404
  123MOL   H17632140   5.277   6.889   3.046 -0.6854 -1.6572 -0.6123
  123MOL   H17732141   5.338   6.715   2.898  0.6302  0.8221  1.6270
  123MOL   H17832142   5.139   6.637   2.762 -3.4860  0.8323  0.3028
  123MOL   H17932143   5.061   6.799   2.784 -0.2709  0.7549  0.9662
  123MOL   H18032144   5.237   6.914   2.671  1.3060  0.2691  0.9021
  123MOL   H18132145   5.323   6.753   2.647 -0.4979 -1.3407  1.2534
  123MOL   H18232146   5.427   7.084   2.974  1.8941 -0.1487 -0.3279
  123MOL   H18332147   5.438   6.999   2.829 -0.9338 -0.3187 -0.3467
  123MOL   C18432148   5.548   6.911   2.997 -0.1160  0.1835 -0.4054
  123MOL   C18532149   5.543   6.892   3.154 -0.3898 -0.6233  0.0278
  123MOL   C18632150   5.618   6.779   3.223 -0.0461 -0.2890  0.8682
  123MOL   C18732151   5.469   6.779   3.209  0.4613 -0.3845  0.8867
  123MOL   C18832152   5.677   6.980   2.957 -0.3181 -0.0285 -0.0876
  123MOL   H18932153   5.549   6.811   2.953 -0.3273 -0.7423  1.6558
  123MOL   H19032154   5.538   6.989   3.203 -0.1361 -0.5259 -0.1385
  123MOL   H19132155   5.673   6.812   3.311  0.3199 -0.0325  0.5448
  123MOL   H19232156   5.673   6.713   3.156  1.3095  1.1314  0.5570
  123MOL   H19332157   5.407   6.802   3.296  2.1727  0.3996  1.9313
  123MOL   H19432158   5.438   6.701   3.140  0.6050  0.9523 -0.7144
  123MOL   H19532159   5.764   6.926   2.992  2.1993  2.5933 -2.0425
  123MOL   H19632160   5.690   7.075   3.008  1.2559  0.2287 -0.9302
  123MOL   C19732161   5.716   7.006   2.805 -0.5323  0.1591  1.0759
  123MOL   C19832162   5.716   6.865   2.748  0.8505  0.3711  0.3231
  123MOL   C19932163   5.743   6.845   2.600 -0.4554 -0.5304 -0.0907
  123MOL   C20032164   5.605   6.821   2.655  0.8715  0.4517 -0.2042
  123MOL   C20132165   5.860   7.070   2.790 -0.0054  0.3661  0.0379
  123MOL   H20232166   5.638   7.078   2.783 -1.9253 -1.2832  1.2046
  123MOL   H20332167   5.762   6.788   2.808  1.8983 -0.8557 -1.9823
  123MOL   H20432168   5.751   6.929   2.530 -0.4887 -0.4612 -0.0110
  123MOL   H20532169   5.804   6.760   2.573 -0.3056 -0.1350 -1.0406
  123MOL   H20632170   5.532   6.896   2.627  1.3031  0.7872 -0.4464
  123MOL   H20732171   5.573   6.717   2.650  1.6933  0.1664  0.3176
  123MOL   H20832172   5.930   7.039   2.867 -2.2514 -1.8063  1.2570
  123MOL   H20932173   5.912   7.033   2.701 -0.1981  0.6338 -0.1872
  123MOL   C21032174   5.855   7.228   2.788  0.3032  0.0357 -0.8953
  123MOL   C21132175   5.994   7.295   2.809  0.1001 -0.2449 -0.1632
  123MOL   C21232176   6.018   7.384   2.931  0.0733  0.0736  0.2737
  123MOL   C21332177   6.085   7.255   2.925 -0.1728 -0.4719  0.7781
  123MOL   C21432178   5.802   7.282   2.651  0.1353 -0.0421 -0.1403
  123MOL   H21532179   5.798   7.263   2.873  0.4575  1.6248 -1.4190
  123MOL   H21632180   6.059   7.292   2.722 -0.7672  0.7722 -0.8588
  123MOL   H21732181   6.083   7.471   2.932  0.2769 -0.0834  0.8054
  123MOL   H21832182   5.930   7.397   2.994 -0.2361  2.9806 -0.6846
  123MOL   H21932183   6.190   7.260   2.900  0.3310 -0.4711  2.8326
  123MOL   H22032184   6.054   7.172   2.990 -2.3268 -0.3962 -0.0976
  123MOL   H22132185   5.889   7.265   2.589  1.5229  3.1272  0.8630
  123MOL   H22232186   5.728   7.209   2.617  1.1099 -0.9692 -0.2989
  123MOL   C22332187   5.732   7.426   2.652  0.6413 -0.0689 -0.1931
  123MOL   C22432188   5.591   7.432   2.719 -0.1475 -0.0576 -0.2575
  123MOL   C22532189   5.567   7.427   2.872  0.3271  0.2247  0.1411
  123MOL   C22632190   5.548   7.557   2.798 -0.8348 -0.2367 -0.0763
  123MOL   C22732191   5.713   7.491   2.504  0.0428  0.4738 -0.3188
  123MOL   H22832192   5.799   7.492   2.707  0.9707  0.9513 -1.7779
  123MOL   H22932193   5.512   7.383   2.663  0.2956 -1.7079  0.5308
  123MOL   H23032194   5.652   7.409   2.937  0.7447  1.7630  0.0354
  123MOL   H23132195   5.476   7.377   2.906  0.9809 -2.8470 -2.4333
  123MOL   H23232196   5.454   7.597   2.759  1.1642  4.7044 -0.1554
  123MOL   H23332197   5.622   7.637   2.808 -2.8162  1.9244 -2.0441
  123MOL   H23432198   5.660   7.426   2.434 -0.5584 -2.2308  2.5462
  123MOL   H23532199   5.657   7.584   2.518  0.3613  0.1656  3.3466
  123MOL   C23632200   5.846   7.530   2.432 -0.3917  0.6010 -0.2520
  123MOL   C23732201   5.925   7.649   2.499 -1.1687 -0.6784  0.4959
  123MOL   C23832202   6.039   7.618   2.597  0.7180  0.4558 -0.2341
  123MOL   C23932203   6.074   7.676   2.461  1.2705 -0.4332  0.3842
  123MOL   C24032204   5.834   7.552   2.279  0.7383 -0.2730  0.3807
  123MOL   H24132205   5.911   7.442   2.436 -1.3715 -0.1388 -0.6372
  123MOL   H24232206   5.867   7.736   2.528  0.4457  0.1289  1.3553
  123MOL   H24332207   6.042   7.678   2.688  0.4201 -0.9565  0.7162
  123MOL   H24432208   6.062   7.513   2.613  1.4457  0.5533 -0.6204
  123MOL   H24532209   6.119   7.604   2.392 -0.6643 -2.3437  1.0751
  123MOL   H24632210   6.112   7.777   2.447 -1.7600  0.6698 -0.0933
  123MOL   H24732211   5.933   7.583   2.247  0.2311  0.4632 -0.5038
  123MOL   H24832212   5.826   7.450   2.241 -2.1242  0.2627 -0.5950
  123MOL   C24932213   5.720   7.643   2.221  0.0415 -0.2132  0.3381
  123MOL   C25032214   5.714   7.623   2.073  0.4070  0.4995  0.8461
  123MOL   C25132215   5.677   7.484   2.009  0.4173  0.3919  0.2513
  123MOL   C25232216   5.585   7.604   1.998 -0.7154  0.7636  0.0361
  123MOL   C25332217   5.719   7.789   2.272 -0.1372 -0.2861  0.3578
  123MOL   H25432218   5.621   7.612   2.255 -0.8730  1.9411 -0.2262
  123MOL   H25532219   5.780   7.694   2.024 -0.1673  1.8136  1.9390
  123MOL   H25632220   5.698   7.442   1.911  1.6570  0.1293  0.6275
  123MOL   H25732221   5.626   7.411   2.071  1.8624 -0.1388  0.8250
  123MOL   H25832222   5.583   7.646   1.898  1.9557 -0.5585 -0.6070
  123MOL   H25932223   5.492   7.585   2.051 -0.6637  0.3878 -0.0115
  123MOL   H26032224   5.631   7.839   2.231 -0.6056  0.2488  1.9666
  123MOL   H26132225   5.798   0.001   2.218 -1.3102 -1.4758 -2.6165
  123MOL   H26232226   5.726   7.800   2.380 -1.1129 -0.7417  0.4791
  124MOL     C132227   6.135   6.831   2.927 -0.0469 -0.2455 -0.1590
  124MOL     C232228   6.032   6.819   3.037  0.2608 -0.2723  0.2765
  124MOL     C332229   6.059   6.868   3.179  0.0557  0.4916  0.7789
  124MOL     C432230   6.053   6.718   3.145 -0.0149  0.8548  0.1842
  124MOL     C532231   6.099   6.736   2.814 -0.9161  0.5839 -0.5004
  124MOL     H632232   6.144   6.933   2.891  1.6886 -0.3854 -0.1392
  124MOL     H732233   5.929   6.824   3.002 -0.5920 -2.7647  2.3012
  124MOL     H832234   6.150   6.924   3.198 -0.2580  1.2538  0.0813
  124MOL     H932235   5.974   6.907   3.235 -1.2215 -1.6797  0.4019
  124MOL    H1032236   5.958   6.667   3.159  2.1115 -3.2304  0.2552
  124MOL    H1132237   6.150   6.670   3.154 -1.0782 -1.3327  0.2287
  124MOL    H1232238   6.006   6.764   2.765 -2.0117 -0.6545  0.8035
  124MOL    H1332239   6.091   6.637   2.860  0.5230  1.4402  1.6524
  124MOL    H1432240   6.238   6.809   2.955  0.1310  0.9937  0.1592
  124MOL    C1532241   6.209   6.717   2.709 -0.1776  0.0175 -0.3952
  124MOL    C1632242   6.269   6.844   2.655  0.9432  0.1014  0.7649
  124MOL    C1732243   6.175   6.952   2.594 -0.4221  0.1513 -0.3313
  124MOL    C1832244   6.278   6.881   2.507  0.2444 -0.2769 -0.7350
  124MOL    C1932245   6.324   6.614   2.756  0.1283 -0.0281 -0.1403
  124MOL    H2032246   6.169   6.671   2.618 -0.3540 -0.9123  0.1529
  124MOL    H2132247   6.343   6.890   2.720  0.4957  2.0733 -0.0860
  124MOL    H2232248   6.181   7.060   2.607  2.5934 -0.0297 -0.0493
  124MOL    H2332249   6.075   6.918   2.565 -0.7848 -0.6273  1.7056
  124MOL    H2432250   6.253   6.806   2.432  2.0465 -1.9447  0.2829
  124MOL    H2532251   6.360   6.940   2.467 -0.8503  0.2521 -2.2430
  124MOL    H2632252   6.331   6.624   2.865 -0.4724 -1.5143  0.0388
  124MOL    H2732253   6.422   6.650   2.724  0.3883 -0.4913  0.1339
  124MOL    C2832254   6.311   6.461   2.712  0.3805 -0.4952 -0.4580
  124MOL    C2932255   6.342   6.442   2.565 -0.7968  0.0759  0.2424
  124MOL    C3032256   6.484   6.465   2.513  0.1262 -0.2759  0.9464
  124MOL    C3132257   6.435   6.323   2.527  0.8680  0.1142  0.6635
  124MOL    C3232258   6.178   6.395   2.745 -0.4596  0.3661  0.0663
  124MOL    H3332259   6.381   6.411   2.779 -0.0475  0.6355  0.8493
  124MOL    H3432260   6.253   6.469   2.508 -0.2738  3.6010  0.9919
  124MOL    H3532261   6.562   6.496   2.582  0.2381  0.0159  0.6879
  124MOL    H3632262   6.509   6.501   2.414  1.8076 -0.4490  1.2881
  124MOL    H3732263   6.468   6.249   2.599  1.5160 -0.3052 -0.0632
  124MOL    H3832264   6.419   6.274   2.431 -0.0886  0.1628  0.7926
  124MOL    H3932265   6.115   6.446   2.672  1.3412  2.6747  0.0576
  124MOL    H4032266   6.154   6.436   2.843 -0.0635  2.4153 -0.6656
  124MOL    C4132267   6.160   6.245   2.738  0.1879  0.3810  0.1177
  124MOL    C4232268   6.019   6.205   2.769 -0.3556  0.1682  0.0023
  124MOL    C4332269   5.933   6.105   2.700  0.1233  0.1335 -0.4393
  124MOL    C4432270   5.905   6.253   2.675 -0.8838  0.2648 -0.6021
  124MOL    C4532271   6.268   6.175   2.829  0.0801 -0.1466  0.5825
  124MOL    H4632272   6.175   6.219   2.633 -1.4290 -0.1189  0.0011
  124MOL    H4732273   5.995   6.223   2.874  0.9997 -0.2584  0.3927
  124MOL    H4832274   5.972   6.049   2.615  0.4511 -0.7162  0.2610
  124MOL    H4932275   5.856   6.055   2.758 -0.8379  1.6124 -0.4123
  124MOL    H5032276   5.829   6.309   2.729 -0.5020 -0.5632  0.8153
  124MOL    H5132277   5.926   6.293   2.576 -1.3638  3.8162  0.6538
  124MOL    H5232278   6.272   6.220   2.927  2.0628  0.5184  0.2130
  124MOL    H5332279   6.366   6.179   2.781 -0.3352 -0.2087 -0.2975
  124MOL    C5432280   6.263   6.019   2.846  0.0367  0.0983 -0.5285
  124MOL    C5532281   6.277   5.941   2.712 -0.3556 -0.5903 -0.0229
  124MOL    C5632282   6.350   5.807   2.706  0.0070  0.8318 -0.4136
  124MOL    C5732283   6.409   5.929   2.633 -0.0618 -0.0159  0.0343
  124MOL    C5832284   6.348   5.967   2.967 -0.1651 -0.5200  0.4890
  124MOL    H5932285   6.165   6.001   2.889 -1.0038  2.0365 -1.9884
  124MOL    H6032286   6.186   5.945   2.652  0.0051 -1.2321 -0.6228
  124MOL    H6132287   6.403   5.767   2.792 -0.6067 -2.2314 -1.3926
  124MOL    H6232288   6.321   5.730   2.634  1.2920 -1.1258  1.0962
  124MOL    H6332289   6.392   5.951   2.527  1.0855 -2.0406 -0.6001
  124MOL    H6432290   6.504   5.970   2.666  0.4190 -0.3964 -0.8449
  124MOL    H6532291   6.307   5.866   2.972 -1.0211 -0.1820  0.4894
  124MOL    H6632292   6.454   5.946   2.954 -0.0591 -0.3782  1.0978
  124MOL    C6732293   6.326   6.041   3.103 -0.3566 -0.8866  0.2186
  124MOL    C6832294   6.344   5.933   3.211  0.3322 -0.4930 -0.0903
  124MOL    C6932295   6.253   5.941   3.336 -0.2228 -0.1808  0.8595
  124MOL    C7032296   6.227   5.833   3.232  0.0603 -0.1983 -0.0451
  124MOL    C7132297   6.441   6.150   3.122  0.7295 -0.2138 -0.6879
  124MOL    H7232298   6.224   6.075   3.121  0.1556  0.4973  0.6093
  124MOL    H7332299   6.441   5.895   3.243  0.6960 -0.9774 -1.7484
  124MOL    H7432300   6.285   5.899   3.430  1.2884 -2.4651 -0.6472
  124MOL    H7532301   6.174   6.015   3.348 -1.5843 -1.5572  0.4513
  124MOL    H7632302   6.149   5.835   3.157  0.6023 -0.8681 -0.6352
  124MOL    H7732303   6.263   5.733   3.258 -0.5652 -0.9839 -2.1360
  124MOL    H7832304   6.446   6.207   3.029  1.2215 -0.7680 -1.0112
  124MOL    H7932305   6.536   6.098   3.129  1.6287  1.6215  0.9710
  124MOL    C8032306   6.439   6.254   3.235 -0.4843  0.1768  0.0973
  124MOL    C8132307   6.348   6.370   3.212  0.5186 -0.2351 -1.0997
  124MOL    C8232308   6.301   6.446   3.333  0.3144  0.1833 -0.2783
  124MOL    C8332309   6.205   6.375   3.251  0.5880 -0.2278  0.7235
  124MOL    C8432310   6.589   6.290   3.255 -0.2357  0.1052 -0.2392
  124MOL    H8532311   6.388   6.206   3.319  0.3425  0.4499  0.7732
  124MOL    H8632312   6.391   6.430   3.132  0.4851 -0.3854 -1.2297
  124MOL    H8732313   6.286   6.554   3.325  0.8121  0.5049  2.5560
  124MOL    H8832314   6.317   6.402   3.431  0.5477  0.2205 -0.3005
  124MOL    H8932315   6.165   6.280   3.287  6.6052 -2.8403  1.0705
  124MOL    H9032316   6.135   6.438   3.196 -0.0559 -0.9200  0.7407
  124MOL    H9132317   6.640   6.304   3.160  0.8419  0.0769  0.3292
  124MOL    H9232318   6.588   6.381   3.316  1.8594 -1.2961  1.9483
  124MOL    C9332319   6.653   6.187   3.348  0.1454  0.0973 -0.3568
  124MOL    C9432320   6.806   6.189   3.316 -0.2271  0.0971 -0.5658
  124MOL    C9532321   6.908   6.082   3.355  0.2705  0.0143  0.2807
  124MOL    C9632322   6.856   6.097   3.209 -0.0084 -0.7426  0.9393
  124MOL    C9732323   6.614   6.198   3.496  0.1986  0.1370  0.3229
  124MOL    H9832324   6.615   6.092   3.309 -1.2416 -0.4377  2.2019
  124MOL    H9932325   6.846   6.290   3.325  0.3030 -0.2508  1.2962
  124MOL   H10032326   7.013   6.110   3.365  0.5700 -1.0191  0.1414
  124MOL   H10132327   6.883   5.987   3.402  1.4472  0.9771  2.9301
  124MOL   H10232328   6.926   6.127   3.132  0.2434 -1.5831  0.8288
  124MOL   H10332329   6.782   6.029   3.166 -1.6518  1.3942  0.3010
  124MOL   H10432330   6.505   6.194   3.492  0.1340 -0.7249  2.2586
  124MOL   H10532331   6.635   6.293   3.545  3.6276  0.4689 -1.6440
  124MOL   C10632332   6.671   6.082   3.586  0.7096  0.8743 -0.5816
  124MOL   C10732333   6.636   6.119   3.730  0.1733 -0.0943 -0.2464
  124MOL   C10832334   6.733   6.078   3.842 -0.0404  0.6788 -0.2948
  124MOL   C10932335   6.716   6.226   3.802  0.2923  0.0476 -0.3792
  124MOL   C11032336   6.605   5.945   3.541  0.0685  0.2714 -0.0630
  124MOL   H11132337   6.779   6.066   3.588  0.3974 -1.3225  2.1268
  124MOL   H11232338   6.529   6.119   3.748  0.1399 -3.8651  0.1276
  124MOL   H11332339   6.703   6.056   3.945 -0.6364  2.3900 -0.0815
  124MOL   H11432340   6.828   6.032   3.818 -0.2791 -0.0950  0.2294
  124MOL   H11532341   6.805   6.272   3.759  0.7871  0.8205  1.4133
  124MOL   H11632342   6.662   6.292   3.869  0.6683 -0.8880  0.8675
  124MOL   H11732343   6.497   5.957   3.535  0.4466  2.8917 -2.2397
  124MOL   H11832344   6.640   5.921   3.441 -0.8669  1.6904 -0.7334
  124MOL   C11932345   6.632   5.816   3.627  0.5533 -0.1421  0.3007
  124MOL   C12032346   6.516   5.717   3.610  0.3370 -0.2929 -0.3629
  124MOL   C12132347   6.377   5.749   3.669 -0.2753  0.2366 -0.1194
  124MOL   C12232348   6.466   5.638   3.724  0.0443  0.3035 -0.1339
  124MOL   C12332349   6.768   5.741   3.591  0.4064  0.0344 -0.2613
  124MOL   H12432350   6.635   5.855   3.728  1.9877  0.6936 -0.0499
  124MOL   H12532351   6.529   5.651   3.524  1.1587 -1.1671  0.4140
  124MOL   H12632352   6.298   5.716   3.601 -1.8903  1.2544  1.2303
  124MOL   H12732353   6.351   5.821   3.746 -0.0148 -0.1458  0.3245
  124MOL   H12832354   6.533   5.654   3.809  1.3085 -2.0954 -0.6441
  124MOL   H12932355   6.438   5.534   3.709  1.7051 -0.3783  1.1937
  124MOL   H13032356   6.741   5.711   3.490  0.7385  0.7021 -0.5503
  124MOL   H13132357   6.847   5.811   3.563  1.0540 -0.1674  1.0300
  124MOL   C13232358   6.801   5.632   3.689 -0.0653  0.1880  0.5203
  124MOL   C13332359   6.889   5.674   3.804  0.1662 -0.5745 -0.3220
  124MOL   C13432360   6.872   5.614   3.940  0.2720 -0.2973  0.7258
  124MOL   C13532361   6.812   5.758   3.914 -1.0834 -0.2920  0.4011
  124MOL   C13632362   6.878   5.514   3.616  0.0036 -0.3627 -0.8390
  124MOL   H13732363   6.711   5.585   3.728 -0.1362 -1.6624 -1.8297
  124MOL   H13832364   6.988   5.712   3.781  1.1713 -2.2807  1.0670
  124MOL   H13932365   6.801   5.534   3.958 -0.8517  0.7245  0.9504
  124MOL   H14032366   6.963   5.619   3.999 -0.6499 -0.1657  2.1695
  124MOL   H14132367   6.703   5.757   3.906 -1.1285 -3.4834  0.9010
  124MOL   H14232368   6.863   5.838   3.967 -2.4364  0.9707 -0.1645
  124MOL   H14332369   6.962   5.558   3.562 -1.5338  2.5997 -0.9395
  124MOL   H14432370   6.924   5.453   3.693 -2.3874 -0.9212  0.1871
  124MOL   C14532371   6.786   5.409   3.539 -0.2243  0.4064  0.7672
  124MOL   C14632372   6.874   5.308   3.452  0.2506 -0.4049  0.4418
  124MOL   C14732373   6.837   5.268   3.311 -0.5862 -0.4367 -0.0889
  124MOL   C14832374   6.951   5.367   3.336 -0.1280  0.2592 -0.2488
  124MOL   C14932375   6.705   5.328   3.646 -0.5296 -0.3458 -0.0547
  124MOL   H15032376   6.722   5.471   3.475  1.9553  2.4902  0.5255
  124MOL   H15132377   6.914   5.221   3.502  3.7110  0.5593 -0.5616
  124MOL   H15232378   6.862   5.165   3.287 -1.5048 -0.4739 -0.9027
  124MOL   H15332379   6.739   5.299   3.277 -1.7030 -2.1116  1.4847
  124MOL   H15432380   6.938   5.472   3.311  2.8977  0.2913 -1.8254
  124MOL   H15532381   7.048   5.325   3.313  0.5103  2.4907 -1.7859
  124MOL   H15632382   6.781   5.287   3.713  0.8034  1.9196 -0.1257
  124MOL   H15732383   6.641   5.393   3.706 -0.9933 -0.3054 -0.6002
  124MOL   C15832384   6.615   5.221   3.598 -0.5687  0.3632  0.2979
  124MOL   C15932385   6.473   5.276   3.559  0.3034  0.0286  0.0329
  124MOL   C16032386   6.444   5.348   3.423 -0.1224  0.8080  0.5019
  124MOL   C16132387   6.409   5.203   3.445 -0.2979  0.5460  0.4235
  124MOL   C16232388   6.607   5.093   3.679 -0.6822  0.3116  0.3728
  124MOL   H16332389   6.660   5.186   3.505  0.2805  0.8485  0.5174
  124MOL   H16432390   6.404   5.302   3.639  2.1228  0.8703  1.3628
  124MOL   H16532391   6.531   5.365   3.361 -0.3492  0.5955  0.1227
  124MOL   H16632392   6.360   5.416   3.415  0.7263  1.7042 -0.9984
  124MOL   H16732393   6.310   5.170   3.474 -0.7400  0.5047 -1.1146
  124MOL   H16832394   6.470   5.141   3.379 -1.7961  0.3834 -0.8345
  124MOL   H16932395   6.711   5.060   3.673 -0.7873  0.1226 -0.5554
  124MOL   H17032396   6.545   5.026   3.619  0.9034  0.7197 -1.7888
  124MOL   C17132397   6.551   5.109   3.823 -0.5713 -0.7758 -0.4068
  124MOL   C17232398   6.422   5.022   3.827  0.6428  0.1876 -1.3119
  124MOL   C17332399   6.421   4.873   3.834  0.6187 -0.1985  0.2413
  124MOL   C17432400   6.361   4.946   3.952 -0.5183  0.1159 -0.1164
  124MOL   C17532401   6.657   5.085   3.933  0.6450 -0.2131 -0.3319
  124MOL   H17632402   6.520   5.214   3.829 -1.0077 -0.9161 -0.1821
  124MOL   H17732403   6.335   5.071   3.784 -0.2430 -0.2718 -0.0795
  124MOL   H17832404   6.357   4.820   3.764  3.5730 -1.9894 -1.2277
  124MOL   H17932405   6.512   4.817   3.853  0.2925 -1.1586 -0.9636
  124MOL   H18032406   6.420   4.954   4.043  0.7115  0.9305 -0.9761
  124MOL   H18132407   6.254   4.960   3.964 -0.1856  1.7175  1.2178
  124MOL   H18232408   6.755   5.111   3.893 -0.9099  0.1493 -4.0454
  124MOL   H18332409   6.672   4.980   3.960  1.7009 -0.1215 -0.5390
  124MOL   C18432410   6.635   5.158   4.065 -0.3542  0.7626  0.9134
  124MOL   C18532411   6.665   5.308   4.058  0.0215 -0.3135 -0.4586
  124MOL   C18632412   6.631   5.402   4.167 -0.4841  0.1692  0.1098
  124MOL   C18732413   6.561   5.407   4.026  0.7424 -0.1566  0.0707
  124MOL   C18832414   6.709   5.094   4.188 -0.2526  0.3677  0.5275
  124MOL   H18932415   6.531   5.143   4.096  0.1062 -1.1745  1.6555
  124MOL   H19032416   6.763   5.327   4.016 -0.4840  0.7478 -1.1771
  124MOL   H19132417   6.712   5.470   4.194 -0.2514 -0.3836  0.8363
  124MOL   H19232418   6.589   5.344   4.249  0.9395 -0.7629  0.1887
  124MOL   H19332419   6.590   5.486   3.958 -0.0807  1.2760  1.3621
  124MOL   H19432420   6.455   5.381   4.024  1.0654 -1.5357  0.4128
  124MOL   H19532421   6.769   5.176   4.229 -0.4748  1.0019 -0.4107
  124MOL   H19632422   6.789   5.032   4.146 -0.0788  1.3415 -0.6108
  124MOL   C19732423   6.636   5.017   4.296  0.1317 -0.8367  0.0433
  124MOL   C19832424   6.555   5.110   4.387 -0.1076 -0.1903  0.0105
  124MOL   C19932425   6.456   5.054   4.478  0.7214  0.6066  0.1869
  124MOL   C20032426   6.416   5.144   4.369  0.4416  0.3664  0.2092
  124MOL   C20132427   6.735   4.939   4.382  0.8047 -0.1440 -0.4669
  124MOL   H20232428   6.564   4.948   4.253 -0.5875  0.3411 -0.6611
  124MOL   H20332429   6.615   5.194   4.420 -1.0956  0.2720  0.6671
  124MOL   H20432430   6.420   4.952   4.476 -2.1314  1.5619 -0.3132
  124MOL   H20532431   6.471   5.090   4.580 -1.4203  0.6009  0.5293
  124MOL   H20632432   6.371   5.101   4.279 -0.8366  0.2847  0.8694
  124MOL   H20732433   6.396   5.249   4.387  1.7464  0.8684 -1.1516
  124MOL   H20832434   6.829   4.994   4.388  1.2606 -1.1043  1.7094
  124MOL   H20932435   6.703   4.934   4.486  2.0365  0.0276 -0.0727
  124MOL   C21032436   6.773   4.801   4.325  0.4020 -0.1815  0.2183
  124MOL   C21132437   6.912   4.757   4.371 -0.0265 -0.3812  0.1509
  124MOL   C21232438   6.990   4.642   4.317 -0.0661 -0.1367 -0.6305
  124MOL   C21332439   7.034   4.785   4.286 -0.0137 -0.4896 -0.4049
  124MOL   C21432440   6.667   4.691   4.370 -0.1427  0.3691 -0.2296
  124MOL   H21532441   6.776   4.798   4.216  1.3596 -2.0333  0.2611
  124MOL   H21632442   6.909   4.757   4.480 -1.3814 -0.8297  0.1255
  124MOL   H21732443   7.045   4.589   4.394  1.2569 -0.9829 -2.1374
  124MOL   H21832444   6.960   4.593   4.225  2.0150 -0.1829 -1.3024
  124MOL   H21932445   7.128   4.819   4.329 -0.6400  0.5242  0.1846
  124MOL   H22032446   7.008   4.842   4.198  1.3420  0.3296 -0.2903
  124MOL   H22132447   6.695   4.665   4.472 -0.2474  0.6579 -0.1286
  124MOL   H22232448   6.573   4.745   4.380 -0.2033 -0.0798  1.8375
  124MOL   C22332449   6.658   4.570   4.274 -0.2391 -0.2107  0.2147
  124MOL   C22432450   6.631   4.609   4.129 -0.1672 -1.1364 -0.3687
  124MOL   C22532451   6.745   4.640   4.037  0.6690  0.2101  0.5686
  124MOL   C22632452   6.650   4.535   3.998  0.2358 -0.3785 -0.1546
  124MOL   C22732453   6.545   4.477   4.329  0.5111  0.0609  0.2970
  124MOL   H22832454   6.751   4.512   4.279 -0.6913 -1.0894 -1.2080
  124MOL   H22932455   6.560   4.691   4.126 -0.5759 -1.2739  3.2403
  124MOL   H23032456   6.841   4.590   4.049  1.5569  1.5864 -0.5991
  124MOL   H23132457   6.761   4.744   4.009  2.4405 -0.1691  0.0942
  124MOL   H23232458   6.575   4.553   3.922  1.3898  0.1347 -1.1791
  124MOL   H23332459   6.695   4.436   4.000 -0.6929 -0.7956  1.2175
  124MOL   H23432460   6.461   4.541   4.303  1.7012  2.1882  1.5217
  124MOL   H23532461   6.539   4.380   4.281 -1.9834  0.6721 -0.6841
  124MOL   C23632462   6.550   4.436   4.478 -0.2011 -0.6404  0.1589
  124MOL   C23732463   6.687   4.392   4.533 -0.2598  0.1902 -0.1422
  124MOL   C23832464   6.723   4.246   4.573  0.8773  0.1804 -0.4793
  124MOL   C23932465   6.784   4.300   4.448  0.6830 -0.2349  0.5188
  124MOL   C24032466   6.441   4.330   4.515  0.2424 -0.1000 -0.5079
  124MOL   H24132467   6.538   4.523   4.543  2.9186  1.0225 -1.3695
  124MOL   H24232468   6.732   4.462   4.604 -2.7528  0.4140  1.2582
  124MOL   H24332469   6.778   4.239   4.666  0.7947  2.1237 -0.2649
  124MOL   H24432470   6.644   4.171   4.566  0.5231  0.1393  3.3511
  124MOL   H24532471   6.737   4.261   4.358  1.7689  0.8422 -0.5323
  124MOL   H24632472   6.887   4.335   4.441  1.0172 -0.8647  2.0932
  124MOL   H24732473   6.448   4.258   4.433  0.6906  1.1125 -1.5452
  124MOL   H24832474   6.447   4.298   4.619 -2.8995  0.7155 -0.0346
  124MOL   C24932475   6.299   4.383   4.509 -0.2771  0.4314  0.6077
  124MOL   C25032476   6.282   4.493   4.608  0.5735  0.0646  0.7055
  124MOL   C25132477   6.289   4.643   4.560  0.1739 -0.3637  0.0454
  124MOL   C25232478   6.157   4.574   4.591 -0.1848 -0.4015  0.2512
  124MOL   C25332479   6.205   4.267   4.539  0.5383 -0.6043  0.2622
  124MOL   H25432480   6.282   4.424   4.410  0.5378  0.7651  0.6025
  124MOL   H25532481   6.304   4.474   4.713 -1.2061 -2.0012  0.7315
  124MOL   H25632482   6.323   4.711   4.637  0.5786 -2.6921  1.9709
  124MOL   H25732483   6.302   4.671   4.455  0.5141  1.0632  0.4627
  124MOL   H25832484   6.106   4.599   4.683  0.2129 -0.3756  0.4668
  124MOL   H25932485   6.088   4.530   4.519 -1.2036 -2.3710  2.3922
  124MOL   H26032486   6.221   4.193   4.460 -2.4969 -0.0551 -0.9382
  124MOL   H26132487   6.099   4.293   4.528  0.9453  1.8632  1.6751
  124MOL   H26232488   6.228   4.215   4.632  0.4910  0.8877  1.1222
  125MOL     C132489   2.875   5.893   1.699 -0.0371 -0.4715 -0.1585
  125MOL     C232490   2.927   5.932   1.840  0.6638  1.1463  0.3260
  125MOL     C332491   3.038   5.863   1.917  0.0138 -0.0584  0.0595
  125MOL     C432492   2.891   5.844   1.951 -0.0987  0.0487 -0.1627
  125MOL     C532493   2.735   5.956   1.677 -0.2717 -0.5544  0.1222
  125MOL     H632494   2.946   5.926   1.623  0.0465  2.2980  1.0356
  125MOL     H732495   2.930   6.040   1.856  0.4730  1.6278 -2.5910
  125MOL     H832496   3.102   5.792   1.866  0.5321  1.3357 -1.2526
  125MOL     H932497   3.090   5.909   2.001 -0.2923 -0.8606  0.7014
  125MOL    H1032498   2.846   5.910   2.025 -0.7828  0.2695 -0.7643
  125MOL    H1132499   2.843   5.749   1.930 -2.5805  1.3895 -0.7592
  125MOL    H1232500   2.740   6.065   1.685 -0.2155 -0.5769  0.3835
  125MOL    H1332501   2.661   5.922   1.750 -0.5134 -2.0361 -0.7871
  125MOL    H1432502   2.853   5.787   1.686 -3.3539  0.4840 -2.7720
  125MOL    C1532503   2.670   5.934   1.541  0.2022  0.2236 -0.2960
  125MOL    C1632504   2.714   6.021   1.431 -0.7795 -0.4050  0.3524
  125MOL    C1732505   2.654   6.155   1.421 -0.5453  0.5046  0.1987
  125MOL    C1832506   2.614   6.053   1.322 -0.1176 -0.1480 -0.4263
  125MOL    C1932507   2.691   5.787   1.489 -0.7255  0.1585  0.4795
  125MOL    H2032508   2.562   5.934   1.551  0.2434 -0.1559  0.1642
  125MOL    H2132509   2.819   6.017   1.404 -1.0676 -0.3345 -0.7985
  125MOL    H2232510   2.720   6.231   1.381  2.4936 -1.8749  0.5062
  125MOL    H2332511   2.582   6.180   1.499 -1.8736 -0.4830 -0.6723
  125MOL    H2432512   2.516   6.006   1.321 -0.5942  0.8329 -1.1848
  125MOL    H2532513   2.659   6.059   1.223  0.3908  1.6157 -0.1071
  125MOL    H2632514   2.795   5.755   1.498  0.0636  3.4501  5.2214
  125MOL    H2732515   2.680   5.790   1.380  1.6380 -1.6392  0.1657
  125MOL    C2832516   2.596   5.673   1.545  0.3239  0.3288 -0.2735
  125MOL    C2932517   2.639   5.536   1.492  0.0538  0.5978 -0.2195
  125MOL    C3032518   2.753   5.454   1.563 -0.0109 -0.0392  0.3152
  125MOL    C3132519   2.613   5.405   1.565  0.7932  0.3121 -0.0052
  125MOL    C3232520   2.449   5.705   1.510 -0.7055  0.0772 -0.2031
  125MOL    H3332521   2.601   5.663   1.653  0.9205 -0.5087 -0.3727
  125MOL    H3432522   2.627   5.521   1.385  2.5429 -0.8017 -0.3409
  125MOL    H3532523   2.799   5.495   1.652  2.1959 -0.1539 -0.7596
  125MOL    H3632524   2.823   5.425   1.485  0.4314  0.7719  0.4104
  125MOL    H3732525   2.543   5.416   1.647  2.2913  0.3718  1.2861
  125MOL    H3832526   2.561   5.330   1.504  0.8481  0.9804 -0.8757
  125MOL    H3932527   2.405   5.620   1.458 -2.2858  1.0668 -0.5327
  125MOL    H4032528   2.447   5.779   1.431  2.6942  2.1812  1.6066
  125MOL    C4132529   2.376   5.744   1.639 -0.8094 -0.2572  0.0727
  125MOL    C4232530   2.343   5.619   1.724  0.0671 -0.9065 -0.5666
  125MOL    C4332531   2.267   5.628   1.852  1.3321 -0.1202  0.1466
  125MOL    C4432532   2.410   5.599   1.852  0.6363  0.8563  0.4146
  125MOL    C4532533   2.246   5.807   1.598 -0.4509  0.4147  0.4125
  125MOL    H4632534   2.440   5.808   1.701 -0.3360 -1.4221  0.8126
  125MOL    H4732535   2.325   5.536   1.656  2.9673 -0.8560 -1.4702
  125MOL    H4832536   2.234   5.726   1.887  1.2651 -0.4203  0.9324
  125MOL    H4932537   2.196   5.550   1.878 -0.3816  0.3656 -2.8965
  125MOL    H5032538   2.442   5.497   1.871 -0.1451  0.4438 -0.4305
  125MOL    H5132539   2.481   5.675   1.882 -0.0504  1.5417  0.3103
  125MOL    H5232540   2.173   5.799   1.679 -0.1582  2.0014  0.8652
  125MOL    H5332541   2.197   5.751   1.518  0.1977 -0.2490  0.4786
  125MOL    C5432542   2.251   5.959   1.579 -0.4049  0.2233 -1.4619
  125MOL    C5532543   2.179   6.001   1.460  0.5700  0.2767  0.6563
  125MOL    C5632544   2.221   5.965   1.323 -0.3408 -0.0297 -0.4592
  125MOL    C5732545   2.234   6.109   1.372  0.2344 -0.7202 -0.6398
  125MOL    C5832546   2.208   6.030   1.711  0.0798  0.5544  0.6588
  125MOL    H5932547   2.353   5.986   1.553 -0.6990  1.8498 -0.9718
  125MOL    H6032548   2.072   5.984   1.474  0.7409 -0.5569  0.9894
  125MOL    H6132549   2.307   5.899   1.312 -1.2732 -1.3714  0.1771
  125MOL    H6232550   2.140   5.952   1.252 -0.2313 -0.5956 -0.4807
  125MOL    H6332551   2.160   6.176   1.329 -0.0269 -0.0085  0.9023
  125MOL    H6432552   2.330   6.149   1.401 -0.4419 -1.9032  3.4281
  125MOL    H6532553   2.109   5.996   1.743  0.6482 -1.1142  0.6675
  125MOL    H6632554   2.267   5.979   1.787  1.1560  1.5792  0.5097
  125MOL    C6732555   2.224   6.175   1.713 -0.0535 -0.1392 -0.6612
  125MOL    C6832556   2.135   6.254   1.800  0.2627 -0.3253 -0.0212
  125MOL    C6932557   1.990   6.219   1.819  0.1769  0.6177 -0.3997
  125MOL    C7032558   2.092   6.203   1.938 -0.5796  0.1416  0.4902
  125MOL    C7132559   2.374   6.213   1.756 -0.0351  0.8173  1.2518
  125MOL    H7232560   2.212   6.216   1.613 -1.2796  1.1521  0.0008
  125MOL    H7332561   2.125   6.360   1.777 -0.3669 -0.2088  0.7478
  125MOL    H7432562   1.919   6.301   1.822 -0.4098  0.1679 -1.4855
  125MOL    H7532563   1.955   6.126   1.774 -0.5408  0.6810  0.0183
  125MOL    H7632564   2.127   6.104   1.964  0.4721  0.6449  0.9761
  125MOL    H7732565   2.078   6.271   2.022  3.4577  1.9059 -0.1514
  125MOL    H7832566   2.441   6.153   1.694  0.6008  0.9565  1.8004
  125MOL    H7932567   2.404   6.171   1.853 -2.6440 -3.0937  0.5113
  125MOL    C8032568   2.418   6.365   1.737 -0.1480 -0.2785 -0.0035
  125MOL    C8132569   2.388   6.419   1.596  0.1077  0.1939 -0.2164
  125MOL    C8232570   2.379   6.570   1.583 -0.2634 -0.3147 -0.0787
  125MOL    C8332571   2.255   6.489   1.560  0.3898 -0.7947  0.4622
  125MOL    C8432572   2.566   6.384   1.776 -0.0910 -0.6004 -0.1884
  125MOL    H8532573   2.368   6.421   1.816 -0.4242  1.6167 -1.4840
  125MOL    H8632574   2.449   6.365   1.524 -1.4380 -1.2705 -0.4583
  125MOL    H8732575   2.435   6.612   1.500  0.0302  0.7149  0.6273
  125MOL    H8832576   2.379   6.627   1.676  1.8586  0.2712 -0.4048
  125MOL    H8932577   2.178   6.497   1.636 -1.2575  3.4003 -1.4941
  125MOL    H9032578   2.207   6.477   1.463  0.6329  0.5893  0.1541
  125MOL    H9132579   2.625   6.294   1.756  0.5972  0.3615 -2.6826
  125MOL    H9232580   2.612   6.456   1.708 -1.2330 -1.4178 -1.8731
  125MOL    C9332581   2.601   6.428   1.925 -0.1661  0.1462  0.4998
  125MOL    C9432582   2.559   6.329   2.029 -0.5834  0.5642  0.3212
  125MOL    C9532583   2.524   6.366   2.171  0.9020 -0.3971 -0.1243
  125MOL    C9632584   2.414   6.328   2.079  0.4413 -0.0879  0.5308
  125MOL    C9732585   2.753   6.454   1.941  0.3468  0.4123  0.6616
  125MOL    H9832586   2.545   6.517   1.954 -2.6398 -0.8943 -0.9172
  125MOL    H9932587   2.599   6.229   2.016 -0.8487  0.4176  0.6069
  125MOL   H10032588   2.549   6.298   2.252 -2.6207  0.4360  1.7720
  125MOL   H10132589   2.513   6.472   2.196 -2.0830 -0.6751 -0.0662
  125MOL   H10232590   2.375   6.228   2.101  1.3003  0.1249  3.2073
  125MOL   H10332591   2.351   6.406   2.036  1.7637 -0.0483 -1.4018
  125MOL   H10432592   2.805   6.359   1.929 -0.5937 -0.0560  0.2629
  125MOL   H10532593   2.772   6.482   2.045 -0.9499  2.5281  0.3569
  125MOL   C10632594   2.813   6.565   1.853  0.5156  0.4051 -0.6399
  125MOL   C10732595   2.743   6.696   1.887  0.0722 -0.4627  0.6550
  125MOL   C10832596   2.776   6.821   1.802  0.0169 -0.2216  0.5716
  125MOL   C10932597   2.651   6.737   1.770 -0.1105  0.0365  0.1699
  125MOL   C11032598   2.967   6.576   1.876  0.3301 -0.5385 -0.5573
  125MOL   H11132599   2.802   6.537   1.749 -0.3945  1.0999 -0.7332
  125MOL   H11232600   2.725   6.725   1.990  0.0508 -0.7157  0.7240
  125MOL   H11332601   2.760   6.908   1.866 -0.3477 -1.8110  2.7158
  125MOL   H11432602   2.852   6.832   1.726 -0.9780 -0.1762 -0.4284
  125MOL   H11532603   2.660   6.688   1.674 -2.0559 -0.2067  0.0946
  125MOL   H11632604   2.556   6.781   1.800 -0.7835 -1.1816 -0.1603
  125MOL   H11732605   2.996   6.662   1.815  0.2401  0.3501  0.6297
  125MOL   H11832606   2.981   6.614   1.978 -2.6834  0.5000 -0.4926
  125MOL   C11932607   3.047   6.451   1.831  0.1848  0.2277  0.1568
  125MOL   C12032608   3.043   6.434   1.673  0.2567 -0.3286 -0.4565
  125MOL   C12132609   2.945   6.326   1.629 -0.1002 -0.9541 -0.3806
  125MOL   C12232610   3.089   6.311   1.597  0.3916 -0.2565 -0.0117
  125MOL   C12332611   3.183   6.431   1.882  0.2896  0.2995 -0.1307
  125MOL   H12432612   3.001   6.361   1.873 -0.0148 -1.1714 -2.9505
  125MOL   H12532613   3.038   6.528   1.618 -0.3790  0.1198  0.3594
  125MOL   H12632614   2.874   6.345   1.548 -0.5247  1.8632  0.5945
  125MOL   H12732615   2.918   6.250   1.702  0.4068  0.2761  1.1252
  125MOL   H12832616   3.143   6.235   1.654 -1.2739 -1.5984 -0.1737
  125MOL   H12932617   3.114   6.304   1.491 -3.3148  0.0238 -0.9675
  125MOL   H13032618   3.234   6.342   1.845  0.1194 -0.1480  0.6918
  125MOL   H13132619   3.238   6.518   1.845 -2.5227  1.0969 -2.7130
  125MOL   C13232620   3.207   6.422   2.036 -0.6022 -0.4869 -0.0503
  125MOL   C13332621   3.119   6.319   2.110 -0.2860 -0.2392 -0.4588
  125MOL   C13432622   3.185   6.247   2.228  0.0211  0.3815  0.0287
  125MOL   C13532623   3.130   6.168   2.112  0.5326  0.2400 -0.3174
  125MOL   C13632624   3.208   6.565   2.105  0.7551  0.4730 -0.1783
  125MOL   H13732625   3.310   6.385   2.040 -0.8374 -1.1086  0.3442
  125MOL   H13832626   3.019   6.354   2.136  0.3823  0.9548  0.5848
  125MOL   H13932627   3.291   6.225   2.243 -0.4079 -1.9465 -0.1462
  125MOL   H14032628   3.124   6.248   2.319  1.1551 -0.1983  0.8156
  125MOL   H14132629   3.211   6.117   2.061  1.8369  0.9714  1.0216
  125MOL   H14232630   3.032   6.126   2.135  1.7364 -1.9191  1.0215
  125MOL   H14332631   3.183   6.640   2.030 -1.5283 -1.1535 -1.0975
  125MOL   H14432632   3.117   6.578   2.163 -0.7220 -0.5652 -2.1883
  125MOL   C14532633   3.341   6.605   2.166 -0.2738 -0.1757 -0.6585
  125MOL   C14632634   3.423   6.705   2.080 -0.6941 -1.1576  0.0376
  125MOL   C14732635   3.570   6.678   2.073  0.4690 -0.0012  0.2950
  125MOL   C14832636   3.482   6.644   1.956 -0.1343 -0.9138  0.6886
  125MOL   C14932637   3.305   6.654   2.308 -0.3407  1.1380 -0.4015
  125MOL   H15032638   3.414   6.525   2.177 -0.4911  0.0627  3.1980
  125MOL   H15132639   3.392   6.810   2.081  1.1315 -0.6146  0.1991
  125MOL   H15232640   3.632   6.767   2.067 -1.5782  1.3361 -2.2450
  125MOL   H15332641   3.612   6.594   2.128 -0.0522 -2.2375 -2.6357
  125MOL   H15432642   3.454   6.540   1.937 -0.8171 -0.6466  0.2081
  125MOL   H15532643   3.468   6.703   1.866 -0.7100  0.3565  1.5970
  125MOL   H15632644   3.387   6.717   2.341  0.5052  0.6263 -1.5161
  125MOL   H15732645   3.220   6.724   2.306 -1.7463 -0.5503 -0.6914
  125MOL   C15832646   3.272   6.548   2.417 -0.6987  0.3400 -0.0369
  125MOL   C15932647   3.236   6.611   2.546 -0.1773  0.0969 -0.3698
  125MOL   C16032648   3.102   6.670   2.570  0.3024 -0.2545 -0.0121
  125MOL   C16132649   3.142   6.545   2.638  0.6367  0.0170 -0.3529
  125MOL   C16232650   3.372   6.437   2.447 -0.1106  0.5610  0.5285
  125MOL   H16332651   3.177   6.500   2.394  0.7374 -1.9405 -1.3778
  125MOL   H16432652   3.310   6.684   2.578 -0.6500 -0.0107  1.0155
  125MOL   H16532653   3.023   6.663   2.496  0.2115  1.1218 -0.0666
  125MOL   H16632654   3.097   6.770   2.615 -2.5061  0.0609 -0.9379
  125MOL   H16732655   3.148   6.544   2.747  1.0727 -3.5082 -0.3380
  125MOL   H16832656   3.088   6.455   2.609 -0.0745  0.3123  0.0259
  125MOL   H16932657   3.392   6.387   2.353 -3.8631  0.3611 -0.2571
  125MOL   H17032658   3.312   6.365   2.503 -0.6533  0.7580  0.2043
  125MOL   C17132659   3.500   6.472   2.527  0.1948  0.3215  0.1732
  125MOL   C17232660   3.550   6.344   2.590 -0.3036  0.4444  0.3948
  125MOL   C17332661   3.637   6.331   2.713 -0.3607 -0.9266 -0.0148
  125MOL   C17432662   3.494   6.288   2.720  1.0195 -0.4376 -0.0058
  125MOL   C17532663   3.605   6.540   2.445  0.0793 -0.2889 -0.2688
  125MOL   H17632664   3.471   6.545   2.603 -0.5106 -0.1183  0.3359
  125MOL   H17732665   3.566   6.269   2.514 -1.6596  0.3876  0.1472
  125MOL   H17832666   3.709   6.249   2.716 -0.3336 -0.9394 -0.8444
  125MOL   H17932667   3.659   6.425   2.763 -0.5058  0.4379 -2.4104
  125MOL   H18032668   3.422   6.353   2.770 -0.7681 -1.3258 -1.3774
  125MOL   H18132669   3.465   6.184   2.727  1.4885 -0.6688 -1.3639
  125MOL   H18232670   3.562   6.614   2.378 -0.0920 -0.3168 -0.1893
  125MOL   H18332671   3.643   6.466   2.374 -1.0503 -0.1389 -1.0427
  125MOL   C18432672   3.722   6.613   2.517  0.0155 -0.0929 -0.2325
  125MOL   C18532673   3.673   6.736   2.583  0.6540 -0.7646 -0.1290
  125MOL   C18632674   3.760   6.816   2.684 -0.3483 -0.4520 -0.5366
  125MOL   C18732675   3.632   6.753   2.724 -0.3792 -0.3407  0.1203
  125MOL   C18832676   3.831   6.657   2.419  0.0132 -0.1448  0.2135
  125MOL   H18932677   3.761   6.562   2.604  0.1953 -2.4090 -1.6294
  125MOL   H19032678   3.606   6.790   2.517  0.3474 -0.6904  0.2419
  125MOL   H19132679   3.775   6.923   2.675  1.6782 -0.5520  1.1832
  125MOL   H19232680   3.847   6.760   2.718 -0.4407 -0.7387 -0.7719
  125MOL   H19332681   3.545   6.815   2.742 -1.8268 -1.7609 -1.9159
  125MOL   H19432682   3.644   6.669   2.792  2.4521  0.9653  1.3344
  125MOL   H19532683   3.888   6.737   2.465  0.0372 -2.2700  4.1276
  125MOL   H19632684   3.782   6.702   2.333 -1.5691 -0.9713  0.6529
  125MOL   C19732685   3.938   6.552   2.373 -0.0094 -0.4630  0.6471
  125MOL   C19832686   4.004   6.480   2.495 -0.1194  0.0343 -0.5099
  125MOL   C19932687   4.069   6.344   2.477  1.1028 -0.4224 -0.8802
  125MOL   C20032688   3.944   6.350   2.552 -0.0154 -0.3302  0.8971
  125MOL   C20132689   4.051   6.607   2.284  0.0313  0.6475  0.0142
  125MOL   H20232690   3.885   6.474   2.318 -0.1102  0.7722 -1.0467
  125MOL   H20332691   4.046   6.542   2.573 -0.0021  0.5782 -0.9968
  125MOL   H20432692   4.067   6.315   2.372 -0.4134 -0.1566 -0.9315
  125MOL   H20532693   4.163   6.319   2.527  0.2540 -1.2271  0.3137
  125MOL   H20632694   3.865   6.305   2.493 -1.0654  1.3461  0.9929
  125MOL   H20732695   3.949   6.343   2.661  0.2730  1.6125  1.0366
  125MOL   H20832696   4.033   6.709   2.252  0.7336  1.0469  0.8670
  125MOL   H20932697   4.136   6.617   2.352  1.4967 -3.0342 -1.1315
  125MOL   C21032698   4.090   6.528   2.153  0.3511 -0.6382  0.1993
  125MOL   C21132699   3.989   6.548   2.037 -0.4563 -0.5811 -0.1704
  125MOL   C21232700   3.982   6.458   1.912 -0.1627 -0.5093  0.7605
  125MOL   C21332701   3.879   6.455   2.018 -0.9822  0.5014 -0.1550
  125MOL   C21432702   4.230   6.570   2.092  0.7075 -0.7163  0.4324
  125MOL   H21532703   4.095   6.420   2.167 -2.9698 -0.9871 -0.9281
  125MOL   H21632704   3.962   6.653   2.031  0.9229 -0.1931  0.1581
  125MOL   H21732705   3.951   6.490   1.813 -1.3702 -2.1029  0.6002
  125MOL   H21832706   4.049   6.372   1.915 -0.4500 -0.8285 -1.4316
  125MOL   H21932707   3.780   6.489   1.990 -1.4116  0.6947  1.5230
  125MOL   H22032708   3.883   6.365   2.080  0.6640  1.2842  0.9266
  125MOL   H22132709   4.263   6.496   2.019  2.0596 -1.2358  1.5671
  125MOL   H22232710   4.212   6.666   2.042  1.9501 -0.0466  1.2387
  125MOL   C22332711   4.349   6.593   2.194 -0.5858 -0.2005  0.1678
  125MOL   C22432712   4.463   6.647   2.130  0.5202 -0.3979 -0.0664
  125MOL   C22532713   4.476   6.797   2.120 -0.1376 -0.9425 -0.7262
  125MOL   C22632714   4.575   6.717   2.200  0.2567 -0.1263 -0.6500
  125MOL   C22732715   4.383   6.462   2.268 -0.3911 -0.4861  0.4503
  125MOL   H22832716   4.322   6.664   2.272  1.5066 -0.2683  0.9774
  125MOL   H22932717   4.499   6.598   2.040 -0.1538  2.5648 -2.0458
  125MOL   H23032718   4.405   6.853   2.181  0.4941  1.2657 -1.9625
  125MOL   H23132719   4.509   6.847   2.030 -0.0730 -0.1977 -0.2887
  125MOL   H23232720   4.679   6.719   2.168 -0.1086 -0.0551 -1.8581
  125MOL   H23332721   4.568   6.718   2.309 -1.1979 -3.2675 -0.6648
  125MOL   H23432722   4.292   6.422   2.312 -0.1985  0.4027  1.6710
  125MOL   H23532723   4.415   6.388   2.195  0.9573  0.3515  0.1732
  125MOL   C23632724   4.476   6.470   2.382  0.5525  0.7084  0.5611
  125MOL   C23732725   4.503   6.326   2.436  0.6924 -0.6838  0.1416
  125MOL   C23832726   4.580   6.231   2.352 -0.3133  0.0429  0.1872
  125MOL   C23932727   4.635   6.280   2.489  0.3087 -0.3718 -0.2701
  125MOL   C24032728   4.421   6.573   2.494 -0.0347 -0.5627  0.2153
  125MOL   H24132729   4.576   6.499   2.351  0.4064  1.1715  0.5162
  125MOL   H24232730   4.420   6.283   2.493 -0.1229  2.2768  1.2877
  125MOL   H24332731   4.544   6.129   2.359 -1.0481  0.1398 -1.7324
  125MOL   H24432732   4.622   6.268   2.259  2.4607 -1.4939  0.7843
  125MOL   H24532733   4.723   6.344   2.487 -0.8085  1.1904 -0.2126
  125MOL   H24632734   4.627   6.231   2.586  0.5489 -0.8615 -0.4970
  125MOL   H24732735   4.415   6.674   2.453  2.0754  0.1175  1.4894
  125MOL   H24832736   4.323   6.544   2.532 -0.0595 -0.8324 -0.0559
  125MOL   C24932737   4.510   6.578   2.616 -0.1617  0.4883  0.4300
  125MOL   C25032738   4.434   6.639   2.722 -0.0837  0.2683  0.3759
  125MOL   C25132739   4.483   6.751   2.812  0.1495  0.1904 -0.0579
  125MOL   C25232740   4.380   6.779   2.703 -0.4118  0.3568 -0.2478
  125MOL   C25332741   4.643   6.655   2.585  0.3128  0.3468  0.6307
  125MOL   H25432742   4.547   6.482   2.654 -0.1879  0.5679  0.6583
  125MOL   H25532743   4.377   6.570   2.784 -0.3954  1.3202  1.2750
  125MOL   H25632744   4.456   6.742   2.917  1.6379  0.1166  0.3406
  125MOL   H25732745   4.585   6.787   2.799  0.3308 -0.9772 -2.0125
  125MOL   H25832746   4.278   6.801   2.733 -0.2938 -1.9742  2.0876
  125MOL   H25932747   4.423   6.823   2.614  1.3108 -1.8023 -0.5283
  125MOL   H26032748   4.709   6.657   2.671  0.3183  1.1996  0.6079
  125MOL   H26132749   4.626   6.760   2.562  1.2322  0.8925  2.3669
  125MOL   H26232750   4.692   6.613   2.496 -0.5585 -0.6229  0.6048
  126MOL     C132751   0.702   0.628   1.354  0.2177 -0.2590 -0.0849
  126MOL     C232752   0.750   0.735   1.449 -0.2866  0.8517  0.6166
  126MOL     C332753   0.685   0.864   1.432 -0.5573  0.6787  0.8277
  126MOL     C432754   0.837   0.852   1.417 -0.1049  0.7895  0.0294
  126MOL     C532755   0.791   0.507   1.344  0.3023 -0.6168  0.2188
  126MOL     H632756   0.596   0.608   1.371 -0.5152  0.4518 -3.5470
  126MOL     H732757   0.749   0.707   1.555  0.5921  1.7881  0.8762
  126MOL     H832758   0.626   0.888   1.344  0.0390  1.3178  0.5964
  126MOL     H932759   0.650   0.905   1.527 -2.2010 -1.2897  1.0961
  126MOL    H1032760   0.896   0.904   1.493 -0.3666 -1.0866  1.5395
  126MOL    H1132761   0.887   0.846   1.321  0.3148  1.2480  0.2142
  126MOL    H1232762   0.812   0.476   1.446 -1.0972 -0.1681  0.6529
  126MOL    H1332763   0.885   0.548   1.307  0.0908 -0.4727 -0.1657
  126MOL    H1432764   0.708   0.680   1.258 -2.0041  2.0980  0.9620
  126MOL    C1532765   0.737   0.397   1.241  0.2946 -0.0669  0.6614
  126MOL    C1632766   0.683   0.466   1.109 -0.3842  0.5143  0.2333
  126MOL    C1732767   0.543   0.510   1.105 -0.9149  0.1922 -0.6513
  126MOL    C1832768   0.587   0.397   1.013 -0.6047  0.2699  0.0559
  126MOL    C1932769   0.853   0.302   1.207  0.2287  0.4547 -0.1826
  126MOL    H2032770   0.652   0.344   1.283  0.5742 -0.9927  0.0936
  126MOL    H2132771   0.760   0.526   1.061  0.0809  0.6438  1.1170
  126MOL    H2232772   0.521   0.607   1.061 -0.1458  0.7631  0.1936
  126MOL    H2332773   0.482   0.482   1.191 -0.9759 -0.0831 -0.7834
  126MOL    H2432774   0.551   0.298   1.043 -1.5004  1.2512  2.3129
  126MOL    H2532775   0.584   0.418   0.907 -1.1532 -1.8001 -0.3661
  126MOL    H2632776   0.920   0.293   1.292 -1.7173 -0.6098  1.2894
  126MOL    H2732777   0.906   0.340   1.120 -1.9395  0.0770 -1.7170
  126MOL    C2832778   0.811   0.162   1.170  0.1898 -0.1123  0.2652
  126MOL    C2932779   0.734   0.088   1.276 -0.2841  1.0483 -0.1600
  126MOL    C3032780   0.584   0.060   1.267  0.6837 -0.0503  0.3350
  126MOL    C3132781   0.689   7.790   1.233  0.5939 -0.0527 -0.2600
  126MOL    C3232782   0.940   0.088   1.121 -0.3853 -0.8323  0.5704
  126MOL    H3332783   0.751   0.176   1.080  0.7079  1.0339  0.0853
  126MOL    H3432784   0.765   0.094   1.380  1.6052  0.9097 -0.6962
  126MOL    H3532785   0.517   0.103   1.193  1.6889  1.5398  0.3302
  126MOL    H3632786   0.540   0.051   1.366  1.4225 -2.7821  0.4722
  126MOL    H3732787   0.699   7.754   1.131  1.6945  0.0527 -0.2024
  126MOL    H3832788   0.704   7.711   1.305 -0.3359 -0.0328 -0.0411
  126MOL    H3932789   0.937   7.823   1.152 -0.1113 -1.0063  0.0199
  126MOL    H4032790   1.025   0.130   1.176 -0.1238  1.0265 -1.2084
  126MOL    C4132791   0.979   0.091   0.965 -0.2092  0.0773 -0.5379
  126MOL    C4232792   0.879   0.009   0.892 -0.3152  0.4984  0.1506
  126MOL    C4332793   0.842   0.035   0.745 -0.1776  0.2790 -0.0076
  126MOL    C4432794   0.742   0.055   0.853  0.0832  0.9329  0.2253
  126MOL    C4532795   1.120   0.034   0.949 -0.0850  0.0687 -0.7305
  126MOL    H4632796   0.973   0.196   0.936  1.1386  0.4154  0.3253
  126MOL    H4732797   0.877   7.745   0.927 -0.4225  1.1794  2.2186
  126MOL    H4832798   0.885   0.120   0.694 -0.8982 -0.4855 -1.9128
  126MOL    H4932799   0.830   7.781   0.690 -4.2298  1.5758 -1.4812
  126MOL    H5032800   0.667   7.816   0.858  1.3532 -0.3726 -0.4611
  126MOL    H5132801   0.711   0.157   0.872 -1.1391  0.5966  0.0558
  126MOL    H5232802   1.128   7.838   0.846  2.9258 -2.8492  0.3908
  126MOL    H5332803   1.120   7.784   1.012  0.7456  1.6014  1.5091
  126MOL    C5432804   1.239   0.130   0.984  0.1367  1.3750 -0.0366
  126MOL    C5532805   1.363   0.050   1.015  0.0350 -0.6598 -0.0675
  126MOL    C5632806   1.378   7.804   1.135  0.3677 -0.1265 -0.8080
  126MOL    C5732807   1.450   0.094   1.120 -0.5189  0.1589 -0.1284
  126MOL    C5832808   1.259   0.228   0.871  0.8086  0.4742  0.2114
  126MOL    H5932809   1.205   0.179   1.075 -1.8866  0.8955 -0.5204
  126MOL    H6032810   1.427   0.010   0.937  0.9246  2.4990 -1.0397
  126MOL    H6132811   1.301   7.806   1.212  0.0988  3.4262 -1.0499
  126MOL    H6232812   1.426   7.709   1.116  0.1491 -0.9280  2.4504
  126MOL    H6332813   1.558   0.094   1.108 -0.4914 -0.4108  0.0948
  126MOL    H6432814   1.416   0.185   1.168  0.2952 -0.4424  1.6015
  126MOL    H6532815   1.343   0.186   0.817  1.9957  1.0703  1.5604
  126MOL    H6632816   1.171   0.218   0.807  0.0973  0.0289  1.2346
  126MOL    C6732817   1.308   0.362   0.914  0.1153 -0.1177 -0.1936
  126MOL    C6832818   1.384   0.427   0.797 -0.2510 -0.0412  0.2831
  126MOL    C6932819   1.505   0.522   0.829  0.3108 -0.1871  0.5344
  126MOL    C7032820   1.525   0.378   0.772 -0.5427 -0.2265 -0.1057
  126MOL    C7132821   1.199   0.448   0.976  0.5115  0.3509 -0.0918
  126MOL    H7232822   1.384   0.334   0.987 -1.4214 -2.4588  0.5600
  126MOL    H7332823   1.313   0.467   0.725 -1.0623  0.5694  1.4132
  126MOL    H7432824   1.514   0.607   0.762 -1.7374 -1.2146 -1.1139
  126MOL    H7532825   1.530   0.542   0.933 -1.3192  4.1698  0.1773
  126MOL    H7632826   1.553   0.297   0.839  2.3896  0.2602 -0.6587
  126MOL    H7732827   1.548   0.361   0.667 -1.2128  1.1069 -0.4709
  126MOL    H7832828   1.133   0.383   1.033  0.3592  1.9911  1.6815
  126MOL    H7932829   1.148   0.486   0.888 -0.8951  2.5044  1.5957
  126MOL    C8032830   1.246   0.569   1.062 -0.1282  0.6651 -0.2708
  126MOL    C8132831   1.281   0.517   1.206 -0.7940 -0.1818 -0.3736
  126MOL    C8232832   1.352   0.607   1.310 -0.5154 -0.0395  0.3634
  126MOL    C8332833   1.420   0.484   1.249  0.3543 -0.2210 -0.3107
  126MOL    C8432834   1.139   0.681   1.066 -0.5596  0.0082  0.1886
  126MOL    H8532835   1.339   0.613   1.027  0.1201 -0.0282 -0.4794
  126MOL    H8632836   1.200   0.458   1.248  1.0168  0.0033  3.6348
  126MOL    H8732837   1.321   0.624   1.413 -0.5363  0.4786  0.2738
  126MOL    H8832838   1.384   0.698   1.258  1.3878  0.0061  1.5717
  126MOL    H8932839   1.499   0.504   1.178 -0.3422 -1.4156 -1.4540
  126MOL    H9032840   1.437   0.404   1.321  1.2596  0.0301 -0.2437
  126MOL    H9132841   1.045   0.626   1.055  0.1704 -0.9066 -1.9123
  126MOL    H9232842   1.144   0.728   1.164  0.6080  0.3595 -0.0319
  126MOL    C9332843   1.149   0.788   0.957  0.6362 -0.0196 -0.3549
  126MOL    C9432844   1.017   0.846   0.909  0.1928  0.0065  0.3050
  126MOL    C9532845   0.891   0.767   0.884 -0.4213  0.3698 -0.0487
  126MOL    C9632846   0.894   0.863   0.997 -0.6672  0.7581 -0.3607
  126MOL    C9732847   1.255   0.899   0.988 -0.2926  0.1524 -1.4432
  126MOL    H9832848   1.178   0.734   0.867  0.6835 -0.8285  0.1358
  126MOL    H9932849   1.029   0.940   0.856 -0.4659 -0.7091 -1.1585
  126MOL   H10032850   0.818   0.792   0.807  0.8056  2.6678 -0.4850
  126MOL   H10132851   0.879   0.665   0.922 -1.3706  0.3465 -0.3954
  126MOL   H10232852   0.840   0.957   0.985  0.6739  1.6917  0.8104
  126MOL   H10332853   0.880   0.821   1.096  2.9937  2.5272  0.9865
  126MOL   H10432854   1.295   0.881   1.088  0.1829 -1.6775 -1.9434
  126MOL   H10532855   1.200   0.992   0.999  1.5462  1.2357 -1.2499
  126MOL   C10632856   1.356   0.917   0.877 -1.0821 -0.0837  0.5148
  126MOL   C10732857   1.282   0.963   0.752  0.1622 -0.0788 -0.0283
  126MOL   C10832858   1.352   0.958   0.616 -0.9157  0.2706 -0.2063
  126MOL   C10932859   1.238   0.865   0.647  0.4117 -0.4089  0.5412
  126MOL   C11032860   1.466   1.013   0.905 -0.1932 -0.0035  0.8353
  126MOL   H11132861   1.396   0.817   0.858  1.3717  0.9544  0.0517
  126MOL   H11232862   1.218   1.048   0.773  0.5775 -0.1206  1.4675
  126MOL   H11332863   1.321   1.032   0.542 -0.3226 -0.9215 -1.6826
  126MOL   H11432864   1.450   0.914   0.605  0.1529  2.0813  1.7887
  126MOL   H11532865   1.269   0.762   0.661 -1.2085 -1.0395 -0.4237
  126MOL   H11632866   1.146   0.878   0.591  1.0486  1.8040 -0.0365
  126MOL   H11732867   1.507   1.039   0.807 -0.7936 -0.7350  0.3909
  126MOL   H11832868   1.423   1.111   0.929 -0.0549  0.4361 -0.6376
  126MOL   C11932869   1.573   0.971   1.003 -0.7869 -0.1866  0.3861
  126MOL   C12032870   1.531   0.984   1.145  0.9320  0.2047 -0.1836
  126MOL   C12132871   1.445   1.102   1.192 -0.5254 -0.3147 -0.0237
  126MOL   C12232872   1.585   1.089   1.240  0.3121  0.0987 -0.3761
  126MOL   C12332873   1.619   0.829   0.977 -1.1997  0.8124  0.2308
  126MOL   H12432874   1.655   1.043   0.992  0.9809 -2.4005 -1.3757
  126MOL   H12532875   1.504   0.891   1.195 -2.1058  1.4871  0.6639
  126MOL   H12632876   1.369   1.084   1.268 -2.0494  0.3707 -1.3734
  126MOL   H12732877   1.428   1.180   1.119 -0.8045 -1.0011 -0.6962
  126MOL   H12832878   1.659   1.157   1.197  0.4902  0.4337  0.4508
  126MOL   H12932879   1.607   1.060   1.342  1.3335  0.2467 -0.5546
  126MOL   H13032880   1.559   0.753   1.026  0.1029  0.6295  1.5611
  126MOL   H13132881   1.622   0.801   0.871  2.4229 -0.5218  0.6267
  126MOL   C13232882   1.771   0.809   1.031 -0.3844  0.1356 -0.7026
  126MOL   C13332883   1.782   0.835   1.179 -0.2462  0.0401 -0.0352
  126MOL   C13432884   1.863   0.735   1.258 -0.2723 -0.2626  0.4629
  126MOL   C13532885   1.719   0.743   1.279 -0.0811  0.1855 -0.9059
  126MOL   C13632886   1.886   0.880   0.953  0.0300  0.2130 -0.1841
  126MOL   H13732887   1.796   0.703   1.023  0.6173  0.3543 -0.5048
  126MOL   H13832888   1.797   0.940   1.204  1.6144 -0.8049  2.6137
  126MOL   H13932889   1.905   0.645   1.212 -0.5827 -0.0303 -0.2768
  126MOL   H14032890   1.923   0.783   1.335  1.1250  1.7982 -1.8304
  126MOL   H14132891   1.665   0.653   1.252 -0.0685 -0.1967  0.3207
  126MOL   H14232892   1.678   0.786   1.370  0.1072 -1.1720 -0.1792
  126MOL   H14332893   1.848   0.980   0.930 -1.7868 -0.6591 -1.0907
  126MOL   H14432894   1.974   0.890   1.016  1.3818  1.9683 -2.3033
  126MOL   C14532895   1.923   0.813   0.825  0.7253  0.3599 -0.9627
  126MOL   C14632896   1.967   0.929   0.724  0.3580  0.0303 -0.1979
  126MOL   C14732897   1.961   0.897   0.585 -0.6097 -0.8248 -0.0040
  126MOL   C14832898   1.864   0.996   0.635  0.0604  0.8210 -0.2941
  126MOL   C14932899   2.027   0.706   0.850  0.6343  0.5894 -0.1652
  126MOL   H15032900   1.830   0.774   0.784 -0.0043  0.6658  0.3719
  126MOL   H15132901   2.046   0.997   0.755  1.0171 -0.2889 -1.1407
  126MOL   H15232902   2.024   0.947   0.511 -0.3859 -1.1401 -0.0291
  126MOL   H15332903   1.920   0.802   0.551  1.6660 -2.2386  1.1179
  126MOL   H15432904   1.760   0.964   0.637 -0.4783  2.4838 -0.3561
  126MOL   H15532905   1.877   1.101   0.609  2.2350  0.7035  0.1846
  126MOL   H15632906   2.128   0.748   0.858  0.5222  0.8665 -0.1857
  126MOL   H15732907   2.016   0.663   0.949 -1.9345  2.2015  0.3002
  126MOL   C15832908   2.033   0.592   0.747  0.2886 -0.2417  0.2429
  126MOL   C15932909   1.902   0.516   0.745  0.1566 -0.1908 -0.1041
  126MOL   C16032910   1.810   0.548   0.634 -0.1705  0.0113  0.3181
  126MOL   C16132911   1.866   0.409   0.635  0.3006 -0.4409  0.4717
  126MOL   C16232912   2.151   0.493   0.766  0.2837  0.1826 -0.7990
  126MOL   H16332913   2.042   0.643   0.651  1.3613 -1.4163 -0.2984
  126MOL   H16432914   1.858   0.492   0.842 -0.1447 -0.5086 -0.3170
  126MOL   H16532915   1.845   0.613   0.554 -1.4508  0.9899  0.5334
  126MOL   H16632916   1.704   0.572   0.642  0.1951  2.8380 -2.4064
  126MOL   H16732917   1.800   0.327   0.664 -1.9375  1.7814  1.7791
  126MOL   H16832918   1.948   0.394   0.565  2.1182 -1.6750  2.8063
  126MOL   H16932919   2.130   0.393   0.727 -0.2963 -0.0607  0.1302
  126MOL   H17032920   2.163   0.491   0.874  1.6268  0.0238 -0.9422
  126MOL   C17132921   2.280   0.546   0.719  0.4750  0.6555  0.1044
  126MOL   C17232922   2.396   0.465   0.785  0.1217  0.1344  0.5437
  126MOL   C17332923   2.532   0.518   0.828 -0.5461  0.3585  0.3884
  126MOL   C17432924   2.431   0.476   0.931  0.4213 -0.6806 -0.0344
  126MOL   C17532925   2.283   0.555   0.562  0.5283  0.0154 -0.1882
  126MOL   H17632926   2.281   0.649   0.756  3.7760 -0.0987  2.3140
  126MOL   H17732927   2.401   0.364   0.744 -1.5906  0.8347 -1.4409
  126MOL   H17832928   2.616   0.449   0.825 -1.2617 -0.5195  0.3355
  126MOL   H17932929   2.552   0.623   0.808  0.4561  0.1020  0.0287
  126MOL   H18032930   2.390   0.556   0.993  2.3144 -0.4642  0.9884
  126MOL   H18132931   2.453   0.388   0.990  0.6102  0.4894  1.6929
  126MOL   H18232932   2.195   0.608   0.525  2.2413  0.6265 -3.4728
  126MOL   H18332933   2.273   0.458   0.514 -0.2747 -0.5228  1.0427
  126MOL   C18432934   2.406   0.634   0.507 -0.3654  1.2689 -0.4018
  126MOL   C18532935   2.384   0.785   0.515  0.6696  0.2372 -0.0501
  126MOL   C18632936   2.507   0.873   0.521  0.3300 -0.3013 -0.1675
  126MOL   C18732937   2.407   0.877   0.638 -0.4746 -0.0993 -0.1358
  126MOL   C18832938   2.440   0.587   0.364 -0.3478  0.4401  0.5682
  126MOL   H18932939   2.491   0.606   0.569 -0.3239  0.1753 -0.9414
  126MOL   H19032940   2.297   0.828   0.465 -0.2175 -0.1138  1.1714
  126MOL   H19132941   2.499   0.962   0.458  1.6020  0.4051  0.6575
  126MOL   H19232942   2.600   0.818   0.524  0.2579 -0.3564  1.6133
  126MOL   H19332943   2.340   0.962   0.652 -1.6152 -0.6985 -1.8856
  126MOL   H19432944   2.435   0.829   0.732  2.6510  0.4642 -0.7307
  126MOL   H19532945   2.472   0.673   0.304 -0.4417 -0.5966 -0.9915
  126MOL   H19632946   2.344   0.558   0.322  0.8630 -0.6082 -1.5553
  126MOL   C19732947   2.537   0.475   0.343  0.0043  0.5167  0.2418
  126MOL   C19832948   2.501   0.347   0.411 -1.2604  0.2739 -0.6605
  126MOL   C19932949   2.521   0.216   0.342 -0.5652 -0.8073  0.0601
  126MOL   C20032950   2.381   0.262   0.374 -0.1747  0.0831 -0.5022
  126MOL   C20132951   2.682   0.515   0.353 -0.0469 -0.0392  0.3389
  126MOL   H20232952   2.512   0.450   0.240 -2.8374  3.1759  0.2011
  126MOL   H20332953   2.533   0.355   0.515  0.2889  0.5972 -1.1554
  126MOL   H20432954   2.564   0.235   0.244  0.5159 -0.6018  0.5642
  126MOL   H20532955   2.579   0.142   0.397  1.2713  0.4856 -0.0977
  126MOL   H20632956   2.321   0.287   0.287 -0.1506 -0.6935 -0.7461
  126MOL   H20732957   2.329   0.207   0.453  1.7233  0.9486  1.3945
  126MOL   H20832958   2.687   0.548   0.457 -0.4432 -2.1351  1.0503
  126MOL   H20932959   2.750   0.431   0.346  1.8289  1.2966  2.0653
  126MOL   C21032960   2.747   0.634   0.275  1.0689  0.7120 -0.1055
  126MOL   C21132961   2.894   0.666   0.319  0.1182 -0.5645 -0.2642
  126MOL   C21232962   2.942   0.648   0.461  0.2707  0.0278  0.6425
  126MOL   C21332963   2.991   0.552   0.355 -0.2254 -0.5844 -0.1275
  126MOL   C21432964   2.753   0.602   0.119 -0.2303  0.0792 -0.7988
  126MOL   H21532965   2.689   0.724   0.296  0.8186  0.1901  1.5242
  126MOL   H21632966   2.938   0.742   0.256  1.0628  1.9793  3.3009
  126MOL   H21732967   3.009   0.725   0.500  2.8003 -1.7846  0.0222
  126MOL   H21832968   2.877   0.605   0.537  0.0100  1.2512  1.1283
  126MOL   H21932969   3.095   0.575   0.333 -0.6780  3.0735  1.1372
  126MOL   H22032970   2.955   0.451   0.340 -0.6885 -0.3276 -0.7604
  126MOL   H22132971   2.849   0.637   0.080  0.5217  2.2489  2.7884
  126MOL   H22232972   2.746   0.494   0.104 -0.7504  0.2026 -1.4624
  126MOL   C22332973   2.632   0.664   0.035 -0.1846  0.0900  0.3885
  126MOL   C22432974   2.613   0.586   7.746 -0.1294  0.3361  0.3789
  126MOL   C22532975   2.561   0.438   7.735  0.6129 -0.0563  0.4807
  126MOL   C22632976   2.477   0.550   7.690  0.6516  0.7115 -0.1862
  126MOL   C22732977   2.646   0.813   0.015  0.3157  1.1275 -0.5404
  126MOL   H22832978   2.545   0.643   0.096  1.4155  0.1010  2.7275
  126MOL   H22932979   2.684   0.618   7.670 -0.3230 -0.7424 -0.2610
  126MOL   H23032980   2.512   0.385   7.816 -0.4548 -0.3410 -0.3389
  126MOL   H23132981   2.597   0.370   7.659 -1.6317  0.3045 -0.9633
  126MOL   H23232982   2.456   0.565   7.584 -1.8165 -1.3373 -0.0409
  126MOL   H23332983   2.390   0.567   7.753  0.6207  2.0998 -0.5964
  126MOL   H23432984   2.739   0.851   7.811 -0.1179  1.4073 -1.2444
  126MOL   H23532985   2.586   0.830   7.765 -0.1934  3.6359  0.2208
  126MOL   C23632986   2.592   0.915   0.118  0.6857  0.3768 -0.6501
  126MOL   C23732987   2.486   1.008   0.061  0.1979  0.2845 -0.4635
  126MOL   C23832988   2.341   0.980   0.074  0.2104  0.2072 -0.6371
  126MOL   C23932989   2.402   1.091   0.158  0.7532 -0.4106 -0.4322
  126MOL   C24032990   2.712   0.990   0.184 -0.4699 -0.0807 -0.3385
  126MOL   H24132991   2.530   0.866   0.192  0.1252  2.1951  0.1216
  126MOL   H24232992   2.512   1.060   7.808  0.6773 -2.1759 -1.7469
  126MOL   H24332993   2.261   1.009   0.007 -2.0807 -2.8001  0.6744
  126MOL   H24432994   2.320   0.887   0.126  1.0284  1.0410  1.2399
  126MOL   H24532995   2.420   1.071   0.263 -0.9175 -0.5987 -0.1805
  126MOL   H24632996   2.369   1.191   0.131 -2.6530 -0.7155  2.2801
  126MOL   H24732997   2.673   1.065   0.252  1.4196 -0.4744  1.2396
  126MOL   H24832998   2.768   0.919   0.245 -0.7711 -0.3089 -0.3239
  126MOL   C24932999   2.825   1.056   0.099 -0.6443  0.1050 -0.3183
  126MOL   C25033000   2.938   1.106   0.194  0.0341  0.1031  0.3185
  126MOL   C25133001   3.085   1.055   0.178 -0.3940  0.1059  0.4732
  126MOL   C25233002   3.044   1.190   0.128 -0.2206  0.1533  0.6814
  126MOL   C25333003   2.771   1.166   0.013  0.9589 -0.1511  0.4807
  126MOL   H25433004   2.876   0.985   0.034  1.1797  1.1446 -0.0373
  126MOL   H25533005   2.913   1.125   0.298  0.7890  1.6907  0.2333
  126MOL   H25633006   3.147   1.052   0.267 -1.7823  3.2029  1.6000
  126MOL   H25733007   3.100   0.980   0.101  1.5280  0.9348  0.0085
  126MOL   H25833008   3.066   1.281   0.184 -0.2740 -1.1724  2.9130
  126MOL   H25933009   3.070   1.203   0.023  0.2997  0.4145  0.8391
  126MOL   H26033010   2.709   1.126   7.772 -0.5195  3.8940 -0.5281
  126MOL   H26133011   2.847   1.226   7.802 -1.0600  0.9752 -1.3439
  126MOL   H26233012   2.709   1.233   0.073  0.8666 -0.7338  1.0446
  127MOL     C133013   4.156   5.949   2.860 -0.3561  0.1101  0.0178
  127MOL     C233014   4.069   6.045   2.791  1.1558 -0.3860  0.1610
  127MOL     C333015   3.915   6.034   2.806 -0.1472 -0.5978  0.1370
  127MOL     C433016   3.983   6.002   2.674 -0.4905  0.3118 -0.2845
  127MOL     C533017   4.196   5.987   3.005 -0.0963  0.5906  0.3179
  127MOL     H633018   4.122   5.846   2.867  2.0549 -0.5926  2.3026
  127MOL     H733019   4.113   6.144   2.781 -1.0195  0.7254  1.2162
  127MOL     H833020   3.886   5.957   2.877 -1.0453  0.3422  0.8064
  127MOL     H933021   3.860   6.128   2.808 -0.2726 -0.6669 -0.0985
  127MOL    H1033022   3.975   6.080   2.599  2.0391  1.5345  0.6612
  127MOL    H1133023   4.006   5.899   2.644  0.0730  0.2690  0.2730
  127MOL    H1233024   4.105   6.005   3.061  0.8733  0.1996  2.0949
  127MOL    H1333025   4.251   6.078   3.029  1.0515  0.2487 -0.9455
  127MOL    H1433026   4.246   5.948   2.798  0.2317 -1.1202  0.8916
  127MOL    C1533027   4.267   5.878   3.086 -0.6612 -0.2846 -0.4541
  127MOL    C1633028   4.180   5.758   3.119  0.2628  0.8199  0.1584
  127MOL    C1733029   4.093   5.781   3.241 -0.5904  0.2205 -0.5107
  127MOL    C1833030   4.199   5.669   3.243  0.3406  0.0086  0.7896
  127MOL    C1933031   4.403   5.836   3.025 -0.8909  0.2367 -0.0320
  127MOL    H2033032   4.283   5.925   3.183  1.9935 -1.4841 -0.2644
  127MOL    H2133033   4.143   5.701   3.034 -1.3773  1.1367  0.6359
  127MOL    H2233034   3.998   5.731   3.256 -0.7011  1.0623  1.8478
  127MOL    H2333035   4.113   5.867   3.304 -1.4925  2.0668 -2.6805
  127MOL    H2433036   4.285   5.681   3.309  0.3620 -0.1098  0.7851
  127MOL    H2533037   4.171   5.565   3.225  0.9017 -0.1246  0.6796
  127MOL    H2633038   4.410   5.858   2.918 -1.3323  0.5637  0.0055
  127MOL    H2733039   4.412   5.728   3.012  1.9605  0.5947 -1.3500
  127MOL    C2833040   4.524   5.906   3.090 -0.4944 -0.7973  1.0823
  127MOL    C2933041   4.552   5.855   3.235 -0.4964 -0.2170 -0.3428
  127MOL    C3033042   4.592   5.707   3.259 -0.4629  0.5385  0.2383
  127MOL    C3133043   4.695   5.816   3.270 -0.1655  0.1164  0.6421
  127MOL    C3233044   4.540   6.053   3.061 -0.1216 -0.5937  0.6687
  127MOL    H3333045   4.610   5.867   3.036 -0.6680  0.7943 -0.4032
  127MOL    H3433046   4.506   5.903   3.321 -1.7855  0.1688 -1.2319
  127MOL    H3533047   4.598   5.635   3.178 -2.2015  1.2138 -0.5426
  127MOL    H3633048   4.568   5.652   3.349  0.6231  0.3315  0.3965
  127MOL    H3733049   4.767   5.827   3.190  0.2566 -0.8520  0.8816
  127MOL    H3833050   4.730   5.845   3.369  2.2151  2.3986 -0.7952
  127MOL    H3933051   4.476   6.102   3.135  1.3164  2.5509 -0.0793
  127MOL    H4033052   4.494   6.090   2.970 -1.1624 -0.1038  1.3889
  127MOL    C4133053   4.680   6.110   3.071  0.2648  0.4343  0.2540
  127MOL    C4233054   4.690   6.261   3.086 -0.1224  0.0004 -0.1167
  127MOL    C4333055   4.569   6.344   3.134 -0.0417 -0.1310 -0.4766
  127MOL    C4433056   4.623   6.362   2.995  0.0849 -0.0730  0.1034
  127MOL    C4533057   4.760   6.077   2.943  0.3272 -0.1709  0.0550
  127MOL    H4633058   4.729   6.076   3.162  0.6295  2.5155  0.8479
  127MOL    H4733059   4.787   6.290   3.126  0.9375 -3.0375 -0.3699
  127MOL    H4833060   4.468   6.306   3.151 -0.1582  1.5930  3.2815
  127MOL    H4933061   4.576   6.427   3.204 -1.6175  1.0094 -1.6400
  127MOL    H5033062   4.670   6.460   2.989 -0.3742  0.1116 -0.4497
  127MOL    H5133063   4.573   6.324   2.907 -0.0520 -1.2380  0.6762
  127MOL    H5233064   4.719   6.131   2.857  0.4268  0.6132  0.4923
  127MOL    H5333065   4.737   5.978   2.905 -1.9000  0.4152 -0.2039
  127MOL    C5433066   4.920   6.078   2.933 -0.9197 -0.0866  1.2251
  127MOL    C5533067   4.977   5.982   3.035 -0.2422 -0.1396 -0.3007
  127MOL    C5633068   4.985   6.019   3.179 -1.2970  0.3622 -0.2444
  127MOL    C5733069   5.109   6.003   3.098 -0.0338  0.3021  0.0612
  127MOL    C5833070   4.967   6.033   2.795  0.3533 -0.2346 -0.2897
  127MOL    H5933071   4.966   6.173   2.961 -3.1107  1.2231  0.4670
  127MOL    H6033072   4.944   5.879   3.019  0.8571 -0.3101 -1.5108
  127MOL    H6133073   4.954   6.121   3.200 -0.6220  0.6958 -0.8621
  127MOL    H6233074   4.966   5.948   3.260 -0.3359  0.3974  0.0124
  127MOL    H6333075   5.176   5.920   3.118 -0.1697  0.1552 -0.0850
  127MOL    H6433076   5.159   6.094   3.064 -0.4516  1.5511  2.6880
  127MOL    H6533077   5.068   5.992   2.793  0.4462 -0.0187 -0.0276
  127MOL    H6633078   4.909   5.944   2.772 -1.2986  0.9065 -0.6520
  127MOL    C6733079   4.952   6.140   2.686  0.1315  0.0613  0.5472
  127MOL    C6833080   5.008   6.274   2.730 -0.4743  0.0965 -0.2140
  127MOL    C6933081   4.992   6.399   2.648  0.4077  0.0717  0.2266
  127MOL    C7033082   4.911   6.387   2.773 -0.4974 -0.4255 -0.7453
  127MOL    C7133083   5.018   6.093   2.556 -0.3529  1.0231  0.9905
  127MOL    H7233084   4.847   6.160   2.663  0.4292 -0.2906 -1.2173
  127MOL    H7333085   5.104   6.259   2.780  0.0136 -0.1873 -1.2192
  127MOL    H7433086   5.079   6.464   2.653  0.1237  0.5654 -1.0316
  127MOL    H7533087   4.941   6.408   2.553 -1.7553  0.3314  1.3827
  127MOL    H7633088   4.805   6.361   2.778 -0.3340 -0.7512  2.5822
  127MOL    H7733089   4.942   6.455   2.853 -1.5202 -1.6576  0.7361
  127MOL    H7833090   5.100   6.024   2.572  0.0654  1.2186 -0.2613
  127MOL    H7933091   5.076   6.178   2.520 -2.2385  1.8487 -0.1847
  127MOL    C8033092   4.931   6.025   2.444  0.2795  0.2161 -0.5167
  127MOL    C8133093   4.867   5.895   2.500 -0.0149  0.0191  0.4833
  127MOL    C8233094   4.763   5.821   2.415 -0.0886  0.6891  0.0713
  127MOL    C8333095   4.717   5.887   2.539  0.2737 -0.1102 -0.1078
  127MOL    C8433096   5.002   5.999   2.304  0.1242 -0.4138 -0.7465
  127MOL    H8533097   4.840   6.085   2.441  1.0058  1.3641  0.2790
  127MOL    H8633098   4.943   5.838   2.553  0.3489 -1.6706 -1.7818
  127MOL    H8733099   4.758   5.712   2.419 -1.1262  0.7831  1.3894
  127MOL    H8833100   4.731   5.873   2.325  1.3105 -0.4959 -1.1516
  127MOL    H8933101   4.657   5.978   2.537  0.4224  0.0013  0.5818
  127MOL    H9033102   4.694   5.819   2.621  1.5320 -1.2545 -0.6769
  127MOL    H9133103   5.085   5.931   2.321  1.7624  0.9016 -3.1854
  127MOL    H9233104   4.930   5.947   2.241  0.0585  0.9508 -1.8291
  127MOL    C9333105   5.050   6.131   2.231  0.6688  0.1213 -1.2674
  127MOL    C9433106   5.127   6.104   2.102 -0.1538 -0.4701 -0.8635
  127MOL    C9533107   5.219   6.209   2.030  0.0061 -0.2121  0.0398
  127MOL    C9633108   5.279   6.085   2.097  0.1302 -0.6900 -0.6751
  127MOL    C9733109   4.927   6.222   2.187  0.8108 -0.2128 -0.2792
  127MOL    H9833110   5.123   6.190   2.286  1.0962  1.5083 -3.2579
  127MOL    H9933111   5.069   6.034   2.042 -1.1371 -0.1115 -0.3418
  127MOL   H10033112   5.193   6.206   1.924  3.3907  0.9001 -0.8639
  127MOL   H10133113   5.231   6.311   2.066 -0.5122 -0.1408  0.0150
  127MOL   H10233114   5.307   5.998   2.038 -1.0617 -0.7953 -1.1064
  127MOL   H10333115   5.334   6.104   2.189 -0.3520  1.8791 -0.8851
  127MOL   H10433116   4.852   6.226   2.267  2.0466 -1.8732  0.9949
  127MOL   H10533117   4.872   6.172   2.107  0.2640 -0.2423  0.1089
  127MOL   C10633118   4.942   6.370   2.136 -0.4493 -0.3323  0.0736
  127MOL   C10733119   4.813   6.440   2.100 -0.2191  0.4053  0.1409
  127MOL   C10833120   4.794   6.526   1.971  0.0748  0.1301  0.1785
  127MOL   C10933121   4.718   6.392   1.992 -0.0931  0.2024 -0.1923
  127MOL   C11033122   5.024   6.449   2.242  0.7484  0.3141 -0.2991
  127MOL   H11133123   4.996   6.370   2.042  1.1233 -1.9202  0.9584
  127MOL   H11233124   4.768   6.486   2.188 -0.3518  0.3879  0.0832
  127MOL   H11333125   4.729   6.613   1.973 -0.7373 -0.4966  2.3708
  127MOL   H11433126   4.890   6.528   1.919 -0.1252 -2.4700 -0.3503
  127MOL   H11533127   4.742   6.313   1.920  0.8077  1.0447 -0.8355
  127MOL   H11633128   4.613   6.417   2.004 -0.1034  0.7360 -1.3688
  127MOL   H11733129   4.959   6.462   2.329  0.3208 -0.0537 -0.5621
  127MOL   H11833130   5.115   6.401   2.278  1.2848  0.4722 -1.4301
  127MOL   C11933131   5.078   6.584   2.196  0.2050 -0.0277  0.1073
  127MOL   C12033132   5.133   6.656   2.318  0.2974 -0.0314  0.4553
  127MOL   C12133133   5.033   6.723   2.404  0.0203 -0.4630  0.5142
  127MOL   C12233134   5.132   6.808   2.329 -0.2796 -0.3418 -0.7018
  127MOL   C12333135   5.185   6.571   2.083 -0.0363  0.7886  0.4908
  127MOL   H12433136   4.994   6.636   2.151  0.5346  0.0087 -0.4627
  127MOL   H12533137   5.204   6.596   2.374 -0.2148  0.5638  1.7408
  127MOL   H12633138   5.050   6.734   2.511 -1.7111  2.4597  0.5443
  127MOL   H12733139   4.929   6.713   2.372  0.5078 -0.8036 -0.9758
  127MOL   H12833140   5.086   6.866   2.249 -1.5215 -0.7797 -0.3118
  127MOL   H12933141   5.197   6.852   2.405 -0.3188 -2.9086  0.8864
  127MOL   H13033142   5.268   6.526   2.137  0.9157  0.4609 -1.1980
  127MOL   H13133143   5.147   6.511   2.000  1.5386  1.5337 -0.8092
  127MOL   C13233144   5.228   6.699   2.022  0.0499 -1.0691  0.0928
  127MOL   C13333145   5.139   6.735   1.901 -0.2895 -0.0271  0.4332
  127MOL   C13433146   5.132   6.876   1.851 -0.3281  0.7320 -0.3263
  127MOL   C13533147   5.007   6.816   1.908  0.2884  0.7815  0.4099
  127MOL   C13633148   5.382   6.693   1.995  0.0466 -0.3595 -0.2273
  127MOL   H13733149   5.214   6.782   2.092  1.0289 -0.1891 -0.7509
  127MOL   H13833150   5.155   6.673   1.813 -0.4628  1.0890 -0.3973
  127MOL   H13933151   5.194   6.947   1.904 -1.2216 -0.1852  2.0084
  127MOL   H14033152   5.133   6.876   1.742  0.7679 -1.3325 -0.3447
  127MOL   H14133153   4.988   6.857   2.007 -0.9941 -0.0328  0.5138
  127MOL   H14233154   4.926   6.782   1.844  1.5862 -0.8763 -0.4051
  127MOL   H14333155   5.411   6.608   1.933 -1.7552 -0.3942 -1.0736
  127MOL   H14433156   5.398   6.784   1.937  0.5983  0.4501  1.1871
  127MOL   C14533157   5.468   6.708   2.123  0.6952 -0.6719 -0.6160
  127MOL   C14633158   5.608   6.659   2.089  0.2088 -0.3902  0.1872
  127MOL   C14733159   5.706   6.649   2.203  0.1229  0.5698 -0.0921
  127MOL   C14833160   5.663   6.528   2.136 -0.3458  0.2592  0.5449
  127MOL   C14933161   5.461   6.854   2.188 -0.5522  0.4470  0.2691
  127MOL   H15033162   5.436   6.636   2.198 -0.2178  1.3781  1.0300
  127MOL   H15133163   5.639   6.701   1.994 -0.2138 -0.4814  0.0073
  127MOL   H15233164   5.807   6.678   2.174 -0.4693  1.2950 -1.4844
  127MOL   H15333165   5.685   6.661   2.309  3.7280 -1.8304  1.0060
  127MOL   H15433166   5.598   6.456   2.184 -0.4235  0.4552  0.7331
  127MOL   H15533167   5.728   6.474   2.067 -2.2100  0.2723 -1.2509
  127MOL   H15633168   5.359   6.868   2.224 -1.0596 -0.8529 -0.6286
  127MOL   H15733169   5.532   6.837   2.269  0.3336  0.8677 -0.4090
  127MOL   C15833170   5.502   6.983   2.108 -0.3953 -0.3828 -0.3557
  127MOL   C15933171   5.645   6.970   2.056  0.2049  0.5249 -0.0304
  127MOL   C16033172   5.673   6.945   1.908  0.6190  1.2781 -0.4425
  127MOL   C16133173   5.715   7.074   1.959  0.1933 -0.7266 -0.9502
  127MOL   C16233174   5.494   7.109   2.195  0.2637 -0.2501  0.1094
  127MOL   H16333175   5.436   6.996   2.023 -0.9260  2.4656  0.4535
  127MOL   H16433176   5.708   6.908   2.119 -0.2483 -1.0592 -1.1157
  127MOL   H16533177   5.589   6.963   1.841  0.3275 -0.2844 -0.5079
  127MOL   H16633178   5.747   6.870   1.881  0.7181  1.7760 -1.5985
  127MOL   H16733179   5.821   7.097   1.971 -0.4444  1.6328  0.3919
  127MOL   H16833180   5.656   7.159   1.930 -1.5605 -2.5387 -2.8126
  127MOL   H16933181   5.564   7.185   2.161 -0.6004  1.2623  1.5903
  127MOL   H17033182   5.524   7.074   2.294 -1.2280 -2.3763 -0.1464
  127MOL   C17133183   5.359   7.179   2.199 -0.1096 -0.1163  0.1772
  127MOL   C17233184   5.335   7.245   2.338 -0.1028 -0.3481 -0.0505
  127MOL   C17333185   5.206   7.225   2.401  0.6870  0.1507  0.0319
  127MOL   C17433186   5.325   7.151   2.460  0.1877 -0.1311 -0.1679
  127MOL   C17533187   5.346   7.277   2.077 -0.7189 -0.8352 -0.1543
  127MOL   H17633188   5.286   7.102   2.177 -1.7814  1.7212 -0.8232
  127MOL   H17733189   5.400   7.331   2.353  2.4539 -2.2326  0.1330
  127MOL   H17833190   5.153   7.299   2.460  0.9406  0.4165 -0.0727
  127MOL   H17933191   5.143   7.168   2.333  0.7810  0.4701 -0.3245
  127MOL   H18033192   5.328   7.044   2.439 -0.7177 -0.6593  2.2850
  127MOL   H18133193   5.356   7.175   2.561  1.3250 -3.0101  0.2025
  127MOL   H18233194   5.399   7.248   1.986  0.9174 -0.7297  0.7571
  127MOL   H18333195   5.399   7.369   2.101  0.2528 -1.6886  1.0171
  127MOL   C18433196   5.205   7.303   2.020 -0.2854  0.2463 -0.1957
  127MOL   C18533197   5.212   7.343   1.873  0.0745  0.0590 -0.5228
  127MOL   C18633198   5.118   7.286   1.766  0.5117 -0.3391  0.2032
  127MOL   C18733199   5.264   7.252   1.766  0.5240 -0.5788  0.4361
  127MOL   C18833200   5.118   7.399   2.103  0.3745  0.9792 -0.1683
  127MOL   H18933201   5.145   7.212   2.023  0.2357 -0.1531 -1.6342
  127MOL   H19033202   5.231   7.449   1.857  2.1607  0.0368  1.5517
  127MOL   H19133203   5.082   7.345   1.682  1.0348 -0.3241 -0.0095
  127MOL   H19233204   5.039   7.216   1.795  0.0823 -0.4561 -1.2197
  127MOL   H19333205   5.330   7.296   1.691  2.0811 -2.0159  0.9369
  127MOL   H19433206   5.282   7.148   1.791 -0.7623 -1.0682 -0.6183
  127MOL   H19533207   5.145   7.497   2.062 -0.8096  1.1379 -0.5706
  127MOL   H19633208   5.137   7.398   2.210  0.4789  1.4045 -0.1808
  127MOL   C19733209   4.965   7.381   2.071  0.5300 -0.1457  0.1476
  127MOL   C19833210   4.892   7.515   2.080 -0.0126  0.3931  0.3625
  127MOL   C19933211   4.787   7.558   1.977  0.4030 -0.1485 -0.1882
  127MOL   C20033212   4.928   7.608   1.973 -0.4230 -0.3141 -0.5995
  127MOL   C20133213   4.899   7.270   2.159 -0.0166  0.1933 -0.1202
  127MOL   H20233214   4.954   7.349   1.967 -1.3189  1.2311 -0.0981
  127MOL   H20333215   4.871   7.547   2.182 -1.1676 -0.5415  0.4421
  127MOL   H20433216   4.761   7.480   1.906 -0.1978 -0.8672  0.8144
  127MOL   H20533217   4.702   7.616   2.013 -0.3718 -0.6961 -1.0960
  127MOL   H20633218   4.996   7.576   1.894  0.8594 -0.2038  0.4564
  127MOL   H20733219   4.948   7.709   2.007 -0.8947 -0.7998  1.1611
  127MOL   H20833220   4.976   7.196   2.179 -0.3785 -0.6038 -1.6611
  127MOL   H20933221   4.889   7.315   2.258  2.4475  0.1306  0.1928
  127MOL   C21033222   4.767   7.194   2.122  0.4015 -0.1592  0.2588
  127MOL   C21133223   4.797   7.125   1.989  0.4722  0.2035  0.2767
  127MOL   C21233224   4.685   7.045   1.924 -0.8749  0.7397 -0.3325
  127MOL   C21333225   4.735   7.173   1.860  0.1954  1.0298 -0.2666
  127MOL   C21433226   4.736   7.090   2.234 -0.1083  0.4542 -0.5474
  127MOL   H21533227   4.684   7.263   2.107 -0.3538 -1.3687 -1.2554
  127MOL   H21633228   4.896   7.082   1.990 -0.0472 -1.0948 -1.6755
  127MOL   H21733229   4.711   6.964   1.857  1.9539  0.2474  1.2639
  127MOL   H21833230   4.580   7.053   1.952 -0.4797  2.6552  0.6605
  127MOL   H21933231   4.811   7.172   1.782  0.1868  1.0537 -0.2756
  127MOL   H22033232   4.676   7.264   1.867 -0.6490  0.6965 -2.6904
  127MOL   H22133233   4.655   7.023   2.203 -2.0404  1.5553  1.9126
  127MOL   H22233234   4.814   7.016   2.248 -0.7686 -0.1384  0.0248
  127MOL   C22333235   4.704   7.147   2.373 -0.4554  0.6367 -0.0371
  127MOL   C22433236   4.709   7.044   2.483  0.7541 -0.5255  1.0785
  127MOL   C22533237   4.831   7.011   2.559 -0.2469 -0.4237 -0.0735
  127MOL   C22633238   4.717   7.074   2.631  0.4408 -0.1113 -0.1783
  127MOL   C22733239   4.577   7.231   2.378  0.4006 -0.3210 -0.5445
  127MOL   H22833240   4.781   7.220   2.398 -1.0524  1.2817 -0.0608
  127MOL   H22933241   4.649   6.959   2.452  0.2087  0.7297 -1.5324
  127MOL   H23033242   4.914   7.081   2.562 -1.4067  1.0605 -1.7759
  127MOL   H23133243   4.844   6.915   2.609  2.9489  0.1272  0.2671
  127MOL   H23233244   4.650   7.008   2.686  0.0815  1.2145  0.9871
  127MOL   H23333245   4.733   7.174   2.669  2.2647 -0.6863  0.6437
  127MOL   H23433246   4.587   7.297   2.293 -1.0252  0.7271  0.0758
  127MOL   H23533247   4.495   7.162   2.361 -0.4720  0.9158 -1.3800
  127MOL   C23633248   4.544   7.331   2.493  0.6865  0.4309 -0.5761
  127MOL   C23733249   4.413   7.396   2.451  0.1950 -0.0308  0.1543
  127MOL   C23833250   4.276   7.326   2.466 -0.3040 -0.1841 -0.0319
  127MOL   C23933251   4.320   7.450   2.555  0.4265 -0.0285 -0.2350
  127MOL   C24033252   4.653   7.435   2.521  0.1515  0.7574  0.1418
  127MOL   H24133253   4.530   7.262   2.577 -0.5767 -0.8072 -1.7698
  127MOL   H24233254   4.415   7.465   2.367  1.4051 -1.3325 -0.9062
  127MOL   H24333255   4.217   7.340   2.376  3.2347 -0.3917 -2.4900
  127MOL   H24433256   4.271   7.225   2.506 -1.5771  0.6758  2.0442
  127MOL   H24533257   4.345   7.434   2.659  0.1931  0.0168 -0.1715
  127MOL   H24633258   4.256   7.536   2.534  0.1276 -0.5424 -1.5291
  127MOL   H24733259   4.748   7.384   2.536 -0.8509 -1.1367  0.1163
  127MOL   H24833260   4.656   7.493   2.428  1.1426  1.4260  0.5829
  127MOL   C24933261   4.638   7.523   2.650  0.0390 -1.0588  0.4220
  127MOL   C25033262   4.762   7.611   2.660 -0.0947  0.0014 -0.1951
  127MOL   C25133263   4.907   7.561   2.643  0.1180  0.5720  0.9917
  127MOL   C25233264   4.844   7.649   2.544  0.2181 -0.0105 -0.1249
  127MOL   C25333265   4.627   7.441   2.775  0.0255  0.3720  0.1305
  127MOL   H25433266   4.551   7.588   2.641  0.2732 -0.8026 -0.0018
  127MOL   H25533267   4.753   7.702   2.720  1.3663  0.8008 -1.1637
  127MOL   H25633268   4.982   7.593   2.715  2.2876  0.5543 -1.1969
  127MOL   H25733269   4.920   7.460   2.605 -0.9871  1.0265 -0.6611
  127MOL   H25833270   4.895   7.745   2.549  1.7380 -0.8187  0.2722
  127MOL   H25933271   4.837   7.600   2.447 -0.9285  1.1416 -0.6358
  127MOL   H26033272   4.635   7.509   2.859  1.6640  1.1178 -0.6021
  127MOL   H26133273   4.706   7.367   2.785  0.9921  1.3617 -0.0341
  127MOL   H26233274   4.534   7.384   2.784 -0.2130 -0.2701 -4.8766
  128MOL     C133275   6.200   6.420   3.869 -0.9649  0.2446 -0.3531
  128MOL     C233276   6.283   6.293   3.901  0.0235 -0.7156 -0.0867
  128MOL     C333277   6.224   6.185   3.991 -0.5728  0.1666 -0.6945
  128MOL     C433278   6.334   6.284   4.038  0.2287 -0.0614  0.3331
  128MOL     C533279   6.112   6.405   3.741  0.1258  0.0427 -0.0935
  128MOL     H633280   6.132   6.436   3.953 -3.5816 -0.9593 -2.1854
  128MOL     H733281   6.342   6.265   3.814  0.5802  0.3394 -0.0579
  128MOL     H833282   6.125   6.196   4.033 -0.4155 -1.4175  0.1052
  128MOL     H933283   6.246   6.081   3.968 -1.5781 -0.6331  1.8312
  128MOL    H1033284   6.432   6.239   4.055  0.3233  0.3098  0.7869
  128MOL    H1133285   6.301   6.354   4.115  0.0677 -0.7194  0.8793
  128MOL    H1233286   6.070   6.305   3.730 -1.7822  0.7827  0.2794
  128MOL    H1333287   6.180   6.423   3.658  0.9795 -0.5845  0.4481
  128MOL    H1433288   6.267   6.504   3.852 -1.2581  0.2801 -1.3403
  128MOL    C1533289   5.989   6.500   3.737  0.0398 -0.2965 -0.0775
  128MOL    C1633290   5.931   6.500   3.598  0.5694 -0.4647 -0.0959
  128MOL    C1733291   6.000   6.563   3.489 -0.2178 -0.8441 -0.4658
  128MOL    C1833292   5.867   6.619   3.526 -0.1363 -0.0147  0.1160
  128MOL    C1933293   5.881   6.458   3.848  0.0974  0.0914  0.3493
  128MOL    H2033294   6.022   6.603   3.752  1.2665 -0.5170 -1.1737
  128MOL    H2133295   5.877   6.405   3.592 -0.8096  0.3622 -1.0205
  128MOL    H2233296   6.006   6.496   3.403  0.7032 -1.0138 -0.2659
  128MOL    H2333297   6.091   6.614   3.518  0.1089 -2.3154  1.1876
  128MOL    H2433298   5.857   6.715   3.576 -1.3268  0.7297 -1.4817
  128MOL    H2533299   5.781   6.586   3.467 -1.0708  0.1384  1.3704
  128MOL    H2633300   5.927   6.419   3.939 -1.7498 -0.1944  1.1805
  128MOL    H2733301   5.827   6.370   3.812  1.9508  0.1924 -2.8060
  128MOL    C2833302   5.785   6.571   3.893 -0.1202 -0.1393  0.5789
  128MOL    C2933303   5.860   6.674   3.977 -0.1004 -0.4979  0.1109
  128MOL    C3033304   5.927   6.793   3.924  0.8798  0.4332  0.0064
  128MOL    C3133305   5.802   6.810   3.996  0.0670 -0.5679 -0.4047
  128MOL    C3233306   5.670   6.507   3.971 -0.3914  0.1977  0.2445
  128MOL    H3333307   5.737   6.621   3.808  1.7415 -2.4303 -1.9347
  128MOL    H3433308   5.892   6.636   4.074  2.4797  1.4554  0.0665
  128MOL    H3533309   5.917   6.815   3.818  1.5359  0.5985 -0.0195
  128MOL    H3633310   6.015   6.833   3.975 -1.3621 -0.4636  4.9066
  128MOL    H3733311   5.722   6.855   3.938  0.4343 -1.6173 -1.7306
  128MOL    H3833312   5.807   6.854   4.096  3.4597 -0.5251 -0.5374
  128MOL    H3933313   5.617   6.585   4.024  0.3157  0.6528  0.2793
  128MOL    H4033314   5.710   6.442   4.049 -2.6633 -0.7203  0.6969
  128MOL    C4133315   5.565   6.426   3.899 -0.1108  0.0817 -0.0768
  128MOL    C4233316   5.498   6.517   3.797 -0.3795  0.7176  0.7634
  128MOL    C4333317   5.418   6.450   3.693  0.7603 -0.1884 -0.1820
  128MOL    C4433318   5.550   6.512   3.648  0.0267 -0.5276 -0.0301
  128MOL    C4533319   5.456   6.379   3.999  0.1794 -0.0349 -0.1649
  128MOL    H4633320   5.615   6.347   3.844  1.3095  1.0503 -0.2209
  128MOL    H4733321   5.460   6.613   3.832 -2.9585  0.0219 -0.0281
  128MOL    H4833322   5.408   6.342   3.704  0.8606 -0.0423  1.6209
  128MOL    H4933323   5.328   6.501   3.660  0.5009  0.7902  1.9123
  128MOL    H5033324   5.542   6.604   3.590  0.7004  0.2397  1.0698
  128MOL    H5133325   5.626   6.442   3.615  1.2640  0.4681  0.6364
  128MOL    H5233326   5.369   6.354   3.938  0.9898 -0.3157 -1.2057
  128MOL    H5333327   5.424   6.466   4.057  0.7296  0.7896 -1.0866
  128MOL    C5433328   5.497   6.256   4.086  0.0868  0.4581  0.1992
  128MOL    C5533329   5.387   6.238   4.191  0.5701 -0.3821 -0.5179
  128MOL    C5633330   5.387   6.325   4.316  0.5453  0.3469 -0.1804
  128MOL    C5733331   5.418   6.181   4.333 -0.2713  0.4740  0.3324
  128MOL    C5833332   5.523   6.131   3.997 -0.3193 -0.4565  0.2441
  128MOL    H5933333   5.592   6.275   4.135  0.7990 -0.0470 -0.9713
  128MOL    H6033334   5.286   6.217   4.155  0.8143 -0.0677 -1.3862
  128MOL    H6133335   5.468   6.397   4.311  0.4748  0.4102 -0.4321
  128MOL    H6233336   5.296   6.352   4.369  0.8711 -0.5397  0.8624
  128MOL    H6333337   5.342   6.112   4.370 -1.3549  1.5234  0.0709
  128MOL    H6433338   5.522   6.150   4.339 -0.2597  0.0179 -1.9858
  128MOL    H6533339   5.450   6.141   3.917  0.9351 -0.2048 -0.8949
  128MOL    H6633340   5.611   6.137   3.932 -1.4451  1.7720 -1.1342
  128MOL    C6733341   5.517   5.987   4.050  0.3961 -0.3613 -0.1502
  128MOL    C6833342   5.627   5.954   4.151 -0.6676  0.7122 -0.7417
  128MOL    C6933343   5.695   5.817   4.182 -0.9961  1.2946 -0.1084
  128MOL    C7033344   5.773   5.931   4.113 -0.5323  0.9118 -0.1109
  128MOL    C7133345   5.374   5.951   4.086 -0.4930 -0.2655 -0.8063
  128MOL    H7233346   5.548   5.937   3.959  1.2936 -0.5094  0.2316
  128MOL    H7333347   5.609   6.002   4.247 -0.9683  0.0025 -0.4358
  128MOL    H7433348   5.730   5.796   4.282  0.0871  1.2472 -0.4857
  128MOL    H7533349   5.683   5.726   4.122 -0.3427 -0.9455  3.0667
  128MOL    H7633350   5.794   5.931   4.006  1.4748 -0.5915  0.2571
  128MOL    H7733351   5.822   6.005   4.176 -0.7535  1.0507 -0.1008
  128MOL    H7833352   5.308   6.019   4.032  0.0485 -1.7077 -3.3861
  128MOL    H7933353   5.353   5.972   4.190 -3.2226  0.1516 -1.4033
  128MOL    C8033354   5.332   5.807   4.045 -0.0850 -0.1849  0.0165
  128MOL    C8133355   5.331   5.786   3.894 -0.7015 -0.8030 -0.5422
  128MOL    C8233356   5.348   5.643   3.848  0.0432 -0.3818  0.2981
  128MOL    C8333357   5.462   5.737   3.818  0.7640 -0.3188 -0.2132
  128MOL    C8433358   5.187   5.765   4.099  0.3337  0.0532 -0.3107
  128MOL    H8533359   5.406   5.742   4.092  0.9977  1.8969  1.2237
  128MOL    H8633360   5.259   5.840   3.832 -0.5969  0.6738  0.6037
  128MOL    H8733361   5.392   5.573   3.919  0.7410  0.8666  1.1285
  128MOL    H8833362   5.295   5.600   3.763 -2.1673  3.0429 -0.1652
  128MOL    H8933363   5.547   5.749   3.884 -0.7227 -0.7608  1.8223
  128MOL    H9033364   5.472   5.782   3.719 -2.0805  0.5975 -0.1419
  128MOL    H9133365   5.109   5.827   4.054  3.3084  3.0154 -1.5021
  128MOL    H9233366   5.169   5.662   4.066  1.4310  0.0107 -0.7856
  128MOL    C9333367   5.177   5.775   4.256 -0.0856 -0.1477  0.6977
  128MOL    C9433368   5.039   5.757   4.294 -0.0265  0.2973  0.0046
  128MOL    C9533369   4.965   5.839   4.398 -0.0607 -0.0472 -0.1935
  128MOL    C9633370   4.926   5.845   4.254 -0.1299  0.6724 -0.0316
  128MOL    C9733371   5.272   5.671   4.320  0.1287 -0.5383  0.4982
  128MOL    H9833372   5.210   5.868   4.301 -0.9792  1.2613 -1.4684
  128MOL    H9933373   5.015   5.651   4.292  0.2576  0.1699  1.7184
  128MOL   H10033374   4.907   5.791   4.477 -0.7990  1.4766  0.2182
  128MOL   H10133375   5.028   5.920   4.435 -0.5885  0.2371  0.0917
  128MOL   H10233376   4.835   5.793   4.225  0.6140 -0.4500 -0.3730
  128MOL   H10333377   4.948   5.933   4.194  1.3008 -0.3229 -1.0003
  128MOL   H10433378   5.363   5.651   4.263 -1.0273 -2.7613 -0.6623
  128MOL   H10533379   5.218   5.576   4.319 -0.4692 -0.1999  0.6756
  128MOL   C10633380   5.303   5.695   4.464  0.1502  0.2168  0.3610
  128MOL   C10733381   5.346   5.571   4.547  0.0009  0.0101  0.0757
  128MOL   C10833382   5.309   5.559   4.692 -0.0030  0.3424 -0.2212
  128MOL   C10933383   5.235   5.482   4.595  0.0646  0.3244  0.1247
  128MOL   C11033384   5.427   5.788   4.479  0.5511 -0.3391 -0.1144
  128MOL   H11133385   5.212   5.734   4.510  0.4099  1.8856 -0.4787
  128MOL   H11233386   5.443   5.524   4.535 -0.5378 -1.4825  1.3453
  128MOL   H11333387   5.364   5.504   4.768  2.7402  3.4687  0.1662
  128MOL   H11433388   5.261   5.642   4.742  1.6537  0.3505  1.3899
  128MOL   H11533389   5.132   5.513   4.578  0.0566  0.2315  0.0065
  128MOL   H11633390   5.231   5.374   4.603  2.3767  0.1025 -1.2419
  128MOL   H11733391   5.512   5.731   4.443 -0.6046 -0.9962 -1.8661
  128MOL   H11833392   5.409   5.874   4.415 -1.5024 -0.6009  0.0580
  128MOL   C11933393   5.468   5.840   4.619 -0.4777 -0.4323 -0.3655
  128MOL   C12033394   5.595   5.914   4.605  0.0644  0.5006 -0.6363
  128MOL   C12133395   5.730   5.869   4.547 -0.1227 -0.1434 -0.1665
  128MOL   C12233396   5.713   5.874   4.691  0.3833  0.5639 -0.1116
  128MOL   C12333397   5.358   5.919   4.693  0.2446 -0.6040  0.2943
  128MOL   H12433398   5.491   5.748   4.671  1.0108  0.2722  0.2529
  128MOL   H12533399   5.575   6.019   4.586 -0.8349  0.1619 -1.6122
  128MOL   H12633400   5.794   5.945   4.504 -0.0563  0.4985  1.0303
  128MOL   H12733401   5.749   5.766   4.519  0.6154  0.8367 -3.4141
  128MOL   H12833402   5.709   5.778   4.742 -1.0127 -0.4286 -2.0101
  128MOL   H12933403   5.778   5.943   4.745  1.1658  1.1615 -1.7738
  128MOL   H13033404   5.336   6.007   4.632  0.5795 -0.8896 -0.2490
  128MOL   H13133405   5.276   5.847   4.687  0.3056 -0.4614 -3.4064
  128MOL   C13233406   5.394   5.970   4.833  0.0837  0.2261 -0.2237
  128MOL   C13333407   5.386   5.867   4.944  0.8005  0.6112 -0.0532
  128MOL   C13433408   5.463   5.879   5.074  0.0272 -0.0848 -0.3717
  128MOL   C13533409   5.499   5.777   4.968 -0.1395 -0.0084  0.2759
  128MOL   C13633410   5.300   6.092   4.866 -0.6302  1.4350  0.0982
  128MOL   H13733411   5.494   6.011   4.821  0.1917  0.1832  0.4990
  128MOL   H13833412   5.282   5.840   4.966  0.7614 -1.0033 -2.0741
  128MOL   H13933413   5.523   5.969   5.074 -1.3459  0.8758  1.3222
  128MOL   H14033414   5.422   5.848   5.170  0.6950 -3.3603 -1.0868
  128MOL   H14133415   5.602   5.793   4.936 -0.3918 -0.7975 -0.9600
  128MOL   H14233416   5.465   5.675   4.983 -1.3457 -0.0185 -2.3462
  128MOL   H14333417   5.204   6.073   4.818  0.0318 -1.9547 -0.0334
  128MOL   H14433418   5.282   6.102   4.973 -1.3477  0.1227  0.1156
  128MOL   C14533419   5.345   6.227   4.805  0.9271  0.6385  0.1354
  128MOL   C14633420   5.227   6.319   4.770  0.3253 -0.1258  0.1169
  128MOL   C14733421   5.227   6.415   4.653 -0.7370 -0.0961 -0.4424
  128MOL   C14833422   5.127   6.297   4.657  0.3811  0.5457  0.0608
  128MOL   C14933423   5.452   6.293   4.882  0.6767  0.8334 -0.4604
  128MOL   H15033424   5.388   6.189   4.712 -2.1668 -0.5431 -0.8553
  128MOL   H15133425   5.186   6.364   4.859  1.8425  1.3243  0.0957
  128MOL   H15233426   5.192   6.514   4.682  0.3113  0.1775 -0.0896
  128MOL   H15333427   5.307   6.408   4.580 -0.2660  2.5144 -0.1959
  128MOL   H15433428   5.141   6.203   4.604 -0.2494  0.3445  0.2469
  128MOL   H15533429   5.024   6.314   4.691  1.0029  0.2776  2.1424
  128MOL   H15633430   5.414   6.321   4.980 -0.7038  1.9144 -1.2958
  128MOL   H15733431   5.529   6.220   4.908 -1.9193 -1.4591  0.9432
  128MOL   C15833432   5.529   6.412   4.813  0.0872 -0.7263  0.0488
  128MOL   C15933433   5.660   6.365   4.745 -0.3033  0.1377  0.7055
  128MOL   C16033434   5.658   6.290   4.611  0.1314 -0.3581 -0.4185
  128MOL   C16133435   5.708   6.434   4.623  0.3468  0.5219 -0.1970
  128MOL   C16233436   5.574   6.510   4.925 -0.2179  0.8470  0.1722
  128MOL   H16333437   5.465   6.465   4.743  0.5957  0.4629  0.4553
  128MOL   H16433438   5.734   6.327   4.815  1.8530  0.2345 -1.4622
  128MOL   H16533439   5.565   6.274   4.557 -0.2957  0.0203  0.2097
  128MOL   H16633440   5.733   6.212   4.597 -0.3560 -0.8534 -0.2826
  128MOL   H16733441   5.815   6.442   4.607  0.6105  3.1327  2.5432
  128MOL   H16833442   5.643   6.509   4.579 -0.4254  0.5331  0.9650
  128MOL   H16933443   5.651   6.457   4.982 -0.8992 -2.1080 -1.5618
  128MOL   H17033444   5.504   6.519   5.009 -0.1956 -1.5733  0.4721
  128MOL   C17133445   5.618   6.649   4.875  0.5088 -0.9155  0.1570
  128MOL   C17233446   5.494   6.728   4.831 -0.2345  0.2397 -0.2002
  128MOL   C17333447   5.506   6.857   4.747  0.3406 -0.2960 -0.0392
  128MOL   C17433448   5.431   6.745   4.692  0.1332 -0.1485  0.1071
  128MOL   C17533449   5.692   6.736   4.984  0.0001  0.4228 -0.2069
  128MOL   H17633450   5.678   6.642   4.784  1.0811  1.9330  0.2540
  128MOL   H17733451   5.423   6.728   4.913 -1.5764 -0.5966 -1.3293
  128MOL   H17833452   5.460   6.948   4.786  2.0166  0.4174  0.3211
  128MOL   H17933453   5.606   6.874   4.707 -0.2455  0.3940 -1.2404
  128MOL   H18033454   5.471   6.672   4.621  2.2173 -0.0422  1.1357
  128MOL   H18133455   5.322   6.742   4.684  0.3603  1.2833 -6.0818
  128MOL   H18233456   5.628   6.747   5.072  0.8295 -1.0742  0.6063
  128MOL   H18333457   5.706   6.841   4.957  1.0695  0.1205 -0.8536
  128MOL   C18433458   5.830   6.680   5.035 -0.1452  1.3604  0.6170
  128MOL   C18533459   5.860   6.737   5.166  0.2481  0.6405  0.2539
  128MOL   C18633460   5.968   6.666   5.255  0.7346 -0.2766  0.3645
  128MOL   C18733461   5.823   6.678   5.302  0.4054 -0.0976 -0.4001
  128MOL   C18833462   5.947   6.698   4.939  0.4727  0.1199  0.9563
  128MOL   H18933463   5.819   6.574   5.058  1.6697  1.2720  1.1520
  128MOL   H19033464   5.873   6.845   5.157  0.4296  0.4216 -2.2724
  128MOL   H19133465   6.031   6.733   5.313  0.8177 -0.2829  0.2812
  128MOL   H19233466   5.999   6.563   5.240  1.5312  0.1707 -1.1899
  128MOL   H19333467   5.793   6.749   5.378  0.5173  1.2061 -1.5669
  128MOL   H19433468   5.775   6.580   5.303  0.2858 -0.0482 -1.1380
  128MOL   H19533469   5.991   6.797   4.948  1.0713 -0.0167 -0.3896
  128MOL   H19633470   5.900   6.708   4.841  1.3065 -1.2488  0.3994
  128MOL   C19733471   6.052   6.589   4.930 -0.1357  0.1103 -0.1418
  128MOL   C19833472   6.187   6.646   4.909 -0.0181 -0.2700  0.4516
  128MOL   C19933473   6.307   6.595   4.998  1.2629 -0.1241 -0.8764
  128MOL   C20033474   6.255   6.735   5.020  0.3109  0.2248  0.0889
  128MOL   C20133475   6.017   6.495   4.814 -0.5525  0.0290 -0.1063
  128MOL   H20233476   6.050   6.526   5.019 -0.0165 -0.4127 -0.5068
  128MOL   H20333477   6.198   6.696   4.813  1.1054 -2.4145 -0.5907
  128MOL   H20433478   6.285   6.515   5.068 -2.9284 -0.8896 -2.9235
  128MOL   H20533479   6.394   6.578   4.935 -0.3558  0.2591 -3.2708
  128MOL   H20633480   6.209   6.759   5.115  0.0425  0.5318 -0.1186
  128MOL   H20733481   6.319   6.811   4.977 -0.8255  0.7289 -0.7251
  128MOL   H20833482   5.913   6.464   4.827  0.0429 -1.9155  0.0992
  128MOL   H20933483   6.014   6.546   4.718  1.5735 -1.6749 -1.1172
  128MOL   C21033484   6.100   6.364   4.787  0.2584  0.0831 -0.6202
  128MOL   C21133485   6.059   6.247   4.882 -0.7094  0.9535  0.5648
  128MOL   C21233486   6.154   6.146   4.928 -0.2372 -0.1910  0.3288
  128MOL   C21333487   6.073   6.219   5.029  0.3168 -0.0961  0.0394
  128MOL   C21433488   6.106   6.308   4.644 -0.4726 -0.1781  0.5957
  128MOL   H21533489   6.199   6.403   4.814 -0.7047  1.1050  1.6064
  128MOL   H21633490   5.968   6.206   4.840  0.9285  0.7077 -2.9481
  128MOL   H21733491   6.124   6.043   4.908 -1.7791  0.0614  1.3106
  128MOL   H21833492   6.259   6.174   4.918 -0.4265  0.4298  0.0501
  128MOL   H21933493   5.997   6.162   5.083  0.7310 -0.3935  0.3205
  128MOL   H22033494   6.129   6.290   5.091  1.5498 -3.4329  2.9705
  128MOL   H22133495   6.160   6.213   4.637 -0.5492 -0.1984  0.2488
  128MOL   H22233496   6.002   6.277   4.630 -0.1185 -0.3937 -1.7668
  128MOL   C22333497   6.134   6.402   4.527 -0.2181 -0.5948 -0.2597
  128MOL   C22433498   6.117   6.329   4.391  0.2526  0.4069 -0.7454
  128MOL   C22533499   5.989   6.274   4.323  0.6863  0.1533  0.4365
  128MOL   C22633500   6.047   6.404   4.283  0.7314 -0.0055  0.1323
  128MOL   C22733501   6.275   6.465   4.535 -0.2327 -0.1682 -0.2795
  128MOL   H22833502   6.070   6.490   4.533  1.6640  0.9429 -1.8963
  128MOL   H22933503   6.200   6.264   4.363 -1.2239 -0.5443 -3.0523
  128MOL   H23033504   5.901   6.257   4.385  1.2156  0.4469  1.2766
  128MOL   H23133505   6.012   6.184   4.267 -1.7895  0.3943 -1.0131
  128MOL   H23233506   6.099   6.420   4.189 -0.1590  1.7571 -0.0821
  128MOL   H23333507   6.003   6.499   4.312  2.1230  0.8099 -0.3943
  128MOL   H23433508   6.289   6.512   4.632 -1.2050 -1.5400  0.5460
  128MOL   H23533509   6.343   6.380   4.527 -0.1244  0.0292 -1.6310
  128MOL   C23633510   6.311   6.565   4.430 -0.2320 -0.2605  0.1087
  128MOL   C23733511   6.459   6.595   4.425 -0.2769 -0.0624 -0.8470
  128MOL   C23833512   6.558   6.501   4.371 -0.1583 -0.0268  0.2715
  128MOL   C23933513   6.528   6.624   4.284 -0.2329 -0.4788 -0.0124
  128MOL   C24033514   6.233   6.696   4.430  0.2028 -0.0081  0.1126
  128MOL   H24133515   6.285   6.519   4.334 -1.7783  1.8424 -0.5245
  128MOL   H24233516   6.494   6.643   4.516 -0.2069 -0.0175 -0.8979
  128MOL   H24333517   6.651   6.486   4.425  0.9967 -0.0394 -1.6829
  128MOL   H24433518   6.511   6.408   4.339 -2.0591  0.6883  0.8926
  128MOL   H24533519   6.474   6.606   4.191 -1.2224 -0.0086  0.4651
  128MOL   H24633520   6.613   6.692   4.276  3.3588 -4.5394  1.9654
  128MOL   H24733521   6.128   6.681   4.456  0.3679  0.5352  1.1092
  128MOL   H24833522   6.272   6.747   4.518  0.8247  1.0099 -0.7349
  128MOL   C24933523   6.240   6.792   4.315 -0.2978 -0.3729  0.4413
  128MOL   C25033524   6.220   6.931   4.352 -0.8098  0.1818 -0.5126
  128MOL   C25133525   6.334   7.000   4.435 -0.3019  0.9473 -0.2459
  128MOL   C25233526   6.300   7.039   4.295  0.6724 -0.1646  0.0495
  128MOL   C25333527   6.152   6.761   4.193  0.2049  0.3702 -0.3770
  128MOL   H25433528   6.341   6.795   4.272 -1.2829 -1.8499 -2.1177
  128MOL   H25533529   6.117   6.953   4.378 -0.8914  0.0030 -0.6838
  128MOL   H25633530   6.309   7.069   4.516  0.0523  0.7722  0.0139
  128MOL   H25733531   6.434   6.963   4.455 -0.3886  0.2111 -1.1645
  128MOL   H25833532   6.238   7.128   4.283 -1.1419 -1.3295  0.4816
  128MOL   H25933533   6.381   7.021   4.225  1.2687 -3.0480  1.4093
  128MOL   H26033534   6.047   6.745   4.216  0.0976  1.8926  0.2348
  128MOL   H26133535   6.192   6.672   4.144 -0.3514  0.0210 -0.1927
  128MOL   H26233536   6.162   6.835   4.114  3.8574  0.3255 -0.0244
  129MOL     C133537   2.307   2.372   5.664 -0.2399  0.7775  0.2713
  129MOL     C233538   2.352   2.521   5.632  0.0588  0.0927 -0.5514
  129MOL     C333539   2.438   2.582   5.735  0.0928 -0.3053  0.6996
  129MOL     C433540   2.300   2.640   5.708 -0.5675  0.2197  0.0056
  129MOL     C533541   2.419   2.268   5.644  0.3216 -0.1245  0.3627
  129MOL     H633542   2.260   2.359   5.761  0.8202 -2.3399  0.4168
  129MOL     H733543   2.388   2.543   5.532  0.0132  1.6633 -0.2348
  129MOL     H833544   2.447   2.540   5.835  0.1652 -2.9467 -0.3904
  129MOL     H933545   2.531   2.619   5.694 -0.3025 -1.5831 -1.4046
  129MOL    H1033546   2.298   2.729   5.646 -1.7847 -0.2308 -0.6114
  129MOL    H1133547   2.214   2.619   5.770  0.4078 -1.3498  0.8578
  129MOL    H1233548   2.453   2.308   5.548 -2.1089  1.6943  0.2076
  129MOL    H1333549   2.382   2.169   5.618  2.9877 -1.6219  2.0918
  129MOL    H1433550   2.239   2.344   5.584 -0.8008 -1.3115  1.4462
  129MOL    C1533551   2.525   2.263   5.757 -0.8771  0.7588  0.7168
  129MOL    C1633552   2.468   2.199   5.886  0.3001  0.4984  0.1036
  129MOL    C1733553   2.549   2.116   5.979  1.0767  0.0124  0.7694
  129MOL    C1833554   2.439   2.051   5.902 -0.5619 -0.0673  0.3404
  129MOL    C1933555   2.655   2.188   5.706  0.5816  0.1795 -0.4776
  129MOL    H2033556   2.555   2.366   5.781  3.9686 -0.1951 -0.7361
  129MOL    H2133557   2.398   2.266   5.936 -0.2724  0.1966 -0.2910
  129MOL    H2233558   2.521   2.135   6.083 -0.1399  2.9592 -0.0716
  129MOL    H2333559   2.656   2.100   5.962  1.2843  1.5254  0.6457
  129MOL    H2433560   2.464   1.984   5.821  0.1843  0.0696  0.4523
  129MOL    H2533561   2.346   2.022   5.950 -1.9313  1.8946 -1.0783
  129MOL    H2633562   2.634   2.083   5.685  1.0035 -0.4775  2.2714
  129MOL    H2733563   2.730   2.179   5.784  2.2465 -1.3119 -2.2025
  129MOL    C2833564   2.729   2.239   5.580  0.7531  0.0088  0.3554
  129MOL    C2933565   2.852   2.164   5.548  0.5524 -0.1143  0.0986
  129MOL    C3033566   2.856   2.020   5.509 -0.6282  0.0177  0.6444
  129MOL    C3133567   2.905   2.124   5.414 -0.4046 -0.2499  0.5092
  129MOL    C3233568   2.751   2.397   5.579 -0.1206 -0.1795 -0.5072
  129MOL    H3333569   2.661   2.223   5.496  0.0190 -1.6521  1.2475
  129MOL    H3433570   2.931   2.194   5.616 -1.6112  3.3900  1.1927
  129MOL    H3533571   2.768   1.959   5.485  1.4107 -2.1430 -1.6053
  129MOL    H3633572   2.933   1.960   5.556  0.2114  1.4963  1.1975
  129MOL    H3733573   2.842   2.173   5.339  0.1890  0.0720  0.2123
  129MOL    H3833574   3.010   2.147   5.397  0.0622 -1.3351  1.8645
  129MOL    H3933575   2.830   2.412   5.652  0.8202  0.7999 -1.7045
  129MOL    H4033576   2.664   2.451   5.618  0.9023  1.7721 -0.8822
  129MOL    C4133577   2.784   2.465   5.448 -0.1053 -0.7888  0.1937
  129MOL    C4233578   2.814   2.612   5.483 -0.1166 -0.0258 -0.1851
  129MOL    C4333579   2.925   2.692   5.419 -0.4320 -0.3048 -0.4028
  129MOL    C4433580   2.942   2.636   5.560 -0.2447 -0.4062  0.6804
  129MOL    C4533581   2.670   2.458   5.340 -0.0385  0.1284 -0.0515
  129MOL    H4633582   2.876   2.415   5.418  0.3974 -0.2128  0.7373
  129MOL    H4733583   2.731   2.676   5.512  2.2632  2.0494  2.3108
  129MOL    H4833584   2.993   2.651   5.345 -0.0639 -2.0209  0.8659
  129MOL    H4933585   2.918   2.800   5.407  0.3808 -0.0086  1.6282
  129MOL    H5033586   2.941   2.703   5.645 -0.4119 -1.2192  1.3170
  129MOL    H5133587   3.027   2.567   5.560  0.7259  0.7792  0.9877
  129MOL    H5233588   2.590   2.521   5.379  0.5541  0.9393 -0.1124
  129MOL    H5333589   2.637   2.356   5.325  2.0006 -0.3790 -1.3690
  129MOL    C5433590   2.702   2.512   5.199 -0.8000 -0.3521  0.6233
  129MOL    C5533591   2.772   2.408   5.120 -0.8720  0.2038  0.5993
  129MOL    C5633592   2.919   2.382   5.144 -0.3204  0.0326  0.2109
  129MOL    C5733593   2.865   2.446   5.013  0.4626 -0.4604 -0.3642
  129MOL    C5833594   2.576   2.564   5.129 -0.3750 -0.8415  0.9941
  129MOL    H5933595   2.770   2.595   5.217  1.4963 -2.4400  1.8760
  129MOL    H6033596   2.706   2.329   5.083  0.3535 -0.7927  0.4864
  129MOL    H6133597   2.969   2.444   5.218 -0.6729  1.0481 -0.3876
  129MOL    H6233598   2.946   2.278   5.152 -1.8266 -0.2130  2.5969
  129MOL    H6333599   2.880   2.384   4.925  1.4137  1.3113 -1.4844
  129MOL    H6433600   2.870   2.553   4.998  0.4944 -0.1360  1.7771
  129MOL    H6533601   2.545   2.489   5.056 -0.5398  0.2996 -0.1126
  129MOL    H6633602   2.490   2.575   5.195 -0.7609  0.4235  0.2850
  129MOL    C6733603   2.605   2.692   5.048 -0.2680 -0.1723  0.6723
  129MOL    C6833604   2.508   2.711   4.940 -0.0659  0.4139  0.7163
  129MOL    C6933605   2.553   2.746   4.810  0.7577  0.1221 -0.5400
  129MOL    C7033606   2.500   2.607   4.834 -0.6333 -0.6779 -0.1475
  129MOL    C7133607   2.599   2.818   5.135  0.2542  0.1694  0.2933
  129MOL    H7233608   2.698   2.676   4.994  1.0612  2.8599  1.9706
  129MOL    H7333609   2.408   2.734   4.974  0.1031  0.6112  1.0804
  129MOL    H7433610   2.482   2.816   4.765  0.0181  1.1552  2.1270
  129MOL    H7533611   2.659   2.756   4.788  1.1459  1.0294  1.5887
  129MOL    H7633612   2.580   2.534   4.842  0.3531  0.5523  1.6230
  129MOL    H7733613   2.410   2.585   4.777 -1.9947  0.9582  1.3007
  129MOL    H7833614   2.633   2.792   5.235  1.6575 -0.3249 -0.2809
  129MOL    H7933615   2.498   2.839   5.169  1.9937  1.7664  4.8000
  129MOL    C8033616   2.671   2.942   5.079 -0.3570 -0.5983 -0.4530
  129MOL    C8133617   2.821   2.923   5.080  0.5186 -0.7265 -0.1936
  129MOL    C8233618   2.909   3.007   4.999 -0.2248 -0.4043  0.0552
  129MOL    C8333619   2.899   2.863   4.961 -0.4379  0.1269  0.1652
  129MOL    C8433620   2.628   3.060   5.176  0.3207  0.0348 -0.1969
  129MOL    H8533621   2.646   2.974   4.977 -4.4642 -0.1541  0.6165
  129MOL    H8633622   2.858   2.913   5.182  0.3047  1.0208  0.0714
  129MOL    H8733623   2.996   3.042   5.054  0.5350 -0.1307 -1.2872
  129MOL    H8833624   2.879   3.080   4.924  2.3360  0.3659 -0.2781
  129MOL    H8933625   2.834   2.843   4.876  1.0745 -1.7393 -0.5762
  129MOL    H9033626   2.981   2.792   4.974 -0.6804 -0.6175 -2.2522
  129MOL    H9133627   2.625   3.024   5.279 -0.1042 -0.2699 -0.3114
  129MOL    H9233628   2.703   3.138   5.181  0.9648 -0.5065 -1.3572
  129MOL    C9333629   2.492   3.125   5.148 -0.0899  0.1239 -0.5305
  129MOL    C9433630   2.427   3.189   5.266 -0.3886  0.1744 -0.4472
  129MOL    C9533631   2.274   3.201   5.287  0.1330  0.3323  0.0845
  129MOL    C9633632   2.359   3.101   5.368 -0.0508  0.3365  0.6988
  129MOL    C9733633   2.499   3.230   5.036 -0.2504 -0.0296  0.1721
  129MOL    H9833634   2.416   3.051   5.123 -1.1614  1.2168 -0.5347
  129MOL    H9933635   2.482   3.273   5.308 -0.4712  0.1466 -0.2818
  129MOL   H10033636   2.241   3.296   5.331  0.5432  0.3012  0.4583
  129MOL   H10133637   2.201   3.157   5.218 -0.8590 -0.2260  1.4644
  129MOL   H10233638   2.378   3.128   5.471  0.0984 -0.6202  0.9295
  129MOL   H10333639   2.331   2.998   5.343  0.2343  0.2791  0.6191
  129MOL   H10433640   2.590   3.211   4.978 -0.5100  0.5887 -0.4475
  129MOL   H10533641   2.509   3.327   5.084 -0.4851  2.3238 -4.2475
  129MOL   C10633642   2.377   3.242   4.940 -0.3358 -0.1046  0.1561
  129MOL   C10733643   2.383   3.368   4.851 -0.0285 -0.1020 -0.3549
  129MOL   C10833644   2.263   3.445   4.792 -0.0717 -0.5650  0.5273
  129MOL   C10933645   2.354   3.506   4.896  0.3657 -0.5026  0.2731
  129MOL   C11033646   2.377   3.116   4.845  0.3999 -0.5930  0.0434
  129MOL   H11133647   2.282   3.246   4.995 -0.8905 -2.7201 -0.5181
  129MOL   H11233648   2.475   3.367   4.792  0.0853 -2.3991 -0.2014
  129MOL   H11333649   2.263   3.483   4.690  1.3887 -0.1306  0.6772
  129MOL   H11433650   2.165   3.407   4.821 -1.4941  1.5955 -1.2623
  129MOL   H11533651   2.325   3.515   5.001 -3.3393 -1.1153 -0.5990
  129MOL   H11633652   2.416   3.583   4.853  2.4617 -1.8847  0.7616
  129MOL   H11733653   2.477   3.118   4.800  0.7428  1.0694  0.8138
  129MOL   H11833654   2.386   3.022   4.899 -0.5434 -0.4581  0.4395
  129MOL   C11933655   2.278   3.100   4.737  0.0794 -0.2388 -0.2290
  129MOL   C12033656   2.331   3.011   4.625  0.2832  0.0809  0.5467
  129MOL   C12133657   2.454   3.049   4.551  0.3016  0.6698 -0.5951
  129MOL   C12233658   2.322   3.048   4.473 -0.9254  0.6499 -0.1132
  129MOL   C12333659   2.146   3.054   4.800 -0.8961  0.0560 -0.1385
  129MOL   H12433660   2.251   3.198   4.696  0.7978  0.0280 -0.0584
  129MOL   H12533661   2.329   2.904   4.648 -1.3633  0.4127  2.0268
  129MOL   H12633662   2.526   2.973   4.519  1.7596  0.6309  2.5515
  129MOL   H12733663   2.491   3.151   4.559 -3.0372  2.0330 -1.6477
  129MOL   H12833664   2.277   3.140   4.436 -2.1064 -0.0195 -0.3739
  129MOL   H12933665   2.289   2.965   4.411  0.4358 -0.7397  0.9460
  129MOL   H13033666   2.145   2.945   4.803  0.1651  0.0304 -0.4462
  129MOL   H13133667   2.143   3.084   4.905  1.2099 -0.4577  0.0982
  129MOL   C13233668   2.013   3.115   4.743  0.4480  0.1724  0.4195
  129MOL   C13333669   1.907   3.111   4.848 -0.6338 -0.4412 -0.1292
  129MOL   C13433670   1.817   3.238   4.876 -0.5285 -0.2413 -0.2443
  129MOL   C13533671   1.921   3.201   4.968 -0.0198 -0.4346  0.3445
  129MOL   C13633672   1.976   3.044   4.613 -0.0871  1.4287 -0.1844
  129MOL   H13733673   2.037   3.218   4.719  0.9186  0.0889  0.5227
  129MOL   H13833674   1.877   3.011   4.876 -0.0782 -0.3721  0.7254
  129MOL   H13933675   1.840   3.329   4.821  0.9733 -1.4433 -1.6689
  129MOL   H14033676   1.713   3.223   4.903 -0.9696  1.6207 -0.8454
  129MOL   H14133677   2.013   3.260   4.965  0.6112 -1.3806  0.9700
  129MOL   H14233678   1.884   3.161   5.061  2.4402 -1.0058  1.1320
  129MOL   H14333679   2.064   3.042   4.548  0.2392 -0.8040  0.2691
  129MOL   H14433680   1.951   2.942   4.643  0.9994  1.3820  0.6006
  129MOL   C14533681   1.871   3.119   4.536  0.4315 -0.5746  0.9588
  129MOL   C14633682   1.935   3.233   4.457  0.2689  0.4155 -0.6626
  129MOL   C14733683   1.838   3.334   4.406  0.7563 -0.1769  0.4279
  129MOL   C14833684   1.927   3.370   4.517 -0.0759  0.3694  0.0867
  129MOL   C14933685   1.788   3.036   4.433 -0.2033 -0.3133 -0.2654
  129MOL   H15033686   1.806   3.177   4.601  1.1916  0.7117  0.5947
  129MOL   H15133687   2.025   3.221   4.397  1.4423 -1.3681  1.3905
  129MOL   H15233688   1.854   3.387   4.312 -0.9677 -2.0212 -0.9608
  129MOL   H15333689   1.736   3.328   4.444  1.0032  0.2837  1.1746
  129MOL   H15433690   1.879   3.374   4.615  1.2968  0.3259  0.7788
  129MOL   H15533691   2.018   3.429   4.506  0.6327 -0.6340  0.4231
  129MOL   H15633692   1.730   3.098   4.365 -1.3230  0.9924  1.8155
  129MOL   H15733693   1.863   2.988   4.371  0.9752  3.4340 -1.8708
  129MOL   C15833694   1.689   2.927   4.496  0.1329  0.2018 -0.0036
  129MOL   C15933695   1.616   2.867   4.378  0.1194 -0.2987 -0.3242
  129MOL   C16033696   1.686   2.771   4.279 -0.3230 -0.4493 -0.8089
  129MOL   C16133697   1.579   2.722   4.370  0.0203  0.3220  0.2255
  129MOL   C16233698   1.588   2.984   4.598  0.2576  0.3477 -0.4097
  129MOL   H16333699   1.742   2.850   4.552 -1.0361  0.5534  1.6491
  129MOL   H16433700   1.537   2.926   4.332 -0.1498 -0.5855 -0.2343
  129MOL   H16533701   1.790   2.747   4.298 -0.0670  0.9173 -0.4662
  129MOL   H16633702   1.660   2.780   4.173 -0.6376  2.6389 -0.5196
  129MOL   H16733703   1.484   2.687   4.330 -0.6240  3.2221 -0.9007
  129MOL   H16833704   1.607   2.664   4.458 -0.2190 -0.6520 -0.3350
  129MOL   H16933705   1.522   3.057   4.551 -2.8060 -1.2507  1.2913
  129MOL   H17033706   1.643   3.054   4.660  2.0633 -0.3947 -1.1330
  129MOL   C17133707   1.515   2.891   4.689 -0.2172  0.2403 -0.7550
  129MOL   C17233708   1.620   2.833   4.777 -0.0168 -0.4490 -0.1004
  129MOL   C17333709   1.591   2.710   4.864  0.3670  0.1077  0.4222
  129MOL   C17433710   1.702   2.707   4.752  0.5068 -0.2316 -0.3192
  129MOL   C17533711   1.416   2.970   4.784  0.1363 -0.2485  0.2879
  129MOL   H17633712   1.454   2.813   4.644 -0.0660  0.6941 -1.7598
  129MOL   H17733713   1.683   2.910   4.822 -3.3030  2.0287  0.4739
  129MOL   H17833714   1.609   2.719   4.970  1.1035  0.3844  0.2740
  129MOL   H17933715   1.503   2.652   4.835 -0.2997  2.0935 -1.7244
  129MOL   H18033716   1.680   2.647   4.664 -0.5357 -0.2985 -0.0234
  129MOL   H18133717   1.807   2.710   4.779 -0.1782  0.9084  2.3469
  129MOL   H18233718   1.472   3.054   4.826 -0.3334  0.1177  0.1878
  129MOL   H18333719   1.397   2.911   4.874  0.1341  0.6792  0.9101
  129MOL   C18433720   1.282   3.011   4.723  0.2827 -0.0317  0.8733
  129MOL   C18533721   1.243   3.160   4.758  0.3653 -0.7448 -0.0748
  129MOL   C18633722   1.165   3.233   4.657 -0.0628  0.2538  0.1360
  129MOL   C18733723   1.310   3.273   4.689 -0.1348  0.6342 -0.6438
  129MOL   C18833724   1.173   2.917   4.766  0.2645  0.0797 -0.5583
  129MOL   H18933725   1.281   2.999   4.615 -3.2621 -0.4035  0.8662
  129MOL   H19033726   1.222   3.169   4.865  0.4223  0.2727 -0.1501
  129MOL   H19133727   1.088   3.295   4.703  0.2173  0.5282  0.2426
  129MOL   H19233728   1.132   3.171   4.575 -1.2567  0.6812  0.2798
  129MOL   H19333729   1.329   3.363   4.747 -2.7757  1.9819 -1.7877
  129MOL   H19433730   1.389   3.259   4.616 -0.8570 -2.2119 -0.9149
  129MOL   H19533731   1.080   2.974   4.764  1.2017  1.9365  3.6684
  129MOL   H19633732   1.186   2.893   4.871 -0.2239 -0.1105 -0.5398
  129MOL   C19733733   1.149   2.785   4.683  0.8148 -0.8116  0.9385
  129MOL   C19833734   1.090   2.819   4.550 -0.1498 -0.8104  1.0279
  129MOL   C19933735   1.110   2.732   4.431 -0.4618  0.0875 -0.0224
  129MOL   C20033736   1.168   2.871   4.433  0.0191 -0.0198  0.0759
  129MOL   C20133737   1.042   2.688   4.739 -0.9375  0.3197  0.0132
  129MOL   H20233738   1.247   2.740   4.665  0.8933 -0.4457  0.4204
  129MOL   H20333739   0.988   2.857   4.559  0.3601  0.5997  1.0365
  129MOL   H20433740   1.184   2.651   4.430 -1.6450 -1.0116  0.5317
  129MOL   H20533741   1.030   2.723   4.358  0.9321  3.4910 -2.0977
  129MOL   H20633742   1.277   2.872   4.426 -0.0196  1.3714 -0.3275
  129MOL   H20733743   1.115   2.945   4.374  0.5358  0.6337  0.4244
  129MOL   H20833744   1.057   2.691   4.847 -1.5677 -0.4101  0.1242
  129MOL   H20933745   0.946   2.737   4.729 -1.6293 -0.7339  1.3455
  129MOL   C21033746   1.050   2.543   4.693  0.2789 -0.0354 -0.2873
  129MOL   C21133747   1.184   2.472   4.738 -0.2003  0.8038  0.5381
  129MOL   C21233748   1.234   2.346   4.682  0.3761  0.4845 -0.2727
  129MOL   C21333749   1.311   2.469   4.648 -0.1033 -0.0366 -0.2408
  129MOL   C21433750   0.931   2.457   4.748  0.5202 -0.8398  0.1137
  129MOL   H21533751   1.046   2.533   4.585 -1.1920  0.8039 -0.3179
  129MOL   H21633752   1.225   2.493   4.837  2.3740 -0.9881 -0.0851
  129MOL   H21733753   1.270   2.270   4.752 -1.7378 -2.3295 -2.1264
  129MOL   H21833754   1.175   2.299   4.603  0.2789  1.1599 -0.6021
  129MOL   H21933755   1.414   2.470   4.684  0.2755  0.1093 -1.3100
  129MOL   H22033756   1.300   2.496   4.543 -3.3956  0.0428  0.0857
  129MOL   H22133757   0.944   2.358   4.704  0.3899 -1.7107  1.9868
  129MOL   H22233758   0.944   2.438   4.855  1.3086  0.8733  0.3455
  129MOL   C22333759   0.784   2.508   4.725 -0.3456 -0.3961 -0.2964
  129MOL   C22433760   0.688   2.402   4.764  0.1366 -0.7964 -0.2184
  129MOL   C22533761   0.663   2.384   4.914  0.5887 -0.3759 -0.5044
  129MOL   C22633762   0.553   2.431   4.818  0.9809 -0.8633  0.1479
  129MOL   C22733763   0.768   2.542   4.575 -0.1089  0.3683  0.0100
  129MOL   H22833764   0.764   2.592   4.792 -0.2058  0.5400 -1.4026
  129MOL   H22933765   0.693   2.314   4.700  1.8309 -2.1383  1.7022
  129MOL   H23033766   0.715   2.456   4.977  0.2873 -0.1343 -0.5310
  129MOL   H23133767   0.640   2.288   4.958 -1.6651  0.6933  0.6936
  129MOL   H23233768   0.478   2.355   4.797  0.5129 -0.7383  1.3208
  129MOL   H23333769   0.535   2.538   4.827  0.7494 -1.0233  1.7415
  129MOL   H23433770   0.854   2.604   4.547 -0.9183  0.7678 -1.6753
  129MOL   H23533771   0.779   2.449   4.519 -0.3874 -0.7416  1.7883
  129MOL   C23633772   0.643   2.610   4.530  0.1572 -0.2476  0.2003
  129MOL   C23733773   0.650   2.614   4.380 -0.4105 -0.4634  0.8141
  129MOL   C23833774   0.646   2.489   4.295  0.7299  0.2566 -0.3024
  129MOL   C23933775   0.544   2.604   4.277 -0.0508  0.2308  0.8291
  129MOL   C24033776   0.620   2.753   4.590 -0.0331 -0.0268  0.0021
  129MOL   H24133777   0.557   2.546   4.547  0.9204 -0.8823  1.7943
  129MOL   H24233778   0.734   2.680   4.362  1.4199 -3.0946 -0.6575
  129MOL   H24333779   0.740   2.479   4.242  1.1305  1.3137  0.1913
  129MOL   H24433780   0.620   2.394   4.340  2.1288 -2.2402 -4.4792
  129MOL   H24533781   0.450   2.586   4.330  0.1978 -0.4025  1.0614
  129MOL   H24633782   0.542   2.664   4.186 -0.2550  0.9608  1.3117
  129MOL   H24733783   0.618   2.745   4.698 -1.1735 -0.4072 -0.0403
  129MOL   H24833784   0.711   2.809   4.567 -0.4178  0.5076 -0.2310
  129MOL   C24933785   0.491   2.819   4.555  0.0516 -0.0163  0.2732
  129MOL   C25033786   0.489   2.970   4.586  0.1613  0.1699  0.0262
  129MOL   C25133787   0.549   3.061   4.485  0.2521  0.0746  0.7031
  129MOL   C25233788   0.398   3.055   4.512  0.3753  0.3229  0.6644
  129MOL   C25333789   0.378   2.746   4.623  0.0965 -0.1630  0.1134
  129MOL   H25433790   0.485   2.795   4.448  2.4902 -1.7118  0.4896
  129MOL   H25533791   0.503   3.002   4.689 -2.2635  2.7987 -0.3728
  129MOL   H25633792   0.591   3.159   4.508 -0.9195  1.0066 -1.0369
  129MOL   H25733793   0.585   3.015   4.393  0.2715  0.9304  0.2755
  129MOL   H25833794   0.344   3.138   4.559  0.4371  0.5803  0.2844
  129MOL   H25933795   0.334   2.993   4.450  0.9574 -0.6399  1.0262
  129MOL   H26033796   0.359   2.641   4.602 -1.7959  0.6798 -2.6404
  129MOL   H26133797   0.282   2.789   4.595  0.4451  0.5137 -0.0496
  129MOL   H26233798   0.379   2.754   4.732 -1.8817 -0.5004  0.1782
  130MOL     C133799   6.431   2.277   5.459  0.1154  0.3303 -0.1163
  130MOL     C233800   6.290   2.337   5.456  0.7655 -0.7267 -0.7362
  130MOL     C333801   6.170   2.320   5.555 -0.4427  0.5865 -0.0814
  130MOL     C433802   6.179   2.244   5.422 -0.0891 -0.3688 -0.0905
  130MOL     C533803   6.524   2.344   5.562  0.0891  0.1918  0.2162
  130MOL     H633804   6.415   2.172   5.485  2.4732  0.2627  1.2195
  130MOL     H733805   6.283   2.435   5.409  1.2719 -0.1276  0.4046
  130MOL     H833806   6.168   2.263   5.647  1.2754  0.9175  0.1652
  130MOL     H933807   6.098   2.402   5.563 -0.7786  0.3273 -0.3997
  130MOL    H1033808   6.113   2.274   5.341 -1.8380 -2.5243  0.5010
  130MOL    H1133809   6.206   2.139   5.428  1.8921 -0.2065 -4.1729
  130MOL    H1233810   6.491   2.333   5.665  0.3895 -1.3331  0.1617
  130MOL    H1333811   6.517   2.450   5.539 -1.1913 -0.3913 -2.3032
  130MOL    H1433812   6.480   2.262   5.362 -0.5732 -0.0161 -0.4125
  130MOL    C1533813   6.670   2.289   5.557 -0.2219  0.6946 -0.9357
  130MOL    C1633814   6.768   2.405   5.583  0.1707 -0.2562  0.1898
  130MOL    C1733815   6.797   2.507   5.479  0.7419 -0.0280 -0.2172
  130MOL    C1833816   6.908   2.409   5.513  0.2957 -0.4477  0.4201
  130MOL    C1933817   6.710   2.172   5.660  0.1116  0.0265  0.1349
  130MOL    H2033818   6.691   2.250   5.458  1.3397 -3.7970  1.0286
  130MOL    H2133819   6.773   2.459   5.678  1.2662 -2.6744  1.5608
  130MOL    H2233820   6.806   2.610   5.514  0.3062 -0.0014 -0.1838
  130MOL    H2333821   6.753   2.495   5.380  2.0164 -0.0282 -0.7869
  130MOL    H2433822   6.926   2.318   5.456 -1.3982  0.1354 -1.0975
  130MOL    H2533823   6.995   2.446   5.567  2.2089  0.0359 -2.8212
  130MOL    H2633824   6.695   2.215   5.759  1.8490 -2.4372  1.5102
  130MOL    H2733825   6.815   2.144   5.650 -0.3606 -1.6296 -0.3841
  130MOL    C2833826   6.620   2.052   5.662  0.0761  0.0732 -0.1013
  130MOL    C2933827   6.648   1.970   5.788 -0.0357 -0.2669 -0.3299
  130MOL    C3033828   6.595   2.011   5.924  0.1562  0.6319 -0.3938
  130MOL    C3133829   6.541   1.887   5.862  0.2098 -0.4710 -0.3626
  130MOL    C3233830   6.634   1.975   5.529  0.1031  0.4133  0.5741
  130MOL    H3333831   6.520   2.094   5.675  0.3387  1.3621 -2.1657
  130MOL    H3433832   6.747   1.925   5.789 -0.4477 -1.2126 -0.9244
  130MOL    H3533833   6.523   2.091   5.935 -0.5528  0.0313 -0.6412
  130MOL    H3633834   6.673   2.006   6.001  1.4259  0.3927 -1.6679
  130MOL    H3733835   6.446   1.890   5.809  0.5278 -1.9414 -1.0366
  130MOL    H3833836   6.559   1.800   5.925 -1.5343  1.2235  2.5902
  130MOL    H3933837   6.739   1.953   5.507 -0.5073  0.5327 -2.5647
  130MOL    H4033838   6.611   2.046   5.450  0.9335 -0.5389 -0.5378
  130MOL    C4133839   6.549   1.847   5.514 -0.5878 -0.2461 -0.6841
  130MOL    C4233840   6.589   1.775   5.384  0.3577 -0.6184 -1.4728
  130MOL    C4333841   6.547   1.630   5.361 -0.4485  0.0096 -0.4666
  130MOL    C4433842   6.693   1.662   5.386 -0.2487  0.0916 -0.6267
  130MOL    C4533843   6.400   1.883   5.514  0.0900  0.5268 -0.8143
  130MOL    H4633844   6.571   1.786   5.602 -5.5331 -1.2509  0.0333
  130MOL    H4733845   6.584   1.840   5.297 -0.4193  0.2654 -0.7786
  130MOL    H4833846   6.503   1.565   5.436  2.7613 -0.7259  0.8619
  130MOL    H4933847   6.519   1.608   5.258  1.1009  0.2278 -0.9479
  130MOL    H5033848   6.762   1.651   5.302 -1.2224  0.5460 -1.4909
  130MOL    H5133849   6.740   1.649   5.484  2.1489  1.7601 -1.4969
  130MOL    H5233850   6.375   1.945   5.428 -0.8689  2.2842  0.6678
  130MOL    H5333851   6.378   1.944   5.602 -1.7229 -1.8794  0.4775
  130MOL    C5433852   6.299   1.768   5.522  0.1617  0.7636  0.0816
  130MOL    C5533853   6.295   1.711   5.661  0.2592  0.4011  0.0847
  130MOL    C5633854   6.403   1.617   5.714 -0.1832  0.3706  0.2595
  130MOL    C5733855   6.272   1.560   5.686 -0.2079  0.6191  0.1680
  130MOL    C5833856   6.156   1.811   5.480 -0.0250 -0.8356 -0.1384
  130MOL    H5933857   6.325   1.684   5.458 -0.7983  0.6860 -0.2117
  130MOL    H6033858   6.252   1.780   5.733 -0.0084  1.0201 -0.6478
  130MOL    H6133859   6.480   1.572   5.652 -0.5537  0.7517 -0.4884
  130MOL    H6233860   6.439   1.637   5.815  0.4823  1.4950 -0.1889
  130MOL    H6333861   6.205   1.515   5.759  1.5159 -0.7500  0.9774
  130MOL    H6433862   6.276   1.506   5.592 -0.9025 -1.2576  1.1883
  130MOL    H6533863   6.089   1.748   5.539 -2.1311  1.2675 -0.2581
  130MOL    H6633864   6.130   1.913   5.505 -1.1592 -1.4121  1.1005
  130MOL    C6733865   6.121   1.781   5.332  0.3716  0.5579 -0.5243
  130MOL    C6833866   5.980   1.822   5.309  0.1919  0.2105  0.2504
  130MOL    C6933867   5.888   1.736   5.221  0.8477 -0.0242  0.5514
  130MOL    C7033868   5.865   1.749   5.373 -0.2825 -0.0760  0.0764
  130MOL    C7133869   6.213   1.848   5.226  0.0409 -0.0140  0.5812
  130MOL    H7233870   6.131   1.673   5.329  0.0915  0.5383 -0.7554
  130MOL    H7333871   5.966   1.929   5.294  1.1481  0.0386 -2.2337
  130MOL    H7433872   5.825   1.790   5.149 -0.3417 -0.4936  1.2196
  130MOL    H7533873   5.930   1.640   5.194  0.9923 -0.2800  1.6853
  130MOL    H7633874   5.883   1.665   5.440  1.4230  1.3936  1.5053
  130MOL    H7733875   5.774   1.803   5.397  0.2590  1.5037 -1.3395
  130MOL    H7833876   6.316   1.824   5.253  0.7427  2.8499  0.6180
  130MOL    H7933877   6.198   1.956   5.222  0.7501  0.0269 -1.3668
  130MOL    C8033878   6.203   1.803   5.077 -0.6664 -0.4651  0.0132
  130MOL    C8133879   6.302   1.682   5.058 -0.4393 -0.2867  0.7293
  130MOL    C8233880   6.267   1.579   4.956  0.8850 -0.1839  0.1961
  130MOL    C8333881   6.277   1.538   5.098 -0.2681  0.1488  0.2211
  130MOL    C8433882   6.220   1.917   4.966 -0.5092  0.0788  0.8776
  130MOL    H8533883   6.102   1.764   5.062  0.2113 -3.4271  1.3365
  130MOL    H8633884   6.406   1.710   5.072 -0.2900 -1.0233  1.0773
  130MOL    H8733885   6.342   1.542   4.886  0.9933  0.6103 -0.1151
  130MOL    H8833886   6.167   1.585   4.914  0.3594 -0.8940  1.3399
  130MOL    H8933887   6.181   1.522   5.148  0.3853 -1.7930  0.9146
  130MOL    H9033888   6.359   1.469   5.118  0.3135  0.3998 -1.2298
  130MOL    H9133889   6.284   1.997   5.003 -0.1254  0.5943 -0.8175
  130MOL    H9233890   6.268   1.871   4.880  0.7892 -1.0038  2.1735
  130MOL    C9333891   6.088   1.980   4.905  0.4757 -0.0388 -0.4789
  130MOL    C9433892   6.018   1.879   4.821 -0.0585  0.1104  1.2225
  130MOL    C9533893   5.898   1.905   4.726  0.0644  0.3001 -0.1729
  130MOL    C9633894   6.032   1.876   4.670  0.4888  0.3253  0.8872
  130MOL    C9733895   5.996   2.044   5.008  0.5449  0.5645  0.2260
  130MOL    H9833896   6.125   2.061   4.841  0.8233 -0.8123 -1.2637
  130MOL    H9933897   6.018   1.782   4.870  0.2882 -0.0234  0.9630
  130MOL   H10033898   5.823   1.827   4.712  1.3441 -1.2806  1.4991
  130MOL   H10133899   5.856   2.004   4.708 -3.4422 -1.1516 -0.3280
  130MOL   H10233900   6.056   1.777   4.630  0.3008 -0.0519  1.6998
  130MOL   H10333901   6.087   1.951   4.614 -2.6869  2.4186  0.5127
  130MOL   H10433902   6.054   2.057   5.099  0.0960 -1.8427  0.8842
  130MOL   H10533903   5.912   1.982   5.041 -0.9293  1.1072 -2.4104
  130MOL   C10633904   5.929   2.180   4.953  0.5033  0.5875 -0.5853
  130MOL   C10733905   5.802   2.203   5.037  0.4401 -0.3967  1.0299
  130MOL   C10833906   5.683   2.282   4.977 -0.2835  0.8259  0.4810
  130MOL   C10933907   5.675   2.127   5.001  0.2569 -0.3367 -0.0967
  130MOL   C11033908   6.025   2.308   4.943  0.2895  0.2730  0.6274
  130MOL   H11133909   5.890   2.163   4.853 -0.2569  2.6061 -0.6440
  130MOL   H11233910   5.820   2.211   5.144  0.1685 -2.3713  1.2421
  130MOL   H11333911   5.627   2.338   5.051 -1.2555  1.3132 -0.6097
  130MOL   H11433912   5.699   2.323   4.877  0.4507  1.0504  0.6889
  130MOL   H11533913   5.664   2.082   4.903 -2.1944 -0.1571  0.0705
  130MOL   H11633914   5.615   2.086   5.082 -0.1062 -0.4520 -0.4257
  130MOL   H11733915   6.048   2.344   5.044 -0.4286 -1.0071  1.2505
  130MOL   H11833916   6.121   2.283   4.898  1.0203 -0.5670  2.6085
  130MOL   C11933917   5.973   2.438   4.879 -0.0156 -0.5849 -0.2196
  130MOL   C12033918   6.080   2.552   4.881  0.8936  0.2762  0.0832
  130MOL   C12133919   6.111   2.614   5.015  0.1161 -0.4850  0.8837
  130MOL   C12233920   6.047   2.699   4.903  0.2704  0.0293  0.3337
  130MOL   C12333921   5.926   2.412   4.738 -0.1312  0.2657 -0.1617
  130MOL   H12433922   5.885   2.467   4.937  1.2142  0.2555  1.2619
  130MOL   H12533923   6.166   2.526   4.820  0.3701 -1.5424  0.0908
  130MOL   H12633924   6.214   2.642   5.033  0.2182 -0.3773  0.1403
  130MOL   H12733925   6.047   2.602   5.102 -0.8507  1.8132  0.5264
  130MOL   H12833926   5.943   2.730   4.899  0.1015 -0.6782 -1.5887
  130MOL   H12933927   6.112   2.778   4.866 -1.5307  2.4273  2.1501
  130MOL   H13033928   6.022   2.394   4.689  0.1986  0.8755  0.2498
  130MOL   H13133929   5.871   2.320   4.720 -0.3457  0.2786  0.4015
  130MOL   C13233930   5.867   2.533   4.654 -0.3837  0.7259  0.8149
  130MOL   C13333931   5.714   2.543   4.676  0.4699 -0.4675  0.1780
  130MOL   C13433932   5.640   2.671   4.647 -1.4787 -0.3393 -0.1353
  130MOL   C13533933   5.652   2.628   4.790 -0.6107  0.6091 -0.2014
  130MOL   C13633934   5.904   2.529   4.503  0.4179 -0.7198  0.1582
  130MOL   H13733935   5.907   2.627   4.692 -0.1219 -0.0095  2.3867
  130MOL   H13833936   5.670   2.455   4.631 -1.6399 -0.2124  1.6572
  130MOL   H13933937   5.696   2.760   4.618 -0.2303 -1.0543  0.0581
  130MOL   H14033938   5.548   2.661   4.590 -1.7254  4.2409 -0.6958
  130MOL   H14133939   5.727   2.668   4.857 -0.3228  0.6729 -0.5648
  130MOL   H14233940   5.552   2.613   4.831 -2.0933  1.6336 -3.2688
  130MOL   H14333941   6.003   2.484   4.497  0.8460 -0.0804  1.9407
  130MOL   H14433942   5.839   2.459   4.451  0.1943  1.1608 -2.1980
  130MOL   C14533943   5.916   2.668   4.430  0.1488 -0.1754 -0.2635
  130MOL   C14633944   6.017   2.756   4.505  0.3178  0.0513 -0.5666
  130MOL   C14733945   6.030   2.907   4.481  0.8595 -0.1448  0.0462
  130MOL   C14833946   5.979   2.854   4.610  0.4517 -0.3578 -0.0725
  130MOL   C14933947   5.948   2.656   4.282 -0.1194 -0.1283 -0.9098
  130MOL   H15033948   5.823   2.724   4.436  0.2095 -0.1864  0.8991
  130MOL   H15133949   6.116   2.710   4.500 -0.7734 -2.4055 -0.1893
  130MOL   H15233950   6.131   2.946   4.481  0.2513  1.4590 -0.3368
  130MOL   H15333951   5.953   2.949   4.416  0.9969 -0.9791 -0.6804
  130MOL   H15433952   5.873   2.875   4.621  0.5834  0.6285 -0.6280
  130MOL   H15533953   6.052   2.881   4.686  0.1288 -0.8343  0.4058
  130MOL   H15633954   5.973   2.750   4.231 -0.7139  0.1372 -0.7201
  130MOL   H15733955   6.044   2.607   4.273  0.7255  0.7858  2.3333
  130MOL   C15833956   5.851   2.579   4.185 -0.2915 -0.6456  0.3041
  130MOL   C15933957   5.921   2.511   4.066 -0.7437 -0.0518  0.1050
  130MOL   C16033958   6.026   2.402   4.071  0.1970  0.5129  0.5278
  130MOL   C16133959   5.894   2.383   3.999  0.1985  0.1925  0.1573
  130MOL   C16233960   5.742   2.680   4.143  0.0274  0.2849 -0.2187
  130MOL   H16333961   5.809   2.494   4.239 -1.0700 -0.8375 -0.5765
  130MOL   H16433962   5.936   2.585   3.988 -0.4205 -0.0830  0.1366
  130MOL   H16533963   6.049   2.348   4.162  0.5824  0.4698  0.4075
  130MOL   H16633964   6.111   2.421   4.005  1.4550 -1.5368  1.5192
  130MOL   H16733965   5.904   2.382   3.891 -1.3946 -2.5554  0.0068
  130MOL   H16833966   5.823   2.311   4.040 -1.4032  0.8755 -1.3678
  130MOL   H16933967   5.792   2.748   4.074 -0.0957  1.5298  0.8863
  130MOL   H17033968   5.715   2.747   4.225  1.0744 -0.5009  0.7770
  130MOL   C17133969   5.606   2.624   4.088  0.7107 -0.7966  0.4796
  130MOL   C17233970   5.526   2.581   4.208  0.2536  0.3940 -0.4690
  130MOL   C17333971   5.413   2.479   4.206 -0.0452  0.0657 -0.5517
  130MOL   C17433972   5.536   2.444   4.283  0.3194 -0.0567  0.3514
  130MOL   C17533973   5.524   2.729   4.011  0.1704  0.6505 -0.6818
  130MOL   H17633974   5.623   2.536   4.025  0.4012 -2.1078  2.1869
  130MOL   H17733975   5.521   2.660   4.281 -1.2018  0.1557 -0.2955
  130MOL   H17833976   5.325   2.520   4.256  0.0089  0.0337 -0.4278
  130MOL   H17933977   5.397   2.434   4.109  0.4923  1.6684 -1.4061
  130MOL   H18033978   5.598   2.366   4.240 -0.2957 -0.3291 -0.0537
  130MOL   H18133979   5.537   2.457   4.391 -1.3682  1.6776  0.1742
  130MOL   H18233980   5.589   2.814   3.993  0.6070  0.4373 -0.1016
  130MOL   H18333981   5.456   2.771   4.086  0.0553 -1.0116  0.1754
  130MOL   C18433982   5.456   2.696   3.880  0.3849 -0.0822 -0.7188
  130MOL   C18533983   5.570   2.654   3.787 -0.1278  0.0653  0.1757
  130MOL   C18633984   5.530   2.579   3.663  0.2710  0.0135 -0.3835
  130MOL   C18733985   5.609   2.512   3.769 -0.0368 -0.2849  0.0314
  130MOL   C18833986   5.379   2.815   3.815  0.3275  0.2170  0.7964
  130MOL   H18933987   5.394   2.609   3.900 -1.2150  1.0902 -0.4756
  130MOL   H19033988   5.661   2.714   3.786  0.8797 -1.4405 -0.0378
  130MOL   H19133989   5.581   2.612   3.573  0.3002 -0.9082 -0.7172
  130MOL   H19233990   5.435   2.526   3.653 -0.8623  1.6387  1.4622
  130MOL   H19333991   5.711   2.491   3.738 -0.0622  0.7183 -0.7373
  130MOL   H19433992   5.562   2.440   3.836 -0.4388 -0.1385 -0.0906
  130MOL   H19533993   5.341   2.776   3.721  2.9441  0.6298 -0.4790
  130MOL   H19633994   5.454   2.891   3.795  1.6448 -1.3230 -0.2780
  130MOL   C19733995   5.259   2.870   3.891  0.8567  0.0716  0.0163
  130MOL   C19833996   5.164   2.752   3.915 -0.2057  0.0233 -0.3035
  130MOL   C19933997   5.033   2.765   3.988  0.4641  0.3694  0.5324
  130MOL   C20033998   5.146   2.691   4.048 -0.1458 -0.2822 -0.3401
  130MOL   C20133999   5.186   2.974   3.802 -0.3804  0.0217  0.0759
  130MOL   H20234000   5.291   2.895   3.992 -1.1919  0.0415  0.6801
  130MOL   H20334001   5.150   2.696   3.823 -0.6520  0.8599 -0.7597
  130MOL   H20434002   5.008   2.866   4.020 -2.4665  0.2308 -1.1600
  130MOL   H20534003   4.944   2.709   3.960  0.3511  0.2702  1.0838
  130MOL   H20634004   5.208   2.750   4.116 -0.3789  0.5419 -0.8275
  130MOL   H20734005   5.158   2.583   4.048  0.6667 -0.2109 -1.7130
  130MOL   H20834006   5.164   2.945   3.700 -0.4476 -0.5257  0.2436
  130MOL   H20934007   5.087   2.998   3.841 -0.0811 -1.8515  2.0880
  130MOL   C21034008   5.274   3.103   3.794  0.3029  0.3469  0.2175
  130MOL   C21134009   5.225   3.190   3.677  0.2169  0.0639  0.1371
  130MOL   C21234010   5.323   3.255   3.586  0.8562 -0.2892 -1.0725
  130MOL   C21334011   5.245   3.143   3.532  0.2655  0.1764  0.7320
  130MOL   C21434012   5.289   3.183   3.929  0.1584 -0.1273  0.0741
  130MOL   H21534013   5.373   3.081   3.754  2.0734  2.8256  3.1091
  130MOL   H21634014   5.130   3.238   3.698  0.2789  0.0068  0.5539
  130MOL   H21734015   5.296   3.356   3.555 -1.3566 -0.4661  0.2200
  130MOL   H21834016   5.426   3.224   3.601  0.6462 -1.3030 -1.6809
  130MOL   H21934017   5.170   3.176   3.461 -0.8147 -1.2893  1.1753
  130MOL   H22034018   5.286   3.045   3.511 -2.6388 -1.1546  1.1364
  130MOL   H22134019   5.213   3.261   3.920  0.6733  0.1541 -2.1935
  130MOL   H22234020   5.257   3.124   4.014  1.6830 -2.1817 -0.7267
  130MOL   C22334021   5.425   3.255   3.963 -0.2914  0.5127  0.0478
  130MOL   C22434022   5.542   3.159   3.961  0.1553  0.4900  0.4301
  130MOL   C22534023   5.643   3.147   3.843  0.3386 -0.6071 -0.8145
  130MOL   C22634024   5.688   3.212   3.979  0.1200 -0.0813 -0.3578
  130MOL   C22734025   5.420   3.314   4.104  0.1558 -0.9607 -0.0073
  130MOL   H22834026   5.434   3.326   3.880 -0.8300 -0.5942 -0.9801
  130MOL   H22934027   5.535   3.059   4.004 -1.4154  0.7071  0.7006
  130MOL   H23034028   5.643   3.208   3.753  0.7745  0.0306 -0.3821
  130MOL   H23134029   5.682   3.049   3.815  0.5901 -0.9860  0.8211
  130MOL   H23234030   5.748   3.151   4.045  0.4373 -0.0985 -0.6590
  130MOL   H23334031   5.711   3.318   3.983 -1.3771  0.2211  1.0655
  130MOL   H23434032   5.384   3.244   4.180 -2.5607  0.1719 -0.1975
  130MOL   H23534033   5.517   3.339   4.147 -0.3591  0.6437  0.2416
  130MOL   C23634034   5.343   3.452   4.126 -0.2161 -0.5574  0.8648
  130MOL   C23734035   5.383   3.554   4.010 -0.4052  0.6066  0.4346
  130MOL   C23834036   5.301   3.594   3.886 -0.7646  0.2831  0.2938
  130MOL   C23934037   5.301   3.681   4.004 -0.3437  0.0630 -0.6787
  130MOL   C24034038   5.350   3.508   4.271 -0.1025 -0.0225 -0.4365
  130MOL   H24134039   5.238   3.437   4.103  0.2018 -2.3911  0.0485
  130MOL   H24234040   5.492   3.550   4.001 -0.4850 -0.0579 -0.2516
  130MOL   H24334041   5.358   3.632   3.801  1.1843 -2.4925  0.3138
  130MOL   H24434042   5.210   3.542   3.858  0.0054  0.2478 -2.2984
  130MOL   H24534043   5.204   3.689   4.053  1.1875  0.6899  2.3716
  130MOL   H24634044   5.351   3.775   3.982  1.8250 -0.6105  1.2248
  130MOL   H24734045   5.452   3.516   4.307 -0.0937 -0.2797 -0.4065
  130MOL   H24834046   5.321   3.614   4.276  2.0939  0.5221  1.5033
  130MOL   C24934047   5.274   3.435   4.385 -0.7592 -0.1563 -0.1034
  130MOL   C25034048   5.126   3.424   4.360 -0.4884 -0.0866  0.4182
  130MOL   C25134049   5.074   3.306   4.281 -0.1996 -0.4173 -0.0571
  130MOL   C25234050   5.027   3.326   4.429 -0.7514 -0.0287  0.0739
  130MOL   C25334051   5.296   3.517   4.523 -0.6983  0.2432 -0.1197
  130MOL   H25434052   5.319   3.336   4.396  1.6008  1.0753  1.9322
  130MOL   H25534053   5.079   3.519   4.333 -0.5537 -0.5677 -1.1936
  130MOL   H25634054   5.002   3.317   4.200  0.6316  1.1206 -0.6126
  130MOL   H25734055   5.136   3.218   4.268  1.6215  1.1113 -2.1217
  130MOL   H25834056   4.932   3.367   4.462 -0.5334  0.7303 -0.2438
  130MOL   H25934057   5.068   3.267   4.511  0.1035  0.4930  0.0214
  130MOL   H26034058   5.251   3.615   4.515 -0.2368  0.3706 -1.2565
  130MOL   H26134059   5.405   3.530   4.528 -0.6944  0.2824 -0.2957
  130MOL   H26234060   5.256   3.458   4.605 -3.0885 -0.0913 -1.4975
  131MOL     C134061   5.539   5.926   1.800  0.0302 -0.5475 -0.0384
  131MOL     C234062   5.471   5.824   1.896  0.2834  0.2789 -0.5423
  131MOL     C334063   5.453   5.675   1.858 -0.2514  0.4718 -1.2119
  131MOL     C434064   5.332   5.768   1.867  0.6363  0.2401 -0.0095
  131MOL     C534065   5.503   6.076   1.822  0.2995 -0.3771  0.4429
  131MOL     H634066   5.645   5.902   1.799 -0.2854 -2.0346  0.8196
  131MOL     H734067   5.499   5.838   2.000  0.6025  2.4414 -0.8954
  131MOL     H834068   5.494   5.635   1.765  2.2973  1.6750 -0.6379
  131MOL     H934069   5.453   5.601   1.937 -1.1762  0.1627 -1.4920
  131MOL    H1034070   5.263   5.751   1.949  0.6948  2.6039  0.5651
  131MOL    H1134071   5.285   5.793   1.773  0.6810 -1.9785 -0.6664
  131MOL    H1234072   5.517   6.096   1.929 -1.0557  1.2955  0.3209
  131MOL    H1334073   5.396   6.078   1.805  0.3361 -1.8776 -0.1113
  131MOL    H1434074   5.494   5.898   1.704 -0.4104 -2.5382  0.7222
  131MOL    C1534075   5.571   6.173   1.719 -0.6221 -0.1733  0.3060
  131MOL    C1634076   5.542   6.312   1.760 -0.1505 -0.0400  0.1381
  131MOL    C1734077   5.398   6.367   1.747  0.0191 -0.0798 -0.2598
  131MOL    C1834078   5.510   6.439   1.679 -0.2642 -0.2115 -0.5987
  131MOL    C1934079   5.727   6.149   1.703 -0.0361  0.1327  0.1515
  131MOL    H2034080   5.526   6.168   1.620 -1.9099 -0.7980  0.9144
  131MOL    H2134081   5.592   6.331   1.855  0.9261 -1.3365 -0.1538
  131MOL    H2234082   5.359   6.403   1.841  4.1783 -1.6680  2.2317
  131MOL    H2334083   5.337   6.297   1.690 -0.1704 -1.3787  1.5098
  131MOL    H2434084   5.515   6.434   1.571  1.1401 -1.8142 -0.4793
  131MOL    H2534085   5.555   6.524   1.730 -2.7056  1.1870 -0.7128
  131MOL    H2634086   5.753   6.044   1.689 -0.3870  0.1335 -0.5119
  131MOL    H2734087   5.768   6.177   1.801  0.7759 -1.5864  0.3374
  131MOL    C2834088   5.807   6.225   1.589 -0.1556 -0.7558 -0.3790
  131MOL    C2934089   5.902   6.127   1.525 -0.1302  0.3214  0.0957
  131MOL    C3034090   5.858   6.006   1.448 -0.2551  0.3690  0.1127
  131MOL    C3134091   5.937   6.125   1.381  0.7971  0.5004 -0.2553
  131MOL    C3234092   5.874   6.349   1.647 -0.2118 -0.4260 -0.0285
  131MOL    H3334093   5.735   6.241   1.509  0.3683 -1.6859 -1.0319
  131MOL    H3434094   5.993   6.105   1.581  0.1405  1.0492 -0.0503
  131MOL    H3534095   5.750   5.994   1.442  0.1341 -4.2796  0.3954
  131MOL    H3634096   5.915   5.915   1.465 -1.6534 -0.1149  2.4106
  131MOL    H3734097   5.885   6.196   1.317 -0.4564  1.2692  1.5643
  131MOL    H3834098   6.040   6.108   1.350  0.7119 -2.2473  0.8035
  131MOL    H3934099   5.930   6.308   1.731 -0.7176  0.4635  0.7582
  131MOL    H4034100   5.792   6.399   1.699  0.1444  0.0950  0.0341
  131MOL    C4134101   5.950   6.440   1.553  0.2054  0.1261 -0.1446
  131MOL    C4234102   6.039   6.544   1.621 -0.1512  0.4318  0.5025
  131MOL    C4334103   6.186   6.567   1.593  0.3763  0.0017  0.2954
  131MOL    C4434104   6.141   6.504   1.724 -0.5772 -0.3232  0.0234
  131MOL    C4534105   5.851   6.523   1.464  0.1181 -0.4975 -0.1897
  131MOL    H4634106   6.013   6.393   1.477 -0.5572  2.0611 -2.0298
  131MOL    H4734107   5.984   6.631   1.655 -1.5928  0.3544 -1.5461
  131MOL    H4834108   6.224   6.503   1.513  2.3951 -1.0820  2.0716
  131MOL    H4934109   6.216   6.671   1.584  0.3040 -0.0345 -0.3883
  131MOL    H5034110   6.146   6.559   1.818 -1.0472 -1.6889  0.8771
  131MOL    H5134111   6.152   6.396   1.734  2.5072 -0.1336 -0.6730
  131MOL    H5234112   5.804   6.592   1.534  3.1335 -0.0108  1.4241
  131MOL    H5334113   5.782   6.451   1.419  1.9937 -2.7068  0.3852
  131MOL    C5434114   5.912   6.605   1.349  0.8917 -0.3856  0.2851
  131MOL    C5534115   5.977   6.514   1.247 -0.7997 -0.2601  0.5176
  131MOL    C5634116   6.125   6.488   1.234  0.1004  0.0507 -0.2851
  131MOL    C5734117   6.056   6.573   1.128  0.0332 -0.6284 -0.9441
  131MOL    C5834118   5.809   6.696   1.284  0.4339  0.7518 -0.4786
  131MOL    H5934119   5.992   6.672   1.381  2.4443 -3.0590  2.1877
  131MOL    H6034120   5.906   6.434   1.224 -2.3302  0.1948  3.4644
  131MOL    H6134121   6.194   6.544   1.296  1.9578  0.9370 -3.0674
  131MOL    H6234122   6.154   6.393   1.190 -2.7787 -1.4904  1.0254
  131MOL    H6334123   6.042   6.528   1.030 -3.5737 -1.4306 -0.1264
  131MOL    H6434124   6.068   6.681   1.125 -0.7624 -0.5264 -0.6881
  131MOL    H6534125   5.852   6.736   1.192 -1.3783  0.9492 -1.2684
  131MOL    H6634126   5.726   6.633   1.252  1.8165 -0.1905 -2.3212
  131MOL    C6734127   5.765   6.810   1.373  0.1964  0.6400 -0.1907
  131MOL    C6834128   5.877   6.903   1.418  0.3273 -0.1743 -0.0749
  131MOL    C6934129   5.879   7.014   1.520 -0.4459  0.0716 -0.0131
  131MOL    C7034130   5.953   6.881   1.545  0.1816 -1.1261  0.1045
  131MOL    C7134131   5.652   6.881   1.290  0.2664 -0.0447 -0.1860
  131MOL    H7234132   5.718   6.770   1.463 -0.3688 -0.8353 -1.1146
  131MOL    H7334133   5.930   6.921   1.325 -1.1321  1.3303 -0.6512
  131MOL    H7434134   5.928   7.109   1.505 -2.7764  1.4142  0.5243
  131MOL    H7534135   5.794   7.022   1.588 -1.5219 -0.0428 -1.3310
  131MOL    H7634136   5.918   6.819   1.627 -0.1370 -0.6953  0.2996
  131MOL    H7734137   6.061   6.887   1.544  0.2173 -1.9637 -1.6386
  131MOL    H7834138   5.587   6.808   1.241  0.7291 -0.2730 -0.4675
  131MOL    H7934139   5.699   6.937   1.209 -1.5101  0.4056 -0.9187
  131MOL    C8034140   5.564   6.984   1.370 -0.3697  0.6878  0.2708
  131MOL    C8134141   5.467   6.904   1.450 -0.6540  0.0745  0.8450
  131MOL    C8234142   5.413   6.967   1.577  0.3949 -0.0460 -0.3811
  131MOL    C8334143   5.476   6.834   1.580 -0.4482  0.0948  0.0517
  131MOL    C8434144   5.481   7.080   1.288  0.1186 -0.0361 -0.1109
  131MOL    H8534145   5.634   7.025   1.442  1.1947 -3.0737  1.0394
  131MOL    H8634146   5.397   6.851   1.385  0.6693 -2.1091  1.1682
  131MOL    H8734147   5.306   6.968   1.597  0.9676  1.6793  3.0754
  131MOL    H8834148   5.470   7.045   1.628 -1.1452  1.1298 -0.4107
  131MOL    H8934149   5.579   6.835   1.615  0.0629 -0.9930 -1.3735
  131MOL    H9034150   5.410   6.749   1.599 -0.7084  0.0751 -0.9176
  131MOL    H9134151   5.476   7.038   1.188  1.7780 -2.1570  0.6492
  131MOL    H9234152   5.379   7.087   1.325  0.2735  3.1235 -0.1985
  131MOL    C9334153   5.540   7.218   1.245  0.1403 -0.0933  0.3631
  131MOL    C9434154   5.666   7.204   1.159  0.0444 -0.2724  0.7162
  131MOL    C9534155   5.751   7.331   1.140 -0.6127  0.5421 -0.6012
  131MOL    C9634156   5.807   7.201   1.202 -0.0183  0.3754  0.5378
  131MOL    C9734157   5.430   7.300   1.166  0.0204 -0.3980 -0.6000
  131MOL    H9834158   5.567   7.265   1.339 -0.0182  1.9483 -0.5845
  131MOL    H9934159   5.651   7.144   1.070  0.3617  1.0182 -0.2149
  131MOL   H10034160   5.763   7.359   1.036  0.6993  0.6214 -0.4364
  131MOL   H10134161   5.733   7.417   1.205  1.6840 -0.2207  1.1154
  131MOL   H10234162   5.858   7.126   1.142 -2.4690  1.7219 -3.4858
  131MOL   H10334163   5.848   7.212   1.302  1.3102  0.7709 -0.0356
  131MOL   H10434164   5.371   7.230   1.106  1.5737 -1.8748 -0.4379
  131MOL   H10534165   5.486   7.362   1.097  0.8296 -1.1084 -0.5968
  131MOL   C10634166   5.337   7.378   1.267  0.9094 -0.1919  0.2220
  131MOL   C10734167   5.398   7.498   1.335  0.3117  0.2185  0.3077
  131MOL   C10834168   5.351   7.542   1.473  0.1002  0.5127 -0.3320
  131MOL   C10934169   5.492   7.497   1.457 -0.2648  0.1381  0.4105
  131MOL   C11034170   5.205   7.413   1.194 -0.5585 -0.1129  0.2155
  131MOL   H11134171   5.313   7.310   1.348 -2.1605 -1.7656 -1.8849
  131MOL   H11234172   5.433   7.576   1.267 -0.0272 -0.0707 -0.2107
  131MOL   H11334173   5.335   7.645   1.505 -0.2626 -0.0011  1.2173
  131MOL   H11434174   5.303   7.477   1.545  0.2516  0.9078  0.1321
  131MOL   H11534175   5.513   7.400   1.500  2.3617  1.1677  1.5893
  131MOL   H11634176   5.574   7.568   1.446  1.6793 -2.0469  0.3842
  131MOL   H11734177   5.241   7.464   1.105  0.5557 -1.2759 -0.0240
  131MOL   H11834178   5.160   7.321   1.158  0.9284 -1.2713  1.2520
  131MOL   C11934179   5.094   7.495   1.260 -0.0006  0.0700  0.5171
  131MOL   C12034180   4.992   7.519   1.153  0.0365  0.5614  0.1441
  131MOL   C12134181   5.007   7.598   1.031  0.0722 -0.3016  0.1075
  131MOL   C12234182   4.931   7.655   1.141 -0.0290 -0.7756  0.0293
  131MOL   C12334183   5.024   7.426   1.378 -0.4936 -0.8400 -0.1474
  131MOL   H12434184   5.124   7.595   1.293  1.6884  0.0668 -0.9720
  131MOL   H12534185   4.944   7.425   1.126 -0.5025  0.7067  0.5958
  131MOL   H12634186   4.951   7.567   0.943 -1.2700 -0.5463  1.0320
  131MOL   H12734187   5.093   7.663   1.014 -0.5990 -0.0507 -2.5436
  131MOL   H12834188   4.980   7.737   1.193  0.0889 -0.0386 -1.2019
  131MOL   H12934189   4.823   7.648   1.131 -0.2651  1.6230  0.6998
  131MOL   H13034190   4.977   7.339   1.332 -1.7263  0.1352 -0.7475
  131MOL   H13134191   5.098   7.378   1.442 -0.6890  0.2368  0.9209
  131MOL   C13234192   4.929   7.509   1.470 -0.2748 -0.4281 -0.2579
  131MOL   C13334193   4.993   7.623   1.553 -1.2040 -0.6359  0.9827
  131MOL   C13434194   4.932   7.727   1.643 -0.0366 -0.4005 -0.2464
  131MOL   C13534195   4.991   7.766   1.510 -1.0171  0.4368  0.1225
  131MOL   C13634196   4.841   7.413   1.556  1.2367 -0.2627  0.3125
  131MOL   H13734197   4.860   7.568   1.409 -0.0504 -1.3082 -1.3930
  131MOL   H13834198   5.084   7.578   1.594 -1.4212 -0.6925  1.4052
  131MOL   H13934199   4.824   7.727   1.638 -0.0792 -1.8962  0.3722
  131MOL   H14034200   4.976   7.755   1.738  2.2528 -0.5544 -1.2196
  131MOL   H14134201   4.924   7.801   1.433  0.9431  0.2373 -1.7132
  131MOL   H14234202   5.089   7.812   1.519  0.1015 -1.7899 -0.3095
  131MOL   H14334203   4.882   7.312   1.558 -1.0340 -1.1893  0.6948
  131MOL   H14434204   4.847   7.449   1.659  0.8957  0.6273  0.0252
  131MOL   C14534205   4.697   7.394   1.514 -0.5420  0.0341 -0.3334
  131MOL   C14634206   4.623   7.528   1.522 -0.4451  0.1911  0.7720
  131MOL   C14734207   4.475   7.526   1.553 -0.9622 -0.3371 -0.3981
  131MOL   C14834208   4.579   7.566   1.664  0.3557 -0.7512  0.4316
  131MOL   C14934209   4.686   7.335   1.376  0.4031 -0.0188  0.0595
  131MOL   H15034210   4.645   7.330   1.585  0.0173  1.5133  1.4602
  131MOL   H15134211   4.644   7.595   1.439 -1.5736  0.5042  0.7323
  131MOL   H15234212   4.413   7.606   1.512 -1.7922 -0.0965  1.2862
  131MOL   H15334213   4.432   7.427   1.561 -1.1010 -0.1922  0.7000
  131MOL   H15434214   4.575   7.487   1.740 -0.6034 -0.6027  0.5509
  131MOL   H15534215   4.581   7.667   1.703  1.4664 -0.6211  0.0417
  131MOL   H15634216   4.712   7.418   1.310  0.5941 -0.2214 -0.1236
  131MOL   H15734217   4.761   7.256   1.373 -0.6013 -0.9819 -0.0980
  131MOL   C15834218   4.564   7.258   1.332  0.3261 -0.5322  0.3315
  131MOL   C15934219   4.564   7.120   1.408  0.7449 -0.3973  0.6982
  131MOL   C16034220   4.515   7.097   1.556  0.1458 -0.1556  0.3775
  131MOL   C16134221   4.437   7.050   1.440  0.0188  0.2846  0.3257
  131MOL   C16234222   4.539   7.232   1.183 -0.3082  0.3589 -0.2939
  131MOL   H16334223   4.474   7.305   1.373 -0.9034 -1.9803 -0.6782
  131MOL   H16434224   4.650   7.060   1.382  1.8569  1.5412 -0.1810
  131MOL   H16534225   4.462   7.184   1.596  0.5976  0.6671 -0.7990
  131MOL   H16634226   4.590   7.038   1.608 -0.8559 -0.8096  1.1029
  131MOL   H16734227   4.424   6.944   1.421  1.1857  0.4441 -1.5446
  131MOL   H16834228   4.352   7.103   1.397  0.2686 -2.0206 -3.2301
  131MOL   H16934229   4.477   7.143   1.168 -0.4289  0.7126 -1.9968
  131MOL   H17034230   4.633   7.188   1.149 -0.5851 -1.2915  0.9764
  131MOL   C17134231   4.497   7.351   1.099 -0.4923 -0.6538  0.2722
  131MOL   C17234232   4.513   7.312   0.947 -0.1476  0.0076 -0.2876
  131MOL   C17334233   4.532   7.406   0.824  0.2387 -0.0510  0.1636
  131MOL   C17434234   4.648   7.314   0.873  0.3788  0.2112 -0.3123
  131MOL   C17534235   4.360   7.405   1.133  0.7903 -0.5609  0.3274
  131MOL   H17634236   4.569   7.430   1.121 -2.3761  0.7527  1.4377
  131MOL   H17734237   4.450   7.225   0.925 -0.1167 -0.5490  1.6774
  131MOL   H17834238   4.471   7.386   0.736  0.5217  0.0327 -0.0532
  131MOL   H17934239   4.550   7.512   0.840  2.4962 -0.3430 -0.2067
  131MOL   H18034240   4.730   7.373   0.913  1.5016 -0.8544 -1.0304
  131MOL   H18134241   4.667   7.239   0.797  1.1179  0.8293 -0.7445
  131MOL   H18234242   4.340   7.399   1.239  1.9806  2.5121  0.7827
  131MOL   H18334243   4.288   7.330   1.100 -0.4040  0.6176  0.2429
  131MOL   C18434244   4.312   7.541   1.085 -0.1787 -0.3754  0.1955
  131MOL   C18534245   4.388   7.648   1.164 -0.2732 -0.5106 -0.3530
  131MOL   C18634246   4.408   7.792   1.122  0.0427 -0.8569  0.6656
  131MOL   C18734247   4.524   7.697   1.112 -0.8957  0.1999  0.1198
  131MOL   C18834248   4.161   7.573   1.106  0.1852 -0.3365 -0.5736
  131MOL   H18934249   4.334   7.551   0.979  2.5952  0.4280  0.8333
  131MOL   H19034250   4.375   7.634   1.271  0.2703 -3.5711 -0.6529
  131MOL   H19134251   4.400   0.028   1.201 -3.5350 -1.6931  1.2002
  131MOL   H19234252   4.351   7.810   1.031  0.1930 -0.0876  0.7208
  131MOL   H19334253   4.607   7.704   1.183  0.4530 -2.3515 -1.1530
  131MOL   H19434254   4.560   7.662   1.016  3.7037  2.7534  0.7567
  131MOL   H19534255   4.150   7.680   1.088  0.9151 -0.2703 -0.6369
  131MOL   H19634256   4.135   7.542   1.207 -0.0093 -0.3469 -0.6267
  131MOL   C19734257   4.066   7.500   1.011 -0.4694 -0.7388 -0.6248
  131MOL   C19834258   4.093   7.536   0.863 -0.5172 -0.5265  0.2095
  131MOL   C19934259   4.044   7.445   0.751  0.1676 -0.5169  0.3585
  131MOL   C20034260   4.192   7.459   0.775  0.0236  0.6099  0.1720
  131MOL   C20134261   3.916   7.518   1.050  0.1042  0.0617  0.0684
  131MOL   H20234262   4.080   7.393   1.018 -0.5819 -0.5948  2.9140
  131MOL   H20334263   4.098   7.641   0.836  0.5011 -1.2191 -2.4233
  131MOL   H20434264   4.001   7.347   0.771 -2.2050 -0.3404 -3.3364
  131MOL   H20534265   4.015   7.479   0.652 -0.6187  0.3183  0.8592
  131MOL   H20634266   4.248   7.373   0.813 -1.2715 -0.4012 -0.1596
  131MOL   H20734267   4.243   7.501   0.688  0.5554  0.0351  0.1996
  131MOL   H20834268   3.904   7.622   1.081  0.6949  0.5054 -1.1331
  131MOL   H20934269   3.857   7.507   0.960 -0.4225  0.0926  0.4088
  131MOL   C21034270   3.861   7.443   1.166 -0.2409  0.2238  0.4112
  131MOL   C21134271   3.721   7.490   1.207 -0.5523  0.3643 -0.1113
  131MOL   C21234272   3.686   7.631   1.248 -0.3326 -0.5510  0.1875
  131MOL   C21334273   3.630   7.570   1.120  0.3252  0.1180 -0.1052
  131MOL   C21434274   3.862   7.287   1.154  0.5503  0.3305  0.4027
  131MOL   H21534275   3.927   7.478   1.245 -0.5794 -1.5606  1.5042
  131MOL   H21634276   3.680   7.408   1.264 -1.6939  1.6172  0.8780
  131MOL   H21734277   3.610   7.656   1.321 -1.6291  0.7444 -1.5709
  131MOL   H21834278   3.759   7.712   1.246  1.7631 -2.4074 -0.8262
  131MOL   H21934279   3.526   7.538   1.119  0.7375 -1.2792  0.2127
  131MOL   H22034280   3.673   7.613   1.029  4.3079 -1.1891  1.0518
  131MOL   H22134281   3.765   7.259   1.113 -0.0286  2.1946  0.4539
  131MOL   H22234282   3.928   7.253   1.074  1.4861  0.2976  1.1761
  131MOL   C22334283   3.882   7.202   1.278 -0.3268  0.5233  1.1804
  131MOL   C22434284   4.009   7.240   1.356 -0.1092 -0.4388  0.0482
  131MOL   C22534285   4.028   7.352   1.459  0.3510  0.3337  0.2562
  131MOL   C22634286   4.028   7.203   1.498  0.8320  0.0525  0.7462
  131MOL   C22734287   3.888   7.050   1.233  0.5883 -0.2632  0.2748
  131MOL   H22834288   3.793   7.218   1.339 -2.1671  1.9128 -1.7730
  131MOL   H22934289   4.098   7.230   1.294  0.8007  0.2902  1.2133
  131MOL   H23034290   3.943   7.415   1.485 -1.2970 -2.3024  1.4643
  131MOL   H23134291   4.121   7.409   1.463  0.3243  0.5631 -1.8817
  131MOL   H23234292   4.122   7.159   1.528  1.8796  1.8693  0.1959
  131MOL   H23334293   3.939   7.151   1.533  0.5200  0.4357  0.5301
  131MOL   H23434294   3.950   7.045   1.144 -0.9279 -0.2564 -0.8052
  131MOL   H23534295   3.934   6.991   1.313  0.4486  0.7057  1.0723
  131MOL   C23634296   3.753   6.980   1.201 -1.1280 -0.1390  0.2545
  131MOL   C23734297   3.687   6.953   1.336 -0.0312 -0.4899  0.2006
  131MOL   C23834298   3.596   7.045   1.406 -0.1984  0.1720 -0.0102
  131MOL   C23934299   3.531   6.920   1.341 -0.3151  0.8735  0.3380
  131MOL   C24034300   3.779   6.848   1.124  0.3032  0.3211  0.4736
  131MOL   H24134301   3.690   7.048   1.143  0.4346  0.9327 -0.2204
  131MOL   H24234302   3.749   6.890   1.400 -1.7673 -3.0282 -0.5477
  131MOL   H24334303   3.605   7.054   1.514  0.0098  3.3384 -0.2513
  131MOL   H24434304   3.586   7.140   1.356 -1.6255  0.3293  0.5656
  131MOL   H24534305   3.481   6.919   1.244 -1.1742 -1.9789  0.7744
  131MOL   H24634306   3.500   6.852   1.419  0.7182  0.7577  0.6491
  131MOL   H24734307   3.856   6.869   1.049 -0.1935 -1.0877 -0.4584
  131MOL   H24834308   3.834   6.777   1.187  0.6105  0.7012  0.6329
  131MOL   C24934309   3.662   6.763   1.058  0.0888  0.3362  0.9198
  131MOL   C25034310   3.722   6.644   0.990 -0.3573  0.5933  0.3148
  131MOL   C25134311   3.770   6.524   1.063  0.2918  0.2257  0.1550
  131MOL   C25234312   3.642   6.508   0.976 -0.0841  0.1103  0.3760
  131MOL   C25334313   3.576   6.845   0.958  0.5649 -0.1400 -0.1866
  131MOL   H25434314   3.591   6.742   1.138 -0.4641  2.1892  0.9542
  131MOL   H25534315   3.777   6.671   0.900 -1.1751  0.9139 -0.0874
  131MOL   H25634316   3.867   6.492   1.026  0.9103  0.7907  1.2560
  131MOL   H25734317   3.759   6.534   1.171  0.0860  0.7789  0.0841
  131MOL   H25834318   3.641   6.450   0.884 -2.3553  3.2978 -1.6903
  131MOL   H25934319   3.561   6.496   1.048 -0.4958  0.2670 -0.0580
  131MOL   H26034320   3.547   6.944   0.995 -0.9631 -0.7555  0.3181
  131MOL   H26134321   3.479   6.805   0.928 -0.3269  0.9807  1.1359
  131MOL   H26234322   3.638   6.860   0.870  1.3613 -2.7959 -0.1008
  132MOL     C134323   2.730   6.343   6.667 -0.6336 -0.3952 -0.5275
  132MOL     C234324   2.657   6.474   6.661 -0.1836 -0.3715  0.1200
  132MOL     C334325   2.743   6.599   6.678 -0.0551 -0.2055 -0.2495
  132MOL     C434326   2.636   6.572   6.780 -0.4405 -0.2366  0.4395
  132MOL     C534327   2.639   6.236   6.734 -0.4716 -0.3662 -0.4633
  132MOL     H634328   2.757   6.313   6.566  1.5019 -1.2674  0.2699
  132MOL     H734329   2.570   6.484   6.597 -0.7873  0.1145  1.0081
  132MOL     H834330   2.843   6.578   6.715  0.1521  0.3545 -0.4978
  132MOL     H934331   2.735   6.671   6.597  1.7349 -1.0560 -1.2188
  132MOL    H1034332   2.550   6.637   6.775  0.5935  1.0938 -0.5417
  132MOL    H1134333   2.679   6.547   6.877 -0.4752  0.5383  0.6517
  132MOL    H1234334   2.545   6.238   6.679 -0.4451 -2.1390 -0.5928
  132MOL    H1334335   2.625   6.263   6.839  0.2468 -2.7682  0.2795
  132MOL    H1434336   2.826   6.357   6.718  0.0340  1.7010 -2.2359
  132MOL    C1534337   2.692   6.094   6.731 -0.3436 -0.3073  0.4718
  132MOL    C1634338   2.829   6.080   6.785  0.0120  1.2185 -0.3352
  132MOL    C1734339   2.949   6.115   6.702 -0.1482 -0.4010  0.3535
  132MOL    C1834340   2.914   5.964   6.730 -0.5080  0.3124  0.4322
  132MOL    C1934341   2.604   5.997   6.799 -0.5382 -0.4981 -0.3541
  132MOL    H2034342   2.695   6.075   6.624  1.9067  1.1296  0.2335
  132MOL    H2134343   2.833   6.101   6.892  0.2994  2.1164 -0.5174
  132MOL    H2234344   3.027   6.167   6.757  2.3177 -1.0595 -2.4278
  132MOL    H2334345   2.935   6.149   6.600  0.4456  0.7512  0.6547
  132MOL    H2434346   2.853   5.901   6.666 -0.6745  0.3051  0.5986
  132MOL    H2534347   2.976   5.905   6.796  1.8042 -0.9063 -2.7519
  132MOL    H2634348   2.579   6.040   6.896  2.5776  3.9957 -1.3966
  132MOL    H2734349   2.651   5.901   6.819 -0.2374 -0.4158 -0.6577
  132MOL    C2834350   2.475   5.948   6.727 -0.2021 -1.0636  0.0389
  132MOL    C2934351   2.386   5.879   6.832  0.9083  0.5370  0.1969
  132MOL    C3034352   2.292   5.953   6.926  0.4239  0.2207 -0.6341
  132MOL    C3134353   2.231   5.864   6.817 -0.7269  0.1275  0.7091
  132MOL    C3234354   2.500   5.869   6.594 -0.2963  0.3389 -0.5493
  132MOL    H3334355   2.434   6.044   6.697  0.0962 -0.2086  2.2121
  132MOL    H3434356   2.440   5.796   6.877  0.9701  0.9900  0.9767
  132MOL    H3534357   2.273   6.060   6.917  1.3387  0.3168 -1.3929
  132MOL    H3634358   2.285   5.916   7.028 -0.3852 -0.0938 -0.7957
  132MOL    H3734359   2.197   5.912   6.725  0.1831 -0.3080  0.1432
  132MOL    H3834360   2.183   5.772   6.850  0.2433 -0.2272  1.1383
  132MOL    H3934361   2.565   5.786   6.621 -0.6053  0.2866  0.0448
  132MOL    H4034362   2.560   5.923   6.521  0.9691 -2.1146 -1.3507
  132MOL    C4134363   2.373   5.823   6.520  0.2847  0.5275  0.6876
  132MOL    C4234364   2.415   5.697   6.444 -0.2501  0.6976  0.3460
  132MOL    C4334365   2.319   5.592   6.389 -0.9256 -0.2081 -0.7896
  132MOL    C4434366   2.409   5.567   6.505  0.1797 -0.0924 -0.0597
  132MOL    C4534367   2.324   5.933   6.422  0.0539 -0.2440 -0.5192
  132MOL    H4634368   2.291   5.786   6.581 -0.2813 -0.5266 -0.6710
  132MOL    H4734369   2.488   5.721   6.367  0.7668  0.7271  1.3120
  132MOL    H4834370   2.212   5.610   6.400 -0.8053  0.3218 -0.4759
  132MOL    H4934371   2.340   5.540   6.296  2.0440 -1.8869  0.7581
  132MOL    H5034372   2.501   5.510   6.496  0.5462  0.5360 -0.3286
  132MOL    H5134373   2.362   5.546   6.601 -1.1976  1.4195 -0.3934
  132MOL    H5234374   2.397   5.941   6.342  0.0154 -2.9015 -0.8642
  132MOL    H5334375   2.330   6.032   6.467  0.4941 -0.2590 -0.5405
  132MOL    C5434376   2.185   5.911   6.363  0.3017  0.2866 -0.2395
  132MOL    C5534377   2.073   5.912   6.466  0.4383  0.0964  0.0472
  132MOL    C5634378   2.025   5.787   6.539  0.1979  0.3482 -0.0010
  132MOL    C5734379   1.948   5.851   6.430  0.6316  0.3049 -0.1972
  132MOL    C5834380   2.175   6.026   6.256 -1.0267  0.2919 -0.2937
  132MOL    H5934381   2.183   5.815   6.311 -0.2509  0.0860  0.1436
  132MOL    H6034382   2.068   6.003   6.526  2.0819 -0.3924  0.9448
  132MOL    H6134383   2.083   5.698   6.516 -1.3440 -1.0479  1.4299
  132MOL    H6234384   2.010   5.795   6.646  0.0203  0.4851 -0.0364
  132MOL    H6334385   1.852   5.890   6.464  0.3919 -0.9660  0.6357
  132MOL    H6434386   1.944   5.786   6.343 -0.3568  0.0867  0.0005
  132MOL    H6534387   2.070   6.056   6.255 -1.2757 -0.5251  0.5289
  132MOL    H6634388   2.235   6.109   6.294  1.2471 -1.3073 -0.2621
  132MOL    C6734389   2.235   5.984   6.115  0.3993 -0.0547 -0.2282
  132MOL    C6834390   2.154   5.870   6.045  0.5245  0.3852 -0.0336
  132MOL    C6934391   2.196   5.785   5.927 -0.5777  0.2997  0.3030
  132MOL    C7034392   2.179   5.724   6.062 -0.5891  0.4081  0.4530
  132MOL    C7134393   2.236   6.106   6.024  0.1231  0.3173 -0.4145
  132MOL    H7234394   2.340   5.954   6.123  0.9627  2.0166  0.6801
  132MOL    H7334395   2.047   5.889   6.047 -0.0068 -2.2643 -0.7570
  132MOL    H7434396   2.129   5.750   5.849  1.3888  0.8151 -1.6866
  132MOL    H7534397   2.295   5.808   5.887 -0.5808 -0.4760 -0.1517
  132MOL    H7634398   2.272   5.683   6.101 -0.9741 -4.5412 -3.3283
  132MOL    H7734399   2.087   5.676   6.094 -1.8259  1.9149 -0.7408
  132MOL    H7834400   2.148   6.169   6.038  0.5791  1.4483 -2.4505
  132MOL    H7934401   2.216   6.071   5.923 -1.4553  3.2995 -1.1918
  132MOL    C8034402   2.362   6.198   6.037  0.2582  0.0388 -0.2345
  132MOL    C8134403   2.327   6.331   6.121  0.1463  1.3509  0.5232
  132MOL    C8234404   2.445   6.427   6.154 -0.1595 -0.4283 -0.5353
  132MOL    C8334405   2.381   6.358   6.265  0.0999  0.6958  0.1750
  132MOL    C8434406   2.409   6.219   5.896 -0.9924  0.2110  0.7248
  132MOL    H8534407   2.440   6.133   6.079  0.0214 -0.3052 -0.3224
  132MOL    H8634408   2.238   6.381   6.083  0.0774  0.3831 -0.6322
  132MOL    H8734409   2.433   6.534   6.142 -2.6287 -0.6515 -0.2277
  132MOL    H8834410   2.545   6.395   6.123 -0.6218 -1.6300 -0.8323
  132MOL    H8934411   2.443   6.282   6.310 -0.0265  1.4468  1.6514
  132MOL    H9034412   2.322   6.422   6.331 -2.2111 -0.8136 -0.3598
  132MOL    H9134413   2.324   6.265   5.845  0.9414 -0.4854 -3.3983
  132MOL    H9234414   2.489   6.292   5.898  1.0309 -1.9129 -0.0907
  132MOL    C9334415   2.466   6.090   5.825 -0.6545  0.0345 -0.0146
  132MOL    C9434416   2.450   6.102   5.677  0.3082  0.4895  0.1422
  132MOL    C9534417   2.383   5.989   5.602  0.2983 -0.1514  0.0149
  132MOL    C9634418   2.311   6.121   5.614  0.7481  0.1350  0.0303
  132MOL    C9734419   2.618   6.058   5.856  0.1887 -0.4927  0.1605
  132MOL    H9834420   2.420   6.002   5.870 -0.4056 -0.4747 -0.7621
  132MOL    H9934421   2.518   6.169   5.625  2.6507  0.9977  3.6468
  132MOL   H10034422   2.413   5.973   5.499 -0.6713  0.1459 -0.3198
  132MOL   H10134423   2.344   5.901   5.653  3.0764 -1.9251 -0.8176
  132MOL   H10234424   2.287   6.162   5.516  1.1089 -2.9530 -1.4056
  132MOL   H10334425   2.222   6.121   5.677 -0.4020  0.8610 -1.5676
  132MOL   H10434426   2.658   6.075   5.956  1.7812  1.5635 -0.7975
  132MOL   H10534427   2.675   6.126   5.793  1.1326 -0.4388  1.0582
  132MOL   C10634428   2.654   5.919   5.808  0.0518  0.4786  0.8219
  132MOL   C10734429   2.802   5.913   5.762  0.5124 -0.2735 -0.1040
  132MOL   C10834430   2.854   5.848   5.635  0.5915 -0.8536  0.5268
  132MOL   C10934431   2.862   5.994   5.652 -0.5491 -0.2674  0.2381
  132MOL   C11034432   2.632   5.818   5.926 -0.6625  0.0367  0.4691
  132MOL   H11134433   2.586   5.894   5.727  1.0878 -0.0717  0.1107
  132MOL   H11234434   2.859   5.897   5.853 -0.1674  0.0674  0.3918
  132MOL   H11334435   2.951   5.801   5.620  1.1991  0.6892 -0.4941
  132MOL   H11434436   2.779   5.803   5.570 -1.4072  2.3006  0.5716
  132MOL   H11534437   2.798   6.061   5.594 -0.0117 -0.5778 -0.7277
  132MOL   H11634438   2.957   6.045   5.667  0.1137 -0.9203 -1.5616
  132MOL   H11734439   2.699   5.845   6.008  0.5514  0.3583 -0.6120
  132MOL   H11834440   2.534   5.830   5.971 -0.2863 -2.4373  2.0764
  132MOL   C11934441   2.663   5.671   5.894 -0.2125  0.3050 -0.1760
  132MOL   C12034442   2.713   5.587   6.016 -0.3026 -1.4119  0.7146
  132MOL   C12134443   2.858   5.594   6.054  0.1111 -0.4913 -0.0716
  132MOL   C12234444   2.809   5.472   5.993  0.0139 -0.1433  0.1316
  132MOL   C12334445   2.538   5.605   5.830  0.0601 -0.3266  0.1770
  132MOL   H12434446   2.742   5.670   5.818  0.6133 -0.8267  0.6867
  132MOL   H12534447   2.639   5.574   6.094 -2.8170  0.9289 -1.1917
  132MOL   H12634448   2.892   5.579   6.156  2.7623  0.8268 -0.7020
  132MOL   H12734449   2.922   5.657   5.991  0.4539 -0.4838  0.2833
  132MOL   H12834450   2.826   5.448   5.889  0.2562  2.8008 -0.5421
  132MOL   H12934451   2.808   5.389   6.065 -0.3264  0.3613  0.7171
  132MOL   H13034452   2.466   5.599   5.912  0.4266  0.6901  0.5851
  132MOL   H13134453   2.493   5.677   5.761  0.8347  1.9731  2.0177
  132MOL   C13234454   2.555   5.465   5.765  0.5519 -0.2637  0.4289
  132MOL   C13334455   2.609   5.479   5.627  0.2401 -0.1007  0.8720
  132MOL   C13434456   2.683   5.362   5.560 -0.1674  0.2524  0.3596
  132MOL   C13534457   2.758   5.498   5.595  0.0673  0.0143 -0.2505
  132MOL   C13634458   2.416   5.391   5.771  1.0683  0.3706 -0.2240
  132MOL   H13734459   2.623   5.399   5.817  2.1377  1.1057  0.1418
  132MOL   H13834460   2.543   5.532   5.558  0.1318 -0.4164  0.7330
  132MOL   H13934461   2.718   5.278   5.618 -0.2150  0.1505  0.2411
  132MOL   H14034462   2.678   5.338   5.454 -1.1199  0.1844  0.4083
  132MOL   H14134463   2.831   5.486   5.674  0.8183  0.7935 -0.8218
  132MOL   H14234464   2.779   5.564   5.512 -3.0300  0.5333 -0.7129
  132MOL   H14334465   2.339   5.460   5.736 -0.8371 -1.5282  0.1121
  132MOL   H14434466   2.425   5.313   5.696 -0.5080 -1.2119  1.1936
  132MOL   C14534467   2.366   5.330   5.909  0.3031 -0.3749  0.0224
  132MOL   C14634468   2.221   5.286   5.884 -0.2831 -0.0839 -0.5767
  132MOL   C14734469   2.125   5.313   6.000 -0.6530 -0.0397 -0.4353
  132MOL   C14834470   2.097   5.383   5.874 -0.5161  0.0720  0.2676
  132MOL   C14934471   2.455   5.215   5.958  0.5219  0.7314 -0.7510
  132MOL   H15034472   2.363   5.409   5.983  1.6115 -0.2197 -0.0723
  132MOL   H15134473   2.208   5.192   5.830 -1.9911  0.5187 -1.2619
  132MOL   H15234474   2.062   5.232   6.034  0.2282  0.2526  1.9909
  132MOL   H15334475   2.155   5.383   6.077  1.9829 -0.1465 -1.2907
  132MOL   H15434476   2.115   5.491   5.873  1.1773 -0.1966 -0.9630
  132MOL   H15534477   2.020   5.340   5.810  1.0651  0.0117 -1.6238
  132MOL   H15634478   2.456   5.143   5.877  1.9342  0.7326 -0.7431
  132MOL   H15734479   2.556   5.253   5.974  1.0299 -0.2889 -1.4990
  132MOL   C15834480   2.409   5.154   6.094  0.1661 -0.3286 -0.2674
  132MOL   C15934481   2.429   5.253   6.203  0.0178 -0.0471 -0.3967
  132MOL   C16034482   2.480   5.213   6.338  0.5833  0.6883 -0.5987
  132MOL   C16134483   2.566   5.307   6.257  0.4843 -0.3074 -0.7003
  132MOL   C16234484   2.475   5.019   6.115 -0.5687  0.4154 -0.3608
  132MOL   H16334485   2.300   5.156   6.102  0.2200  0.2203  0.4083
  132MOL   H16434486   2.358   5.335   6.200 -0.5669 -0.4954  0.7606
  132MOL   H16534487   2.546   5.131   6.365 -1.6689 -0.4412  1.6005
  132MOL   H16634488   2.418   5.262   6.412 -0.0998  2.2331 -2.1516
  132MOL   H16734489   2.570   5.414   6.273 -0.4238 -0.3390 -0.1797
  132MOL   H16834490   2.643   5.260   6.196  0.3993  0.6912 -1.5789
  132MOL   H16934491   2.443   4.967   6.206  0.3047 -0.4047 -0.5093
  132MOL   H17034492   2.579   5.038   6.141 -0.7759  0.8363  0.1684
  132MOL   C17134493   2.468   4.903   6.012 -0.3183  0.2503  0.2808
  132MOL   C17234494   2.558   4.788   6.062 -0.3138 -0.3600  0.5270
  132MOL   C17334495   2.630   4.683   5.980  0.1325 -0.0840 -0.1566
  132MOL   C17434496   2.706   4.791   6.053 -0.1422 -0.7901 -0.3136
  132MOL   C17534497   2.327   4.848   5.978 -0.0571 -0.3984  0.3350
  132MOL   H17634498   2.506   4.926   5.912  0.6926  0.0063  0.5998
  132MOL   H17734499   2.527   4.751   6.159 -1.0265 -0.3593  0.3009
  132MOL   H17834500   2.623   4.582   6.020 -1.0835  1.4549  3.7528
  132MOL   H17934501   2.639   4.691   5.872  2.0497  1.2438  0.0791
  132MOL   H18034502   2.746   4.861   5.979  1.6942 -1.5781 -0.0995
  132MOL   H18134503   2.763   4.772   6.144 -1.5625 -0.0129  0.7623
  132MOL   H18234504   2.259   4.931   5.964  0.8439  0.0426 -1.5170
  132MOL   H18334505   2.307   4.809   6.078 -2.2071  0.8120  0.4057
  132MOL   C18434506   2.309   4.748   5.860  0.0463 -0.3672  1.0539
  132MOL   C18534507   2.333   4.812   5.720 -0.1174  0.6628 -0.6786
  132MOL   C18634508   2.343   4.729   5.595 -0.2466 -0.0440 -0.1442
  132MOL   C18734509   2.466   4.809   5.652  0.0612 -0.1989  0.7378
  132MOL   C18834510   2.167   4.684   5.867  0.3538  0.0621 -0.6952
  132MOL   H18934511   2.386   4.671   5.871  0.9249  0.3016 -0.2483
  132MOL   H19034512   2.293   4.913   5.716  0.0371  0.8133  1.2082
  132MOL   H19134513   2.293   4.770   5.508 -0.4586  0.8601  0.3941
  132MOL   H19234514   2.341   4.621   5.588 -1.4188  0.0684 -1.7473
  132MOL   H19334515   2.490   4.905   5.608 -1.7232  0.0672  0.3178
  132MOL   H19434516   2.546   4.750   5.698  0.9166 -0.0843 -0.5745
  132MOL   H19534517   2.167   4.602   5.795 -2.0486  0.6313 -1.3794
  132MOL   H19634518   2.094   4.750   5.821  1.2177  1.9513  0.5869
  132MOL   C19734519   2.108   4.626   6.000 -0.0792  0.3006  0.3180
  132MOL   C19834520   2.197   4.501   6.041  0.1757  0.3826  0.0752
  132MOL   C19934521   2.200   4.450   6.184  0.1772  0.4150  0.1619
  132MOL   C20034522   2.324   4.509   6.119 -0.3007 -0.6895  0.8392
  132MOL   C20134523   1.962   4.582   5.980  0.2479 -0.7205 -0.2141
  132MOL   H20234524   2.113   4.697   6.082  0.4659  0.3452  0.2539
  132MOL   H20334525   2.204   4.431   5.958 -2.0869 -1.6631  1.5375
  132MOL   H20434526   2.169   4.509   6.269 -0.2016  1.6438 -0.8145
  132MOL   H20534527   2.188   4.343   6.200 -1.7563  0.4755 -0.7633
  132MOL   H20634528   2.349   4.604   6.164  0.9258 -0.1650 -0.8986
  132MOL   H20734529   2.405   4.443   6.088  0.8003  1.5056 -1.1512
  132MOL   H20834530   1.944   4.578   5.872  1.0552  1.5181 -0.4664
  132MOL   H20934531   1.954   4.481   6.019 -0.0033 -0.6136  0.0116
  132MOL   C21034532   1.855   4.672   6.041  0.0560 -1.2661 -0.2390
  132MOL   C21134533   1.842   4.804   5.953 -0.5069  0.4025  0.2232
  132MOL   C21234534   1.784   4.926   6.020  0.3046 -0.2845  0.1900
  132MOL   C21334535   1.936   4.922   5.969 -0.5716 -1.1694 -0.0020
  132MOL   C21434536   1.722   4.597   6.038  0.6527  0.7354 -0.4351
  132MOL   H21534537   1.892   4.703   6.139 -0.7548  1.4677 -0.7447
  132MOL   H21634538   1.808   4.775   5.854  1.3689 -0.1382 -0.2867
  132MOL   H21734539   1.710   4.983   5.966 -0.6338  0.2907  2.0597
  132MOL   H21834540   1.776   4.920   6.128  2.0008  1.1276  0.4178
  132MOL   H21934541   1.953   5.003   5.898 -1.4361 -0.9914 -0.0152
  132MOL   H22034542   2.020   4.916   6.037  0.2724  0.9500 -0.8124
  132MOL   H22134543   1.645   4.674   6.044  0.4924  0.8980 -3.4184
  132MOL   H22234544   1.709   4.546   5.942 -1.4213  0.1661  0.1378
  132MOL   C22334545   1.706   4.502   6.161 -0.1755  0.1414 -0.3475
  132MOL   C22434546   1.580   4.418   6.139  0.8274 -0.2449  0.4046
  132MOL   C22534547   1.596   4.277   6.086  0.2695 -0.2740  0.1295
  132MOL   C22634548   1.540   4.298   6.228  0.0622 -0.7285  0.1873
  132MOL   C22734549   1.693   4.576   6.296  0.1080  0.1283  0.0046
  132MOL   H22834550   1.793   4.438   6.173 -0.4885 -0.7266 -2.4565
  132MOL   H22934551   1.505   4.470   6.080 -0.8645 -1.6046  1.3329
  132MOL   H23034552   1.696   4.237   6.071  1.1872  1.7297  0.7342
  132MOL   H23134553   1.516   4.250   6.018  0.4657 -1.2070  0.2588
  132MOL   H23234554   1.436   4.267   6.240  0.6034 -2.6200  0.2808
  132MOL   H23334555   1.596   4.278   6.319 -0.4427 -2.0856  0.2230
  132MOL   H23434556   1.649   4.673   6.276  0.2085  0.2404  0.3186
  132MOL   H23534557   1.613   4.527   6.353 -0.2449  0.2156 -0.4175
  132MOL   C23634558   1.817   4.591   6.391 -0.0093 -0.0687 -0.0832
  132MOL   C23734559   1.819   4.498   6.512 -0.1199 -0.0431  0.0300
  132MOL   C23834560   1.840   4.353   6.488  0.0302  0.1723  0.2597
  132MOL   C23934561   1.944   4.427   6.561 -0.0215 -0.4717  0.6460
  132MOL   C24034562   1.820   4.738   6.433 -0.1902  0.0731 -0.4748
  132MOL   H24134563   1.907   4.562   6.337 -1.8029 -1.1357 -2.6345
  132MOL   H24234564   1.745   4.517   6.589  0.1125 -1.5635  0.6356
  132MOL   H24334565   1.785   4.276   6.542 -1.4645 -0.3273 -1.9487
  132MOL   H24434566   1.875   4.320   6.391 -0.3059  1.0077 -0.1442
  132MOL   H24534567   1.954   4.401   6.666 -0.0677 -3.7687 -0.1276
  132MOL   H24634568   2.036   4.420   6.502 -0.3432  2.2063 -0.2850
  132MOL   H24734569   1.802   4.803   6.347 -0.7907 -0.5447 -0.8224
  132MOL   H24834570   1.733   4.753   6.497 -0.5314  0.8957 -1.1124
  132MOL   C24934571   1.948   4.782   6.513 -0.5155  0.0098 -0.1337
  132MOL   C25034572   1.908   4.904   6.597  0.3357 -0.0675  0.7075
  132MOL   C25134573   1.820   4.884   6.715 -0.4236 -0.4568 -0.1232
  132MOL   C25234574   1.962   4.923   6.731  0.3508 -0.0601 -0.5677
  132MOL   C25334575   2.065   4.816   6.424 -0.4648 -0.2723  0.1071
  132MOL   H25434576   1.976   4.706   6.585 -0.8584 -0.2531 -0.2774
  132MOL   H25534577   1.892   4.993   6.536 -0.5417 -0.8504 -0.2391
  132MOL   H25634578   1.742   4.957   6.734 -0.3924 -0.5477  0.3545
  132MOL   H25734579   1.792   4.780   6.730  1.3937 -1.0896 -0.9993
  132MOL   H25834580   2.006   5.023   6.738  0.1491 -0.0612  0.8979
  132MOL   H25934581   2.031   4.846   6.765 -0.1659 -1.0903 -1.8357
  132MOL   H26034582   2.082   4.724   6.367 -2.1760 -1.4557  1.4687
  132MOL   H26134583   2.157   4.840   6.477  0.7915 -2.7047 -0.8668
  132MOL   H26234584   2.038   4.897   6.356 -0.8101  0.6557  1.3457
  133MOL     C134585   7.200   5.862   3.383 -0.5710 -0.4282 -0.0403
  133MOL     C234586   7.159   5.735   3.315  0.0909 -0.6256 -0.2470
  133MOL     C334587   7.231   5.687   3.194 -0.2292 -0.2280  0.1980
  133MOL     C434588   7.098   5.750   3.181  0.5356 -0.3121  0.1484
  133MOL     C534589   7.318   5.828   3.473  0.4758 -0.3475 -0.2050
  133MOL     H634590   7.236   5.936   3.311 -0.7746  0.4520  0.7546
  133MOL     H734591   7.132   5.654   3.382 -1.3276 -0.4029 -0.5282
  133MOL     H834592   7.313   5.737   3.143  0.7642 -1.1366  0.8609
  133MOL     H934593   7.235   5.578   3.189 -0.7681 -0.2404 -0.0187
  133MOL    H1034594   7.020   5.682   3.146 -0.6584  1.2608 -0.3293
  133MOL    H1134595   7.084   5.855   3.153  0.4264  0.3394  2.5402
  133MOL    H1234596   7.392   5.776   3.413 -1.5949 -1.0283 -2.2185
  133MOL    H1334597   7.290   5.759   3.553 -1.0383  0.2002 -0.2420
  133MOL    H1434598   7.118   5.901   3.443 -2.0476 -0.5788 -1.9135
  133MOL    C1534599   7.385   5.947   3.545 -0.3857 -0.0627  0.3417
  133MOL    C1634600   7.284   6.023   3.633 -0.2858 -0.2015  0.1934
  133MOL    C1734601   7.196   6.132   3.582  0.3164  0.1707  0.0436
  133MOL    C1834602   7.305   6.161   3.685 -0.6742  0.8700  0.9342
  133MOL    C1934603   7.510   5.900   3.622 -0.2774  1.2644  0.2321
  133MOL    H2034604   7.423   6.017   3.472 -1.6428  0.9068  0.6113
  133MOL    H2134605   7.247   5.953   3.708  0.7495 -0.6821  0.2558
  133MOL    H2234606   7.092   6.110   3.606  0.8291 -0.0365  2.1962
  133MOL    H2334607   7.219   6.160   3.479  1.2058 -0.9003 -0.0669
  133MOL    H2434608   7.389   6.214   3.641 -0.6182 -1.4473 -1.9212
  133MOL    H2534609   7.274   6.189   3.785 -1.7577  0.0982  0.8272
  133MOL    H2634610   7.482   5.814   3.683 -1.4896  0.9861 -0.6815
  133MOL    H2734611   7.535   5.974   3.698  1.4511  1.6493 -0.6894
  133MOL    C2834612   7.637   5.883   3.540 -0.1210  0.2463  0.0106
  133MOL    C2934613   7.739   5.802   3.614  0.6887  0.1432 -0.2555
  133MOL    C3034614   7.728   5.651   3.622 -0.0001  0.0941 -0.2874
  133MOL    C3134615   0.000   5.710   3.535 -0.2277 -0.7750  0.5194
  133MOL    C3234616   7.704   6.020   3.493  0.0985 -0.2297 -0.1647
  133MOL    H3334617   7.610   5.831   3.449 -1.3455  0.9827 -0.0528
  133MOL    H3434618   7.772   5.862   3.698 -0.1212 -0.0881  0.2386
  133MOL    H3534619   7.650   5.603   3.563  0.4502 -1.2382  0.1703
  133MOL    H3634620   7.749   5.599   3.716  3.6313  0.3000 -0.9058
  133MOL    H3734621   7.834   5.713   3.426  0.3284 -0.1388  0.5088
  133MOL    H3834622   0.103   5.707   3.571  0.4236 -1.0546 -1.2684
  133MOL    H3934623   7.728   6.077   3.583  1.4060 -2.4979  0.9634
  133MOL    H4034624   7.626   6.078   3.444  0.6589  0.1131 -0.6561
  133MOL    C4134625   7.834   6.008   3.396  0.4799  0.1970  0.1150
  133MOL    C4234626   0.081   6.134   3.417 -0.1039  0.2027  0.1997
  133MOL    C4334627   0.228   6.153   3.395 -0.0297 -0.4499  0.3193
  133MOL    C4434628   0.168   6.167   3.537  0.2540  0.1512 -0.3714
  133MOL    C4534629   7.787   6.008   3.248  0.4392  0.4098 -0.3159
  133MOL    H4634630   0.051   5.918   3.422  0.1230  0.1653  0.8117
  133MOL    H4734631   0.017   6.220   3.399 -1.4749 -0.7974  0.2548
  133MOL    H4834632   0.276   6.058   3.374  0.1718 -0.3772  0.4479
  133MOL    H4934633   0.241   6.242   3.334 -0.7759 -0.2487  0.4486
  133MOL    H5034634   0.156   6.264   3.586  0.6293  1.5437 -2.9714
  133MOL    H5134635   0.193   6.086   3.605  0.0572  0.9891  0.7156
  133MOL    H5234636   7.731   6.099   3.228  2.8670  1.9683 -0.1731
  133MOL    H5334637   7.708   5.932   3.242  2.4999 -1.6568 -2.9277
  133MOL    C5434638   0.051   5.972   3.141  0.4054 -0.1467 -0.0398
  133MOL    C5534639   0.107   5.833   3.159  0.8014  0.8129 -0.7822
  133MOL    C5634640   0.212   5.779   3.255 -0.3723  0.1697 -0.0903
  133MOL    C5734641   0.245   5.801   3.114  0.2356  0.4906  0.0453
  133MOL    C5834642   7.836   5.986   2.997 -0.4263  0.9338 -0.5037
  133MOL    H5934643   0.129   6.045   3.164 -0.4355  0.7653 -0.0231
  133MOL    H6034644   0.026   5.768   3.127  1.7210  0.1275 -1.7563
  133MOL    H6134645   0.279   5.839   3.317  0.9295 -0.5461 -0.7718
  133MOL    H6234646   0.194   5.680   3.297 -1.6654  0.7811  0.8349
  133MOL    H6334647   0.253   5.711   3.052 -1.7117  1.2986 -1.4605
  133MOL    H6434648   0.321   5.874   3.089 -0.5658  0.3557 -3.0138
  133MOL    H6534649   0.077   5.938   2.940 -0.8953  0.8072 -1.0535
  133MOL    H6634650   7.756   5.915   2.974  0.8911  0.0005 -2.3459
  133MOL    C6734651   7.791   6.127   2.943  0.2924  0.3200  0.2042
  133MOL    C6834652   0.075   6.206   2.928 -0.0620  0.0483 -0.2240
  133MOL    C6934653   0.067   6.358   2.929  0.0775 -0.0145  0.5451
  133MOL    C7034654   0.133   6.281   3.042 -0.1222  0.3351  0.6496
  133MOL    C7134655   7.709   6.130   2.812  0.5477  0.4105  0.1705
  133MOL    H7234656   7.730   6.183   3.013 -1.1980 -1.8724  0.6861
  133MOL    H7334657   0.153   6.156   2.872  0.1178  0.8975 -0.7407
  133MOL    H7434658   0.130   6.422   2.867 -0.2383 -0.3591 -0.1339
  133MOL    H7534659   7.809   6.401   2.953 -0.2921  0.3157 -1.4913
  133MOL    H7634660   0.083   6.287   3.139 -0.5110 -0.8020  0.5177
  133MOL    H7734661   0.241   6.287   3.049  0.0233 -0.3718 -0.8141
  133MOL    H7834662   7.744   6.062   2.734 -0.0751  0.2364  0.0434
  133MOL    H7934663   7.708   6.223   2.756  2.5528 -0.1582 -0.8751
  133MOL    C8034664   7.561   6.099   2.837  0.1381  0.2540  0.0315
  133MOL    C8134665   7.499   6.025   2.716  0.0061 -0.4345 -0.5229
  133MOL    C8234666   7.401   5.912   2.740  0.3932 -0.3536  0.4899
  133MOL    C8334667   7.532   5.876   2.689 -0.4205  0.5531 -0.7027
  133MOL    C8434668   7.501   6.240   2.863 -0.2215  0.4825 -0.0069
  133MOL    H8534669   7.553   6.042   2.929 -1.1161  3.1495  1.8039
  133MOL    H8634670   7.482   6.074   2.620 -1.6028 -1.9148 -1.0231
  133MOL    H8734671   7.315   5.922   2.674  1.2192 -1.1853 -0.7545
  133MOL    H8834672   7.378   5.890   2.844  0.1630  1.8165  0.9174
  133MOL    H8934673   7.581   5.813   2.763  0.0107 -0.2446 -1.6704
  133MOL    H9034674   7.543   5.822   2.596  0.9804 -1.7933  0.7641
  133MOL    H9134675   7.562   6.300   2.931  1.1710 -2.0778  1.0797
  133MOL    H9234676   7.499   6.297   2.770  2.5934  1.1979  0.3351
  133MOL    C9334677   7.357   6.249   2.912 -0.3710 -0.7500 -0.9892
  133MOL    C9434678   7.365   6.224   3.067  0.9135 -0.3961 -0.4331
  133MOL    C9534679   7.247   6.149   3.137 -0.2969 -0.0511 -0.1254
  133MOL    C9634680   7.387   6.099   3.137  0.3491 -0.1903  0.8126
  133MOL    C9734681   7.278   6.383   2.883 -0.0764 -0.3331  0.5536
  133MOL    H9834682   7.311   6.156   2.879  0.3677 -2.0490  1.5612
  133MOL    H9934683   7.394   6.315   3.121 -1.6747 -0.4699  1.1680
  133MOL   H10034684   7.209   6.196   3.228  0.5108 -0.5844  0.5002
  133MOL   H10134685   7.172   6.091   3.085 -1.6154  0.6189  1.0044
  133MOL   H10234686   7.428   6.102   3.237  0.2832  0.9451  0.8146
  133MOL   H10334687   7.400   6.006   3.082  1.7753 -0.2846  1.2804
  133MOL   H10434688   7.333   6.468   2.923  2.6073 -2.2576  1.0823
  133MOL   H10534689   7.190   6.385   2.947 -1.2945  3.0405 -1.0746
  133MOL   C10634690   7.233   6.406   2.738 -0.6413  0.5938 -0.2371
  133MOL   C10734691   7.125   6.301   2.704  0.1301 -0.0696 -0.4531
  133MOL   C10834692   7.090   6.274   2.554  0.1998 -0.3213  0.5498
  133MOL   C10934693   7.157   6.167   2.633 -1.7052 -0.3683 -0.2373
  133MOL   C11034694   7.211   6.557   2.712 -0.0525 -0.2865 -0.2169
  133MOL   H11134695   7.322   6.373   2.683 -0.9178 -0.0129 -0.3235
  133MOL   H11234696   7.040   6.291   2.771  0.2553 -0.7964 -0.4026
  133MOL   H11334697   6.986   6.275   2.523  1.3853 -1.6125 -3.8271
  133MOL   H11434698   7.151   6.324   2.478  0.6041  1.7800  2.2032
  133MOL   H11534699   7.254   6.143   2.588 -0.3133  2.2907  1.2099
  133MOL   H11634700   7.097   6.083   2.666  0.7164 -2.3667 -0.7217
  133MOL   H11734701   7.303   6.610   2.739 -0.5553  1.3304 -1.5705
  133MOL   H11834702   7.193   6.580   2.607 -1.0747  0.4765  0.1137
  133MOL   C11934703   7.090   6.618   2.795 -0.6167 -0.2332 -0.6699
  133MOL   C12034704   7.142   6.762   2.827 -0.3770  0.2816 -0.7430
  133MOL   C12134705   7.217   6.780   2.958 -0.3804 -0.2321  0.3581
  133MOL   C12234706   7.079   6.843   2.939 -0.1614  0.1659 -0.3147
  133MOL   C12334707   6.960   6.623   2.711 -0.0775  0.0703  0.2509
  133MOL   H12434708   7.053   6.576   2.888 -1.0598 -0.8102 -1.1058
  133MOL   H12534709   7.173   6.824   2.743 -0.3363  2.2390  0.6815
  133MOL   H12634710   7.296   6.855   2.954 -0.1376 -0.3080  3.0817
  133MOL   H12734711   7.233   6.700   3.031  2.2892  1.2425  1.4640
  133MOL   H12834712   6.994   6.797   2.988 -1.2106 -0.9206 -3.0656
  133MOL   H12934713   7.086   6.951   2.923  1.2287 -0.0010 -0.9283
  133MOL   H13034714   6.973   6.698   2.633  0.7725 -1.4423 -1.0978
  133MOL   H13134715   6.951   6.525   2.664 -1.1039  0.5595 -0.5695
  133MOL   C13234716   6.831   6.664   2.781 -0.1916 -0.0223  0.1136
  133MOL   C13334717   6.750   6.546   2.823  0.0028  0.5561 -0.0871
  133MOL   C13434718   6.636   6.551   2.928  0.1836 -0.2368  0.0475
  133MOL   C13534719   6.763   6.475   2.957 -0.6278  0.2765 -0.3391
  133MOL   C13634720   6.746   6.756   2.697 -0.5046 -0.2560  0.6415
  133MOL   H13734721   6.857   6.721   2.870 -2.4114 -0.0448  0.8284
  133MOL   H13834722   6.736   6.479   2.739 -1.0329  0.5677  0.0721
  133MOL   H13934723   6.626   6.643   2.986 -1.7412 -0.3546 -0.0718
  133MOL   H14034724   6.551   6.486   2.907 -0.1494  0.3686 -0.4705
  133MOL   H14134725   6.825   6.523   3.032  0.3549  0.1133 -1.0344
  133MOL   H14234726   6.761   6.368   2.975 -0.2370  0.1897 -0.8067
  133MOL   H14334727   6.725   6.707   2.602 -0.8854  0.7730  0.1856
  133MOL   H14434728   6.657   6.766   2.759 -1.1736  1.9918 -0.6450
  133MOL   C14534729   6.786   6.899   2.651  0.4978 -0.7300 -0.3821
  133MOL   C14634730   6.685   6.948   2.556 -0.0840  0.1307  0.2642
  133MOL   C14734731   6.702   7.046   2.448 -0.4401 -0.1084  0.3872
  133MOL   C14834732   6.683   6.902   2.411  0.3784  0.8086 -0.2056
  133MOL   C14934733   6.807   7.011   2.763  0.0699 -0.4078  0.3515
  133MOL   H15034734   6.881   6.883   2.599  1.3871 -0.2730  1.0720
  133MOL   H15134735   6.587   6.931   2.600  0.2604 -1.4494  0.4659
  133MOL   H15234736   6.617   7.111   2.428 -0.2117  0.0478 -0.1053
  133MOL   H15334737   6.800   7.094   2.441  0.1841 -1.0520  2.4395
  133MOL   H15434738   6.764   6.854   2.357  1.0772 -0.6027  2.0530
  133MOL   H15534739   6.585   6.862   2.388  0.6568 -1.2346  1.9277
  133MOL   H15634740   6.708   7.036   2.800  0.5803 -0.5515  1.8566
  133MOL   H15734741   6.864   6.983   2.852 -1.2458  1.1495  1.7159
  133MOL   C15834742   6.872   7.138   2.710  0.8487 -0.5445 -0.7953
  133MOL   C15934743   7.019   7.125   2.688  0.1213  0.0851  0.6613
  133MOL   C16034744   7.071   7.063   2.566 -0.1356 -0.3549  0.0794
  133MOL   C16134745   7.101   7.206   2.582  0.9552 -0.2137  0.1020
  133MOL   C16234746   6.848   7.253   2.807  0.1377 -0.1527 -0.3019
  133MOL   H16334747   6.817   7.163   2.620 -2.1583  0.2094  1.1545
  133MOL   H16434748   7.080   7.083   2.768  1.3033  0.7718  0.1349
  133MOL   H16534749   7.000   7.051   2.484  1.4987 -2.2175 -1.1135
  133MOL   H16634750   7.162   7.004   2.565 -0.1564 -0.4377  1.4920
  133MOL   H16734751   7.196   7.247   2.614  0.7577  0.5675 -0.3116
  133MOL   H16834752   7.044   7.269   2.515  1.3482 -2.1813 -2.1443
  133MOL   H16934753   6.921   7.332   2.788 -0.9787  1.0977  0.4142
  133MOL   H17034754   6.840   7.220   2.911 -2.5737 -1.6244 -0.9313
  133MOL   C17134755   6.707   7.323   2.798  0.0097 -0.5259 -0.9329
  133MOL   C17234756   6.687   7.423   2.914 -0.5286  0.0907 -0.1974
  133MOL   C17334757   6.559   7.453   2.977  0.2486 -0.5955  0.5082
  133MOL   C17434758   6.656   7.362   3.055 -0.1283 -0.0908  0.7272
  133MOL   C17534759   6.699   7.409   2.677  0.0819 -0.1546  0.2318
  133MOL   H17634760   6.630   7.247   2.803 -0.9584  0.5506  1.2513
  133MOL   H17734761   6.759   7.504   2.909  0.5065 -0.7897  0.1989
  133MOL   H17834762   6.555   7.550   3.026  2.9032 -0.6936  1.0140
  133MOL   H17934763   6.469   7.404   2.940 -0.0919  0.3835  0.0061
  133MOL   H18034764   6.611   7.263   3.063 -0.4683 -0.0796 -1.0156
  133MOL   H18134765   6.696   7.401   3.148 -0.5479 -0.7813  1.2022
  133MOL   H18234766   6.746   7.350   2.598 -0.4916  0.3593 -0.4969
  133MOL   H18334767   6.758   7.498   2.700 -0.6417  0.3707  0.0637
  133MOL   C18434768   6.559   7.452   2.634  0.3014 -1.1732 -0.3996
  133MOL   C18534769   6.488   7.331   2.584  0.0772  0.8772 -0.4081
  133MOL   C18634770   6.336   7.328   2.571 -0.3381  0.5123  0.3310
  133MOL   C18734771   6.401   7.235   2.672 -0.4216 -0.5229  0.7150
  133MOL   C18834772   6.560   7.560   2.521 -0.0969 -0.2537  0.9055
  133MOL   H18934773   6.504   7.488   2.721 -1.0069 -1.5295 -1.0834
  133MOL   H19034774   6.535   7.286   2.497 -1.6088  2.0001 -1.9227
  133MOL   H19134775   6.297   7.268   2.489  0.6703 -0.5794  0.6349
  133MOL   H19234776   6.278   7.417   2.593 -2.1074 -0.5563  0.1417
  133MOL   H19334777   6.408   7.128   2.655 -0.2868 -0.5558  0.9864
  133MOL   H19434778   6.385   7.265   2.775 -0.6416  0.5698  0.3743
  133MOL   H19534779   6.458   7.570   2.486 -0.0588  0.3550  0.9538
  133MOL   H19634780   6.625   7.536   2.437  1.2021  3.1237  0.8603
  133MOL   C19734781   6.606   7.711   2.550  0.0614  0.3062  0.3401
  133MOL   C19834782   6.519   7.777   2.650 -0.0975  0.2799  0.2539
  133MOL   C19934783   6.570   0.064   2.719 -0.0006  0.1923 -0.5360
  133MOL   C20034784   6.555   7.779   2.796 -0.2656 -0.6196 -0.1798
  133MOL   C20134785   6.615   7.795   2.429  0.0434 -0.4050  0.1586
  133MOL   H20234786   6.704   7.713   2.599  0.8431 -0.0425 -1.1637
  133MOL   H20334787   6.416   7.783   2.616  0.6704 -1.1241 -2.4511
  133MOL   H20434788   6.673   0.090   2.694  0.7421 -2.9209 -0.8937
  133MOL   H20534789   6.501   0.144   2.746 -1.1577 -0.7404 -0.7170
  133MOL   H20634790   6.650   7.762   2.845 -1.5929  0.7628  2.9835
  133MOL   H20734791   6.474   7.774   2.869 -1.3936 -1.6219 -1.4690
  133MOL   H20834792   6.530   7.785   2.361  0.1330 -0.8285  0.1089
  133MOL   H20934793   6.614   0.058   2.468 -1.2764 -0.6907  0.9119
  133MOL   C21034794   6.751   7.786   2.353 -0.3098  0.5835 -0.6671
  133MOL   C21134795   6.743   0.033   2.223  0.2438 -0.5744 -0.4940
  133MOL   C21234796   6.813   0.011   2.101  0.4207 -0.4653  0.7076
  133MOL   C21334797   6.668   7.815   2.111 -0.6366 -0.9241  0.0495
  133MOL   C21434798   6.875   7.834   2.435  0.8985  0.4705 -0.4937
  133MOL   H21534799   6.762   7.682   2.320  1.9585  1.1612 -1.8686
  133MOL   H21634800   6.753   0.141   2.237  1.1501 -1.0599  2.9811
  133MOL   H21734801   6.825   0.095   2.033  1.3214 -0.9466  0.2563
  133MOL   H21834802   6.890   7.774   2.114  2.2107  1.3843  1.2860
  133MOL   H21934803   6.606   0.050   2.061  0.4542 -0.7574 -1.0698
  133MOL   H22034804   6.642   7.711   2.092  2.1630 -1.7315  0.4204
  133MOL   H22134805   6.863   0.103   2.443 -0.3293  0.4847 -2.2836
  133MOL   H22234806   6.868   7.798   2.538  0.7224  1.4426 -0.1581
  133MOL   C22334807   7.014   7.796   2.380  1.0755  0.4523  0.0400
  133MOL   C22434808   7.043   7.649   2.406 -0.6588  0.1679  0.0549
  133MOL   C22534809   7.013   7.539   2.302 -0.8255 -0.5974  0.1257
  133MOL   C22634810   7.156   7.564   2.343 -0.0298 -0.1768  0.4094
  133MOL   C22734811   7.121   0.030   2.456 -0.7010 -0.7289 -0.2789
  133MOL   H22834812   7.025   7.820   2.275  1.6407 -1.8617 -0.4557
  133MOL   H22934813   7.026   7.620   2.509  1.6384  1.9612  0.9825
  133MOL   H23034814   6.971   7.570   2.207  0.1050 -1.8035 -0.7058
  133MOL   H23134815   6.980   7.442   2.339  1.1405 -0.5114  2.2460
  133MOL   H23234816   7.209   7.486   2.397  1.2971  0.1437 -0.4022
  133MOL   H23334817   7.219   7.596   2.261 -2.1898 -0.2319 -1.3147
  133MOL   H23434818   7.117   7.839   2.561 -0.9089 -0.7741 -0.2989
  133MOL   H23534819   7.221   7.834   2.433 -0.1326  1.3064 -1.0648
  133MOL   C23634820   7.138   0.184   2.447  0.1132  0.2910 -0.0280
  133MOL   C23734821   7.174   0.233   2.303 -0.0091 -0.0540  0.8315
  133MOL   C23834822   7.069   0.256   2.193  0.2391 -0.5363  0.2139
  133MOL   C23934823   7.132   0.373   2.244 -0.1624 -0.2182  0.0515
  133MOL   C24034824   7.240   0.246   2.538  0.4135  0.1603 -0.1676
  133MOL   H24134825   7.045   0.233   2.474 -0.0160  0.2859 -0.4591
  133MOL   H24234826   7.267   0.188   2.268 -1.1702 -1.9464  0.1151
  133MOL   H24334827   7.094   0.222   2.093  0.2919 -1.5916  0.5857
  133MOL   H24434828   6.963   0.250   2.216 -0.1055 -2.5584 -1.7670
  133MOL   H24534829   7.076   0.445   2.303  0.0493 -0.0383  0.0354
  133MOL   H24634830   7.192   0.426   2.170  0.8890 -0.8688  0.4337
  133MOL   H24734831   7.336   0.202   2.514  0.5547  0.7017 -0.6142
  133MOL   H24834832   7.251   0.352   2.512  0.0057  0.3794  0.5143
  133MOL   C24934833   7.208   0.220   2.694 -0.3719 -0.2304 -0.3525
  133MOL   C25034834   7.083   0.290   2.740  0.0201 -0.7730 -0.1989
  133MOL   C25134835   6.947   0.226   2.728 -0.4895 -0.5451 -0.7600
  133MOL   C25234836   7.003   0.243   2.862 -0.4142  0.1780  0.3796
  133MOL   C25334837   7.332   0.262   2.772  0.2055  0.0059 -0.0627
  133MOL   H25434838   7.190   0.114   2.715  0.4077 -0.5846 -1.4091
  133MOL   H25534839   7.083   0.394   2.708  0.0458 -0.4913  0.6892
  133MOL   H25634840   6.868   0.298   2.711 -0.6931  0.0243  2.4498
  133MOL   H25734841   6.934   0.119   2.710 -3.0527 -0.2052 -1.1070
  133MOL   H25834842   6.954   0.314   2.928 -2.6647 -0.7739 -0.2214
  133MOL   H25934843   7.052   0.161   2.915 -1.8437  0.0420  1.5529
  133MOL   H26034844   7.391   0.338   2.722  1.6497 -1.5314 -0.7596
  133MOL   H26134845   7.402   0.179   2.786  1.1060  1.0159  1.6060
  133MOL   H26234846   7.314   0.307   2.869 -2.0126  1.2353 -1.0246
  134MOL     C134847   2.762   4.024   7.445 -0.6907  0.7383 -0.0485
  134MOL     C234848   2.725   4.149   7.369 -0.4790  0.1396  0.0378
  134MOL     C334849   2.824   4.264   7.355  0.3694 -0.6012 -0.5158
  134MOL     C434850   2.697   4.275   7.432  0.0531  0.2197 -0.1836
  134MOL     C534851   2.804   3.911   7.351 -0.0303 -0.5045  0.1842
  134MOL     H634852   2.832   4.049   7.526 -1.5303  0.0289  0.9105
  134MOL     H734853   2.667   4.132   7.278  1.0387  1.8297 -1.2870
  134MOL     H834854   2.921   4.251   7.402  0.6053  0.6941 -0.6106
  134MOL     H934855   2.822   4.300   7.253 -4.2757 -1.4011 -0.7999
  134MOL    H1034856   2.619   4.338   7.390  2.6313  1.1802 -3.7071
  134MOL    H1134857   2.705   4.265   7.540  1.7994 -1.2248 -0.4316
  134MOL    H1234858   2.897   3.940   7.304 -0.1714  0.3864  0.4506
  134MOL    H1334859   2.737   3.890   7.268 -1.2549  3.4156  0.0795
  134MOL    H1434860   2.679   3.996   7.510  0.7157 -0.0338  1.4590
  134MOL    C1534861   2.830   3.775   7.413 -0.1101 -0.1085  0.4311
  134MOL    C1634862   2.948   3.763   7.507 -0.8373  0.0059  0.1675
  134MOL    C1734863   3.086   3.762   7.455 -0.2216  0.0309 -0.3055
  134MOL    C1834864   3.028   3.634   7.504  0.2103  0.3198 -0.3127
  134MOL    C1934865   2.700   3.722   7.480  0.6759  0.7978  0.5161
  134MOL    H2034866   2.852   3.708   7.330 -2.7053 -0.0329 -0.3761
  134MOL    H2134867   2.931   3.797   7.609 -0.5335 -0.9841  0.5624
  134MOL    H2234868   3.160   3.800   7.524 -0.4826 -1.6413  0.9273
  134MOL    H2334869   3.095   3.794   7.351  0.7133  1.8351  0.3071
  134MOL    H2434870   2.994   3.561   7.431  1.9100  1.7091 -2.5594
  134MOL    H2534871   3.075   3.589   7.591  1.8166 -2.2618 -2.4543
  134MOL    H2634872   2.608   3.765   7.441  0.8352  0.8401  0.1895
  134MOL    H2734873   2.703   3.754   7.584  0.4073  0.1004  0.7442
  134MOL    C2834874   2.680   3.569   7.502  0.4212 -0.5672  0.1225
  134MOL    C2934875   2.618   3.494   7.382  0.1015 -0.2286 -0.2945
  134MOL    C3034876   2.697   3.433   7.270 -0.9030  0.3313  0.1732
  134MOL    C3134877   2.638   3.345   7.376 -0.6122  0.0457 -0.1292
  134MOL    C3234878   2.592   3.543   7.625 -0.2182 -0.1556  0.2453
  134MOL    H3334879   2.774   3.516   7.520  0.4792 -0.1900  0.9797
  134MOL    H3434880   2.515   3.523   7.361 -0.6347  0.1679  3.4419
  134MOL    H3534881   2.806   3.432   7.279 -0.6729  2.6452 -1.8157
  134MOL    H3634882   2.649   3.427   7.172 -0.7581 -1.8160  0.2144
  134MOL    H3734883   2.716   3.291   7.430 -1.0898  1.2166  1.7657
  134MOL    H3834884   2.561   3.280   7.336 -1.1838  0.5432  0.1619
  134MOL    H3934885   2.549   3.444   7.607  0.3875 -0.1461 -1.2910
  134MOL    H4034886   2.497   3.595   7.628 -1.7374 -2.8602  1.6870
  134MOL    C4134887   2.662   3.548   7.771 -0.0104 -0.2103  0.2181
  134MOL    C4234888   2.674   3.696   7.822  0.3941  0.3020 -0.1726
  134MOL    C4334889   2.607   3.728   0.117  0.5285 -0.1223 -0.5087
  134MOL    C4434890   2.553   3.781   7.820 -0.0426 -0.6166 -0.5232
  134MOL    C4534891   2.794   3.474   7.796 -0.2137 -0.1423  0.1176
  134MOL    H4634892   2.602   3.491   0.002  0.9240 -0.1834  1.0539
  134MOL    H4734893   2.772   3.744   7.820 -0.6127  2.4784  0.5556
  134MOL    H4834894   2.547   3.647   0.157 -0.2148  1.1570  1.0377
  134MOL    H4934895   2.637   3.809   0.183  1.5917 -1.4683  0.6780
  134MOL    H5034896   2.560   3.888   7.800 -3.0076  0.3928  3.2053
  134MOL    H5134897   2.462   3.738   7.780 -0.2876 -1.6797  1.1271
  134MOL    H5234898   2.819   3.473   0.063  0.2018 -1.8509  0.0259
  134MOL    H5334899   2.873   3.530   7.747 -0.2819 -0.9271 -0.9302
  134MOL    C5434900   2.793   3.332   7.744 -0.1377  0.0983 -0.0802
  134MOL    C5534901   2.933   3.272   7.770  0.9851  0.3915  0.2850
  134MOL    C5634902   3.042   3.306   7.677 -0.0117  0.4356 -0.0924
  134MOL    C5734903   2.992   3.165   7.684 -0.1886  0.1425  0.0766
  134MOL    C5834904   2.676   3.246   7.804 -0.1252  0.9058  0.4752
  134MOL    H5934905   2.779   3.331   7.636  0.6805  1.6168 -0.2196
  134MOL    H6034906   2.945   3.247   0.036  0.7708 -2.3208 -0.2970
  134MOL    H6134907   3.017   3.367   7.590  0.4619 -0.2117 -0.6879
  134MOL    H6234908   3.134   3.329   7.730 -0.3034 -1.0272  1.0961
  134MOL    H6334909   3.053   3.098   7.744  1.3060  0.7603 -0.7176
  134MOL    H6434910   2.945   3.127   7.594  2.0203 -2.9894  0.1947
  134MOL    H6534911   2.664   3.278   0.068 -2.3883 -0.3167  0.6223
  134MOL    H6634912   2.583   3.284   7.762 -0.6710 -2.3663 -1.4388
  134MOL    C6734913   2.677   3.089   7.802 -1.0189 -0.3354 -0.1020
  134MOL    C6834914   2.597   3.039   0.088  0.1777  0.7827  0.0818
  134MOL    C6934915   2.628   2.909   0.172 -0.3028 -0.1002  0.1384
  134MOL    C7034916   2.682   3.046   0.217 -0.1640 -0.1316  0.9467
  134MOL    C7134917   2.623   3.051   7.664 -0.1658  0.3068  0.0001
  134MOL    H7234918   2.780   3.057   7.819 -1.2675 -0.2493  1.6484
  134MOL    H7334919   2.494   3.072   0.095  0.5620  1.5972  2.0757
  134MOL    H7434920   2.545   2.864   0.225 -0.2178 -0.2009  0.1862
  134MOL    H7534921   2.704   2.841   0.134 -0.5278 -1.4001  1.9751
  134MOL    H7634922   2.789   3.063   0.217  0.0811 -1.6331 -0.0390
  134MOL    H7734923   2.615   3.075   0.299 -0.5686  3.1149 -0.4538
  134MOL    H7834924   2.696   3.097   7.597 -0.1769  1.3231  0.6776
  134MOL    H7934925   2.531   3.106   7.646  0.8662  1.9165 -0.4171
  134MOL    C8034926   2.609   2.906   7.620  0.2484 -0.4344  0.0261
  134MOL    C8134927   2.482   2.853   7.675 -0.8233  0.1690  0.6502
  134MOL    C8234928   2.410   2.743   7.611  0.7194 -0.3600  0.4600
  134MOL    C8334929   2.351   2.882   7.598 -0.1730  0.4250  0.2243
  134MOL    C8434930   2.740   2.823   7.660 -0.3278 -0.8008  0.3227
  134MOL    H8534931   2.601   2.908   7.511  1.4637 -1.2897 -0.0915
  134MOL    H8634932   2.480   2.860   7.783  1.8797 -0.1759  0.7586
  134MOL    H8734933   2.361   2.676   7.681  0.1771 -1.2438 -0.7439
  134MOL    H8834934   2.470   2.691   7.537  1.1518  1.1828 -0.3010
  134MOL    H8934935   2.367   2.933   7.504 -1.0542  0.1278 -0.0864
  134MOL    H9034936   2.260   2.903   7.654 -1.0943 -1.9985 -0.3070
  134MOL    H9134937   2.838   2.871   7.656 -0.6391 -0.0456  1.7856
  134MOL    H9234938   2.723   2.803   7.765  2.4941  0.7378  1.1123
  134MOL    C9334939   2.763   2.697   7.579  0.1721  0.5182 -0.6615
  134MOL    C9434940   2.799   2.726   7.433 -0.1063 -0.2587  0.1103
  134MOL    C9534941   2.789   2.612   7.334 -0.0293  0.0151  0.1721
  134MOL    C9634942   2.692   2.736   7.322  0.4360  0.3512 -0.0014
  134MOL    C9734943   2.876   2.608   7.637  0.0675 -0.9327 -0.1459
  134MOL    H9834944   2.675   2.633   7.572 -0.4366  1.1993  0.5148
  134MOL    H9934945   2.887   2.788   7.420  0.2825 -0.5516  1.3480
  134MOL   H10034946   2.863   2.602   7.256  1.0089  0.6486  1.0715
  134MOL   H10134947   2.741   2.518   7.360 -1.0170 -0.0339 -1.7839
  134MOL   H10234948   2.701   2.798   7.234 -0.8740 -0.1158 -0.4699
  134MOL   H10334949   2.595   2.744   7.370  0.5589  0.5783  0.2089
  134MOL   H10434950   2.964   2.672   7.648 -1.3285  0.8830  0.8336
  134MOL   H10534951   2.891   2.526   7.567 -2.6119  1.0846 -3.1921
  134MOL   C10634952   2.852   2.536   7.770 -0.0275  0.0524  0.1004
  134MOL   C10734953   2.728   2.450   7.776  0.2090  0.8038  0.0223
  134MOL   C10834954   2.653   2.416   0.062  0.4412 -0.2649 -0.1315
  134MOL   C10934955   2.587   2.505   7.790  0.5031  0.7436  0.3692
  134MOL   C11034956   2.974   2.452   7.819  0.3300  0.1357  0.0925
  134MOL   H11134957   2.845   2.614   0.007 -0.5935  1.0212 -0.9288
  134MOL   H11234958   2.740   2.359   7.718  1.0441  2.4436 -2.4924
  134MOL   H11334959   2.617   2.317   0.090  2.4812 -1.1091 -0.4500
  134MOL   H11434960   2.686   2.476   0.148 -2.9270 -0.4052  1.3435
  134MOL   H11534961   2.570   2.611   7.806  0.4651  0.5743  1.4760
  134MOL   H11634962   2.512   2.462   7.723  0.0826  0.9416  0.7069
  134MOL   H11734963   2.948   2.350   0.007 -2.2804  0.2573 -1.7232
  134MOL   H11834964   3.035   2.433   7.731  0.0320  1.2058 -0.3559
  134MOL   C11934965   3.068   2.522   0.090 -0.5239 -1.0039 -0.1805
  134MOL   C12034966   3.128   2.651   0.044  0.2078 -0.0671  0.3580
  134MOL   C12134967   3.234   2.653   7.774  0.5614 -0.4367  0.6714
  134MOL   C12234968   3.272   2.694   0.073 -0.4703 -0.3841 -0.7847
  134MOL   C12334969   3.015   2.543   0.230 -0.0845 -0.1062 -0.6931
  134MOL   H12434970   3.154   2.456   0.094  1.8479  1.9184 -0.9471
  134MOL   H12534971   3.067   2.740   0.050  1.1439  0.6552 -0.6378
  134MOL   H12634972   3.207   2.725   7.696  1.3759  0.5453  1.2964
  134MOL   H12734973   3.293   2.566   7.747 -2.2938 -2.4230  0.5607
  134MOL   H12834974   3.323   2.623   0.138 -1.0455  0.4596  0.6087
  134MOL   H12934975   3.303   2.797   0.091  0.4976 -0.9123  0.6962
  134MOL   H13034976   3.035   2.646   0.258 -3.2277 -0.3979  3.0953
  134MOL   H13134977   2.907   2.527   0.229 -0.3775  0.6847  3.7693
  134MOL   C13234978   3.079   2.458   0.346 -1.1380 -0.1887  0.1381
  134MOL   C13334979   3.228   2.481   0.367  0.3637 -0.5131  0.3390
  134MOL   C13434980   3.282   2.468   0.503 -0.0666 -1.1404 -0.1207
  134MOL   C13534981   3.280   2.604   0.435 -0.1956  1.1168 -0.3818
  134MOL   C13634982   3.058   2.315   0.332 -0.7596  0.6500  0.2744
  134MOL   H13734983   3.033   2.485   0.441 -0.0275  1.2485  0.2934
  134MOL   H13834984   3.295   2.458   0.284  0.9602  1.6619  0.1696
  134MOL   H13934985   3.219   2.462   0.592 -0.9307  0.9953 -0.5548
  134MOL   H14034986   3.379   2.421   0.514 -0.3788 -1.4940  1.2123
  134MOL   H14134987   3.205   2.676   0.466 -1.6078 -0.9954  1.2330
  134MOL   H14234988   3.377   2.642   0.403 -0.1673  0.4262 -1.1500
  134MOL   H14334989   3.127   2.283   0.253  0.9790 -1.7377  2.6904
  134MOL   H14434990   3.097   2.258   0.416  1.1680  0.7948 -0.4943
  134MOL   C14534991   2.913   2.266   0.301 -0.0151 -0.1342 -0.1928
  134MOL   C14634992   2.905   2.116   0.282  0.3909  0.4098 -0.0294
  134MOL   C14734993   2.802   2.051   0.189  0.2931  0.4010  0.0417
  134MOL   C14834994   2.952   2.060   0.154 -0.1447  0.0538 -0.6671
  134MOL   C14934995   2.806   2.311   0.400  0.2151  0.2378  0.0185
  134MOL   H15034996   2.896   2.308   0.202 -2.1775 -0.5199 -0.0092
  134MOL   H15134997   2.930   2.062   0.373 -3.1282 -0.2753  0.6051
  134MOL   H15234998   2.765   1.949   0.198 -0.6966  0.5345 -2.2144
  134MOL   H15334999   2.736   2.122   0.139 -1.6426 -1.0087  0.5392
  134MOL   H15435000   2.991   2.128   0.079  4.0708  0.7019  1.9046
  134MOL   H15535001   3.011   1.970   0.173  0.0170 -0.1507 -2.1319
  134MOL   H15635002   2.818   2.419   0.403  1.7174  0.0573  1.0404
  134MOL   H15735003   2.704   2.293   0.364  0.3752  0.0295 -0.3390
  134MOL   C15835004   2.816   2.246   0.543  0.7932 -0.0198 -0.2863
  134MOL   C15935005   2.723   2.126   0.549  0.0284  0.0325 -0.1659
  134MOL   C16035006   2.770   1.981   0.558 -0.0882 -0.3609 -0.1157
  134MOL   C16135007   2.689   2.049   0.675  0.0593 -0.0681  0.3246
  134MOL   C16235008   2.786   2.348   0.654  0.3711 -0.1161  0.0973
  134MOL   H16335009   2.918   2.211   0.561  1.6476  2.0180 -1.0339
  134MOL   H16435010   2.631   2.145   0.495 -0.4762 -0.8942  0.3605
  134MOL   H16535011   2.871   1.957   0.590 -0.7348 -4.0333 -0.6496
  134MOL   H16635012   2.715   1.906   0.502 -1.0526  0.8330 -0.8114
  134MOL   H16735013   2.586   2.014   0.684 -0.3838  1.3036  0.7549
  134MOL   H16835014   2.749   2.056   0.765 -0.5387 -1.1230  0.8098
  134MOL   H16935015   2.852   2.434   0.652 -1.5047  1.3662  0.7074
  134MOL   H17035016   2.816   2.291   0.742 -0.7036  0.4025  0.8090
  134MOL   C17135017   2.641   2.406   0.670  0.2244 -0.1002 -0.0839
  134MOL   C17235018   2.609   2.416   0.819 -0.1177  0.4371 -0.2224
  134MOL   C17335019   2.476   2.415   0.882  0.4485 -0.3720  0.0521
  134MOL   C17435020   2.563   2.293   0.893 -0.5017  0.5661  0.5348
  134MOL   C17535021   2.629   2.541   0.594 -1.0549 -0.3268  0.3608
  134MOL   H17635022   2.577   2.333   0.620  1.2508 -1.4366  0.5042
  134MOL   H17735023   2.667   2.490   0.873  1.3335 -0.4632 -0.5141
  134MOL   H17835024   2.469   2.486   0.964  0.6500 -3.1825  2.5405
  134MOL   H17935025   2.398   2.422   0.805 -0.5435 -4.2677  0.5983
  134MOL   H18035026   2.525   2.214   0.829 -1.0286  0.9035  0.4297
  134MOL   H18135027   2.636   2.263   0.968 -0.1348  2.1368  0.8323
  134MOL   H18235028   2.674   2.537   0.495 -1.3816  1.9030  0.1040
  134MOL   H18335029   2.702   2.605   0.643  2.4841 -3.2268 -0.8516
  134MOL   C18435030   2.507   2.626   0.580 -0.1613 -0.2841  0.5863
  134MOL   C18535031   2.413   2.563   0.468  0.4150 -0.6397  0.0791
  134MOL   C18635032   2.456   2.573   0.320 -0.3531 -0.4673 -0.0594
  134MOL   C18735033   2.336   2.647   0.360  0.2788 -1.2494  0.0451
  134MOL   C18835034   2.524   2.778   0.578 -0.0649  0.1456  0.2379
  134MOL   H18935035   2.456   2.602   0.673  1.3912  1.7549  2.0176
  134MOL   H19035036   2.358   2.475   0.498 -1.4557  0.7349  0.7284
  134MOL   H19135037   2.440   2.480   0.266 -0.4121 -0.2481 -0.4210
  134MOL   H19235038   2.550   2.624   0.298  0.0514 -0.0372  2.5117
  134MOL   H19335039   2.241   2.608   0.323 -1.5482  1.1022  2.0966
  134MOL   H19435040   2.354   2.752   0.336 -0.3469 -1.1911 -0.1879
  134MOL   H19535041   2.436   2.831   0.540  0.6152  1.6947  0.7835
  134MOL   H19635042   2.599   2.781   0.499 -0.5530  0.9646 -0.2127
  134MOL   C19735043   2.581   2.848   0.699  0.3367 -0.1500  0.4780
  134MOL   C19835044   2.473   2.855   0.803  0.0373 -0.2493 -0.1135
  134MOL   C19935045   2.515   2.899   0.939 -0.3313 -0.5193 -0.2630
  134MOL   C20035046   2.472   2.762   0.920  0.6703  0.0405  0.3389
  134MOL   C20135047   2.630   2.996   0.669  0.4661  0.1257  0.9186
  134MOL   H20235048   2.673   2.802   0.733  0.9312  2.6716  2.9126
  134MOL   H20335049   2.376   2.896   0.774 -0.7899  0.0939  2.9512
  134MOL   H20435050   2.621   2.914   0.963 -0.0752  0.0251 -1.7259
  134MOL   H20535051   2.458   2.971   0.996 -0.0253 -1.0725  0.7630
  134MOL   H20635052   2.543   2.679   0.920  0.8381  0.1760 -0.9897
  134MOL   H20735053   2.381   2.741   0.977 -0.1256  2.0800 -0.1402
  134MOL   H20835054   2.560   3.035   0.595  1.8681 -1.7676 -1.4869
  134MOL   H20935055   2.615   3.056   0.759 -2.8398  1.7365 -0.5980
  134MOL   C21035056   2.779   3.018   0.628  0.1353  0.2296 -0.4977
  134MOL   C21135057   2.831   2.913   0.530 -0.2279 -0.2269  0.4725
  134MOL   C21235058   2.980   2.891   0.527  0.2423 -0.0856  0.0698
  134MOL   C21335059   2.886   2.779   0.564 -0.7096  0.0727 -0.0240
  134MOL   C21435060   2.802   3.160   0.571 -0.8063 -0.4420  0.1718
  134MOL   H21535061   2.838   2.994   0.716  0.1377 -0.2544 -0.6337
  134MOL   H21635062   2.772   2.900   0.439  0.9350  0.4866 -0.3967
  134MOL   H21735063   3.029   2.890   0.430 -0.3597 -0.9317 -0.2378
  134MOL   H21835064   3.040   2.937   0.605  0.7215  1.4144 -1.1629
  134MOL   H21935065   2.861   2.701   0.492 -0.6363  0.9795 -1.0408
  134MOL   H22035066   2.881   2.757   0.670  0.4615  1.0533  0.2373
  134MOL   H22135067   2.905   3.187   0.548 -0.9166 -0.8263 -0.7983
  134MOL   H22235068   2.747   3.176   0.478  0.7736  1.0865 -0.5268
  134MOL   C22335069   2.752   3.268   0.663  0.3020 -0.3396  0.8343
  134MOL   C22435070   2.771   3.398   0.589 -0.9713  0.1031  0.5421
  134MOL   C22535071   2.697   3.442   0.463  0.2287  0.6211 -0.5073
  134MOL   C22635072   2.679   3.519   0.592  0.1068  0.5062 -0.1659
  134MOL   C22735073   2.822   3.263   0.799  0.3124 -0.2108  0.6715
  134MOL   H22835074   2.645   3.255   0.676 -0.2139  3.4608  1.0134
  134MOL   H22935075   2.873   3.435   0.596 -0.1276 -2.4189  2.4150
  134MOL   H23035076   2.620   3.372   0.428  1.9721 -2.0413  0.8298
  134MOL   H23135077   2.754   3.489   0.383 -0.4134  0.7835 -0.8752
  134MOL   H23235078   2.723   3.619   0.588 -0.0639  0.4980 -3.9918
  134MOL   H23335079   2.583   3.510   0.642 -1.8887 -2.0434 -4.2083
  134MOL   H23435080   2.823   3.162   0.841  0.0796  0.3206  1.9721
  134MOL   H23535081   2.923   3.299   0.781 -0.4072  1.3499 -0.3059
  134MOL   C23635082   2.752   3.345   0.909  0.3046 -0.2180 -0.0537
  134MOL   C23735083   2.853   3.384   1.017  0.1675 -0.1363  0.1330
  134MOL   C23835084   2.933   3.510   1.003  0.0873  0.5500  0.2028
  134MOL   C23935085   2.852   3.480   1.126 -0.1635 -0.7707  0.1176
  134MOL   C24035086   2.626   3.276   0.976 -0.0585 -0.2273  0.4106
  134MOL   H24135087   2.712   3.437   0.866  1.4308  0.9370  1.3086
  134MOL   H24235088   2.911   3.293   1.034 -0.4789 -0.6634 -0.4469
  134MOL   H24335089   3.039   3.495   1.024 -0.1275 -1.4132  0.0063
  134MOL   H24435090   2.903   3.566   0.915 -0.6817 -0.9033 -0.4726
  134MOL   H24535091   2.767   3.545   1.143  0.4819  0.0905  0.0970
  134MOL   H24635092   2.913   3.454   1.212 -1.2079 -1.8153  0.5615
  134MOL   H24735093   2.582   3.211   0.901  1.5411  0.1607 -0.8955
  134MOL   H24835094   2.666   3.210   1.053 -2.5782 -0.8953  1.1845
  134MOL   C24935095   2.517   3.369   1.043  0.1801 -0.6517  0.3054
  134MOL   C25035096   2.426   3.286   1.131  0.2778  0.1741 -0.8413
  134MOL   C25135097   2.456   3.254   1.277  0.3601 -0.2611  0.8649
  134MOL   C25235098   2.350   3.354   1.244  0.4605  0.3541 -0.3639
  134MOL   C25335099   2.424   3.443   0.941  0.0815  0.2333 -0.6975
  134MOL   H25435100   2.559   3.449   1.105  0.7343 -0.6225 -0.1027
  134MOL   H25535101   2.373   3.202   1.088 -1.6789  0.4954  0.8684
  134MOL   H25635102   2.438   3.150   1.305  1.2744 -0.8890 -0.8133
  134MOL   H25735103   2.553   3.288   1.315  0.8858  0.2215 -0.8572
  134MOL   H25835104   2.251   3.315   1.264  0.8385  0.5239  1.8895
  134MOL   H25935105   2.366   3.454   1.283 -2.6509 -0.2847  2.8100
  134MOL   H26035106   2.477   3.498   0.864 -0.4003  1.9353  0.1750
  134MOL   H26135107   2.374   3.529   0.986  0.4350  0.2385 -0.3110
  134MOL   H26235108   2.352   3.381   0.887 -0.5541  0.7191 -0.4034
  135MOL     C135109   1.088   2.744   5.205  0.0284 -0.3136 -0.1326
  135MOL     C235110   1.228   2.697   5.241  0.8823 -0.3987 -0.1616
  135MOL     C335111   1.346   2.693   5.140  0.2635 -1.0670  0.0188
  135MOL     C435112   1.290   2.568   5.195 -0.3211 -0.0235  0.2579
  135MOL     C535113   1.063   2.885   5.251  0.2165  0.3036 -0.2451
  135MOL     H635114   1.091   2.749   5.096  0.8455 -0.6582 -0.1298
  135MOL     H735115   1.261   2.719   5.342  4.5115 -1.7167 -0.9909
  135MOL     H835116   1.322   2.711   5.036  1.2625 -1.1601 -0.2282
  135MOL     H935117   1.438   2.743   5.169 -0.9949  0.5073  1.3663
  135MOL    H1035118   1.348   2.522   5.275  4.0999  2.0471 -1.5923
  135MOL    H1135119   1.228   2.511   5.127 -0.4939 -2.1655  2.1512
  135MOL    H1235120   1.136   2.954   5.209 -0.0625  1.5997  1.3810
  135MOL    H1335121   1.077   2.881   5.359 -3.0683 -0.8883  0.2130
  135MOL    H1435122   1.015   2.672   5.242 -0.0738 -0.3989 -0.4967
  135MOL    C1535123   0.921   2.939   5.234 -0.5251 -0.4719  0.3184
  135MOL    C1635124   0.878   3.033   5.339 -0.4625  0.2395 -0.4510
  135MOL    C1735125   0.849   2.997   5.478 -0.5691 -0.9264 -0.1170
  135MOL    C1835126   0.737   3.035   5.386  0.2286 -0.1675  0.0415
  135MOL    C1935127   0.906   2.984   5.086 -0.3179  0.4517 -0.3677
  135MOL    H2035128   0.868   2.845   5.244  0.5004 -0.8388  2.7173
  135MOL    H2135129   0.922   3.131   5.324  2.4553 -1.0104 -0.4935
  135MOL    H2235130   0.866   3.063   5.563 -4.3299 -1.6830  1.3016
  135MOL    H2335131   0.857   2.893   5.507 -1.8680 -0.4689  2.0275
  135MOL    H2435132   0.667   2.953   5.369  0.5045  0.0186 -2.1988
  135MOL    H2535133   0.692   3.128   5.419  2.1863  2.0054 -3.1435
  135MOL    H2635134   0.952   2.903   5.030  4.1171 -0.1280  3.7674
  135MOL    H2735135   0.969   3.072   5.074  1.4486 -0.4274  2.0181
  135MOL    C2835136   0.771   3.019   5.026  0.3351  0.2880 -0.4995
  135MOL    C2935137   0.689   2.889   5.000  0.7268 -0.9478 -0.3141
  135MOL    C3035138   0.581   2.844   5.098  0.6402  0.4550  0.3224
  135MOL    C3135139   0.536   2.895   4.967 -0.3317 -0.2108 -0.2282
  135MOL    C3235140   0.789   3.113   4.902 -0.7244  0.5949 -0.8829
  135MOL    H3335141   0.710   3.077   5.095  0.7681 -0.7944  0.8116
  135MOL    H3435142   0.736   2.814   4.938  1.4375 -0.1097 -0.7993
  135MOL    H3535143   0.548   2.910   5.177 -1.0127  0.0002  0.0326
  135MOL    H3635144   0.572   2.737   5.119 -0.0958  0.5065  0.2914
  135MOL    H3735145   0.498   2.996   4.955  0.9462  0.2984 -0.1132
  135MOL    H3835146   0.507   2.820   4.894  2.8111 -1.1242 -0.5949
  135MOL    H3935147   0.707   3.081   4.838  0.5965 -1.8747 -1.3754
  135MOL    H4035148   0.877   3.093   4.841 -0.3013 -3.1041  0.8033
  135MOL    C4135149   0.771   3.266   4.926  0.6701  0.1832 -0.1423
  135MOL    C4235150   0.704   3.333   4.810  0.5833 -0.4496  0.0202
  135MOL    C4335151   0.604   3.440   4.834  0.7057 -0.0048 -0.0741
  135MOL    C4435152   0.555   3.304   4.776  0.0874 -0.4934 -0.6778
  135MOL    C4535153   0.902   3.338   4.967 -0.7222 -0.3085  0.1823
  135MOL    H4635154   0.700   3.270   5.008  1.1055  2.2292  0.1759
  135MOL    H4735155   0.760   3.341   4.717  1.8419 -0.3384  0.7725
  135MOL    H4835156   0.566   3.461   4.934  2.3706  0.1826  0.5355
  135MOL    H4935157   0.597   3.516   4.757  0.8242  0.8487  0.7417
  135MOL    H5035158   0.519   3.320   4.675  1.6692  1.6156 -0.9318
  135MOL    H5135159   0.504   3.245   4.853 -0.6761  1.3945  0.2974
  135MOL    H5235160   0.978   3.348   4.890 -0.4056  1.4337  0.7010
  135MOL    H5335161   0.953   3.275   5.041  3.2025  1.0652 -1.2284
  135MOL    C5435162   0.882   3.475   5.047 -0.1347 -0.0743 -0.1363
  135MOL    C5535163   0.846   3.450   5.194  0.9727 -0.1167 -0.1995
  135MOL    C5635164   0.707   3.416   5.249  0.0419 -0.2175  0.1766
  135MOL    C5735165   0.766   3.551   5.272  0.1599  0.3572 -0.8627
  135MOL    C5835166   0.997   3.576   5.035  0.0990 -0.1309  0.0670
  135MOL    H5935167   0.795   3.510   4.990  1.1953  0.6240 -1.7587
  135MOL    H6035168   0.930   3.408   5.248  0.1738 -0.8240  0.5065
  135MOL    H6135169   0.627   3.406   5.175  1.6381  3.5791 -2.2174
  135MOL    H6235170   0.698   3.350   5.335  2.1055 -0.0078  0.5810
  135MOL    H6335171   0.785   3.568   5.377  2.0788 -1.5752 -0.8697
  135MOL    H6435172   0.735   3.635   5.209  1.1935  0.0002 -1.8686
  135MOL    H6535173   1.025   3.619   5.131  0.1452  0.6176 -0.2763
  135MOL    H6635174   1.091   3.529   5.005 -0.4283 -1.3434  0.3134
  135MOL    C6735175   0.968   3.681   4.920 -0.1094  0.5954 -0.0433
  135MOL    C6835176   1.063   3.799   4.933  0.2062  0.2802 -0.0024
  135MOL    C6935177   1.031   3.948   4.916 -0.7249 -0.2951  0.0933
  135MOL    C7035178   1.036   3.891   5.048  0.0678  0.2754 -0.4238
  135MOL    C7135179   0.986   3.621   4.780 -0.1070  0.3963 -0.2364
  135MOL    H7235180   0.867   3.720   4.925 -1.2844 -2.2492 -0.2815
  135MOL    H7335181   1.169   3.779   4.921 -0.5658 -4.1342 -0.2835
  135MOL    H7435182   1.109   4.023   4.904 -0.7155 -0.4354 -0.7534
  135MOL    H7535183   0.931   3.989   4.902  0.8701  4.1737  0.8389
  135MOL    H7635184   0.943   3.891   5.105  1.2860 -0.0074  1.6130
  135MOL    H7735185   1.120   3.934   5.103  0.7063 -0.7053 -0.6237
  135MOL    H7835186   0.935   3.525   4.770  0.5457  0.1565 -1.3741
  135MOL    H7935187   1.090   3.598   4.760  0.0436 -0.2845  1.2554
  135MOL    C8035188   0.941   3.708   4.659  0.1138  0.6403 -0.3056
  135MOL    C8135189   0.796   3.726   4.639  0.2468 -0.6992 -0.1182
  135MOL    C8235190   0.747   3.860   4.588 -0.0249  0.2357 -0.3271
  135MOL    C8335191   0.729   3.817   4.739 -0.2816  0.0671  0.8080
  135MOL    C8435192   0.999   3.661   4.523 -0.2758  0.2384 -0.0329
  135MOL    H8535193   0.991   3.803   4.677  3.3091 -0.8608 -0.9742
  135MOL    H8635194   0.740   3.642   4.598 -2.8816  1.3784 -0.3172
  135MOL    H8735195   0.667   3.851   4.514  0.4355 -2.0650 -0.5783
  135MOL    H8835196   0.805   3.951   4.574 -2.9774  2.9653  4.1048
  135MOL    H8935197   0.787   3.871   4.813  0.3435 -0.1997  0.5135
  135MOL    H9035198   0.628   3.797   4.776 -0.6254 -0.0400 -0.1731
  135MOL    H9135199   1.013   3.553   4.534  0.6447  0.3609  0.0546
  135MOL    H9235200   0.919   3.660   4.449  0.2518  1.0340 -0.6193
  135MOL    C9335201   1.124   3.735   4.464  0.0457  0.2536 -0.4379
  135MOL    C9435202   1.258   3.693   4.536 -0.2681  0.4438 -0.1545
  135MOL    C9535203   1.386   3.753   4.495  0.1348 -0.2832 -0.1302
  135MOL    C9635204   1.328   3.774   4.638  0.4723 -0.2194  0.7690
  135MOL    C9735205   1.134   3.708   4.314 -0.5401 -0.0217 -0.6928
  135MOL    H9835206   1.111   3.842   4.486  1.2517  0.4984 -0.8728
  135MOL    H9935207   1.264   3.585   4.551  2.2642  0.5855  0.2067
  135MOL   H10035208   1.463   3.681   4.468  0.6075  0.7858 -1.6443
  135MOL   H10135209   1.391   3.848   4.443 -0.8660 -0.2496 -0.1759
  135MOL   H10235210   1.394   3.726   4.710  0.7897 -1.1816 -0.1546
  135MOL   H10335211   1.291   3.871   4.671  0.2611 -0.1046  0.1994
  135MOL   H10435212   1.136   3.599   4.311  1.6227 -0.0157 -0.3633
  135MOL   H10535213   1.236   3.724   4.278  0.7708  0.2693  2.9363
  135MOL   C10635214   1.033   3.787   4.224 -0.3076  0.5905 -0.0985
  135MOL   C10735215   1.083   3.926   4.199  0.6542  0.4183 -0.4949
  135MOL   C10835216   0.999   4.052   4.167 -0.3635 -0.2848  0.0524
  135MOL   C10935217   1.056   4.036   4.300  0.0403  0.1212 -0.1803
  135MOL   C11035218   1.036   3.722   4.083 -1.1693  0.2033  0.3503
  135MOL   H11135219   0.933   3.793   4.267  0.5612  3.4627  1.6264
  135MOL   H11235220   1.187   3.930   4.169  0.9037  0.8688  0.3973
  135MOL   H11335221   1.047   4.103   4.084 -0.0653 -0.3170  0.2049
  135MOL   H11435222   0.893   4.032   4.156 -0.4989  0.5073 -0.1365
  135MOL   H11535223   0.989   4.008   4.382 -1.4041 -0.2656 -1.4606
  135MOL   H11635224   1.118   4.124   4.314 -2.0288  1.7838 -1.1588
  135MOL   H11735225   1.027   3.802   4.010 -1.2981 -0.8438 -0.8086
  135MOL   H11835226   1.144   3.708   4.078 -1.1737 -0.1597  1.2313
  135MOL   C11935227   0.946   3.598   4.057 -0.2265 -0.0701 -0.4617
  135MOL   C12035228   0.805   3.649   4.046  0.1546 -0.4349  0.2245
  135MOL   C12135229   0.711   3.653   4.167 -0.0909 -0.9174 -0.3625
  135MOL   C12235230   0.685   3.548   4.062  0.1558  0.2158 -0.0060
  135MOL   C12335231   0.981   3.526   3.929 -0.0381 -0.7108  0.6089
  135MOL   H12435232   0.945   3.533   4.145 -0.3337 -0.3992 -0.7065
  135MOL   H12535233   0.780   3.712   3.961  1.9898  0.1854  0.1319
  135MOL   H12635234   0.633   3.729   4.170  2.8606  2.2392 -0.7211
  135MOL   H12735235   0.760   3.623   4.259 -2.1370 -1.0345  0.7224
  135MOL   H12835236   0.695   3.450   4.109  1.5857 -0.3198 -1.3784
  135MOL   H12935237   0.590   3.564   4.013  0.4424  0.3031 -0.5305
  135MOL   H13035238   0.901   3.461   3.893 -1.3804  0.9750  0.5259
  135MOL   H13135239   0.992   3.609   3.860 -1.1695  0.9304  2.3595
  135MOL   C13235240   1.109   3.445   3.945  0.1124 -0.0078 -0.0946
  135MOL   C13335241   1.180   3.443   3.804  0.0519 -0.2377 -0.7398
  135MOL   C13435242   1.333   3.429   3.806  0.2468 -0.7300 -0.2401
  135MOL   C13535243   1.266   3.557   3.761 -0.7498  0.3733 -0.6898
  135MOL   C13635244   1.091   3.301   4.004  0.3430 -0.6780  0.1136
  135MOL   H13735245   1.183   3.501   4.003  0.3470  1.0106 -1.3536
  135MOL   H13835246   1.122   3.398   3.724 -0.5381  0.4032 -0.6816
  135MOL   H13935247   1.387   3.456   3.896 -2.3453  3.6096  0.1375
  135MOL   H14035248   1.383   3.373   3.726  0.3849 -0.3479 -0.4247
  135MOL   H14135249   1.285   3.643   3.825  1.1088 -1.5840  1.4391
  135MOL   H14235250   1.266   3.576   3.654 -2.6456 -0.8858 -0.9390
  135MOL   H14335251   1.017   3.305   4.084  0.1822 -0.0623 -0.0621
  135MOL   H14435252   1.034   3.249   3.927 -1.0661 -2.1131  2.0982
  135MOL   C14535253   1.221   3.234   4.049  0.3755  0.6547 -0.3884
  135MOL   C14635254   1.274   3.279   4.185  0.1652 -0.0440  0.7098
  135MOL   C14735255   1.418   3.266   4.224  0.7331  0.2625  1.0135
  135MOL   C14835256   1.364   3.405   4.187 -0.2789 -0.2063 -0.2476
  135MOL   C14935257   1.192   3.081   4.062 -0.6428  0.1023 -0.0676
  135MOL   H15035258   1.295   3.251   3.971  1.1284 -3.7408 -0.7791
  135MOL   H15135259   1.195   3.285   4.260 -0.4189 -1.2541  0.1979
  135MOL   H15235260   1.440   3.262   4.331  1.4300 -0.9349  0.8286
  135MOL   H15335261   1.484   3.212   4.157 -0.9001  0.3233 -0.6644
  135MOL   H15435262   1.435   3.440   4.113  0.4601 -0.9983  0.0708
  135MOL   H15535263   1.356   3.468   4.275 -0.1131  0.7695 -0.9265
  135MOL   H15635264   1.261   3.048   4.140 -0.0200  0.2827 -0.5289
  135MOL   H15735265   1.093   3.060   4.101 -0.1647  1.0715  1.7040
  135MOL   C15835266   1.213   2.979   3.952 -0.4025 -0.2754  0.0670
  135MOL   C15935267   1.364   2.975   3.926 -0.6509  0.1762  0.7873
  135MOL   C16035268   1.466   2.903   4.019 -0.1407 -0.3583 -0.2078
  135MOL   C16135269   1.427   2.843   3.882 -0.6284 -0.4550 -0.6359
  135MOL   C16235270   1.138   3.003   3.813 -0.1408 -0.3031  0.6598
  135MOL   H16335271   1.182   2.882   3.991 -1.8882 -0.1094 -0.6944
  135MOL   H16435272   1.406   3.062   3.876  1.8638 -0.6632  1.3519
  135MOL   H16535273   1.439   2.846   4.108  1.3142 -0.4847  0.1700
  135MOL   H16635274   1.560   2.955   4.035 -1.6163  2.2296  0.2734
  135MOL   H16735275   1.519   2.841   3.825 -1.3484 -2.4087 -1.7718
  135MOL   H16835276   1.370   2.753   3.862  0.9635 -1.5759 -0.2776
  135MOL   H16935277   1.181   2.936   3.739 -1.3074  1.1175 -1.3601
  135MOL   H17035278   1.158   3.102   3.773  0.6130 -0.4732  0.6133
  135MOL   C17135279   0.986   2.981   3.818  0.6539 -0.5603  0.4302
  135MOL   C17235280   0.919   3.026   3.696 -0.0233  0.0366  0.2118
  135MOL   C17335281   0.783   3.102   3.702  0.2119  0.0635 -0.3027
  135MOL   C17435282   0.907   3.167   3.649  0.5183 -0.3115  0.0863
  135MOL   C17535283   0.941   2.835   3.847 -0.2606  0.0257 -0.1147
  135MOL   H17635284   0.952   3.056   3.889  2.1826  1.0506 -0.4741
  135MOL   H17735285   0.934   2.959   3.611 -0.8193 -0.3791  0.3986
  135MOL   H17835286   0.697   3.075   3.642 -1.5409  0.8541  1.7861
  135MOL   H17935287   0.762   3.124   3.807 -1.1656  1.3166 -0.8378
  135MOL   H18035288   0.948   3.254   3.701 -0.5589 -0.6937  1.6098
  135MOL   H18135289   0.921   3.158   3.541  3.3530  0.4548  0.3552
  135MOL   H18235290   1.021   2.800   3.911 -1.3738 -1.8900  0.2706
  135MOL   H18335291   0.939   2.777   3.755 -1.6412  1.9609 -1.3639
  135MOL   C18435292   0.801   2.823   3.925 -0.0311  0.6410  0.1613
  135MOL   C18535293   0.802   2.874   4.078 -0.3943 -0.0422  0.3374
  135MOL   C18635294   0.668   2.897   4.143  0.5145  0.4051 -0.0159
  135MOL   C18735295   0.761   3.014   4.112 -0.0371 -0.5752  0.0692
  135MOL   C18835296   0.771   2.665   3.927  0.1537 -0.4487 -0.1707
  135MOL   H18935297   0.716   2.859   3.868 -0.4617  0.2797  0.5635
  135MOL   H19035298   0.860   2.825   4.157 -0.9366  0.9904  1.4007
  135MOL   H19135299   0.667   2.879   4.250 -0.1988  0.0077 -0.0865
  135MOL   H19235300   0.577   2.872   4.088 -0.5677  0.5354  1.7040
  135MOL   H19335301   0.811   3.058   4.198  3.0096 -3.3537 -0.1688
  135MOL   H19435302   0.739   3.079   4.027  1.2223  1.3348  1.1689
  135MOL   H19535303   0.673   2.651   3.972  1.2540  0.6716  2.6430
  135MOL   H19635304   0.833   2.619   4.003 -0.8061 -1.1945  0.1756
  135MOL   C19735305   0.753   2.585   3.797 -0.4203  0.6624  0.4118
  135MOL   C19835306   0.625   2.628   3.728  0.2613  0.6954 -0.0985
  135MOL   C19935307   0.607   2.598   3.577 -0.0697  0.0579 -0.2597
  135MOL   C20035308   0.625   2.738   3.630 -0.0336 -0.6434  0.5579
  135MOL   C20135309   0.749   2.435   3.840  0.2225 -0.1009 -0.2031
  135MOL   H20235310   0.828   2.602   3.720  0.6072 -1.5842  0.8638
  135MOL   H20335311   0.530   2.634   3.782  0.3158 -1.2195  0.2628
  135MOL   H20435312   0.699   2.554   3.539  0.4161  0.2752  0.6324
  135MOL   H20535313   0.511   2.568   3.535  0.3201  0.2737 -1.3263
  135MOL   H20635314   0.720   2.787   3.611 -1.8050  2.3843 -0.9088
  135MOL   H20735315   0.543   2.809   3.619  1.9254  1.7832  0.9615
  135MOL   H20835316   0.742   2.416   3.947 -0.8181 -3.6538 -0.8346
  135MOL   H20935317   0.672   2.376   3.791  0.3366  1.7287 -2.7081
  135MOL   C21035318   0.873   2.351   3.807  0.1568  0.7189  0.1767
  135MOL   C21135319   0.893   2.352   3.659  0.1881  0.4913  0.1822
  135MOL   C21235320   0.963   2.233   3.598  0.1458  0.5521 -0.5368
  135MOL   C21335321   0.819   2.256   3.570  0.0236 -0.3650 -0.1000
  135MOL   C21435322   1.003   2.396   3.869 -0.0383 -0.3126  0.9839
  135MOL   H21535323   0.854   2.247   3.833 -0.0962  0.7567  0.1400
  135MOL   H21635324   0.925   2.447   3.615  0.6973  0.9491  1.5216
  135MOL   H21735325   1.032   2.246   3.515  1.9178  3.9082  1.3436
  135MOL   H21835326   0.971   2.143   3.659  0.5372  1.2219  0.4090
  135MOL   H21935327   0.772   2.301   3.483  1.2635 -0.2936 -0.7407
  135MOL   H22035328   0.747   2.197   3.627  0.2623  0.1477  0.7499
  135MOL   H22135329   1.087   2.347   3.817  0.8916  1.3855  0.8650
  135MOL   H22235330   1.010   2.503   3.849 -0.9283 -0.1744  1.4212
  135MOL   C22335331   1.016   2.356   4.018  0.1410 -0.0530 -0.1811
  135MOL   C22435332   1.137   2.418   4.090 -0.5697 -0.1984 -0.9024
  135MOL   C22535333   1.159   2.569   4.084  0.3666  0.8431  0.8719
  135MOL   C22635334   1.121   2.504   4.214 -0.5678 -0.0782  0.1501
  135MOL   C22735335   1.032   2.204   4.032  0.3386 -0.0395  0.0935
  135MOL   H22835336   0.925   2.384   4.072 -0.2328  0.5368 -1.0957
  135MOL   H22935337   1.232   2.370   4.065  0.9259  2.5227 -0.7374
  135MOL   H23035338   1.070   2.629   4.067 -0.6589 -0.8170  0.2437
  135MOL   H23135339   1.262   2.601   4.076  0.3230  0.7774  0.0777
  135MOL   H23235340   1.200   2.503   4.289 -1.5694  3.0997  1.3292
  135MOL   H23335341   1.027   2.511   4.268  0.3322 -0.8719  1.8371
  135MOL   H23435342   0.961   2.143   3.977  0.9896 -1.9343  1.3143
  135MOL   H23535343   1.134   2.173   4.006 -0.5063 -0.6451 -2.7038
  135MOL   C23635344   1.031   2.147   4.174  0.1301 -0.2927 -0.3555
  135MOL   C23735345   1.083   2.007   4.166  0.0338  0.3332  0.5447
  135MOL   C23835346   1.233   1.982   4.150  0.9048  0.4726  0.5922
  135MOL   C23935347   1.158   1.932   4.274 -0.1418  0.5714 -0.4562
  135MOL   C24035348   0.890   2.156   4.236 -0.9886  0.0728  0.8747
  135MOL   H24135349   1.107   2.202   4.230  0.7042 -2.4452  1.0463
  135MOL   H24235350   1.020   1.936   4.113 -0.1613  0.9239 -0.0154
  135MOL   H24335351   1.270   1.906   4.081 -0.0248  1.2423 -0.7646
  135MOL   H24435352   1.308   2.060   4.156  3.6324 -1.8738 -1.2923
  135MOL   H24535353   1.189   1.986   4.363  1.6289  1.3165 -1.5086
  135MOL   H24635354   1.147   1.825   4.290 -0.8606  0.8349  0.9085
  135MOL   H24735355   0.841   2.253   4.230 -4.2724 -1.3926  2.6361
  135MOL   H24835356   0.833   2.094   4.167 -1.7518  2.4001 -0.6350
  135MOL   C24935357   0.869   2.093   4.380  0.0968 -0.2901 -0.1420
  135MOL   C25035358   0.725   2.100   4.424  0.5557 -0.1902 -0.0328
  135MOL   C25135359   0.632   2.000   4.370 -0.0589 -0.1307  0.3490
  135MOL   C25235360   0.657   2.000   4.515 -0.7437  0.3454  0.2562
  135MOL   C25335361   0.953   2.155   4.486  0.3554 -0.3058  0.6426
  135MOL   H25435362   0.889   1.986   4.377  3.4999  0.3028 -0.8576
  135MOL   H25535363   0.689   2.203   4.423 -1.2497 -0.7966 -1.0058
  135MOL   H25635364   0.534   2.036   4.342  0.5384  0.6973 -0.7090
  135MOL   H25735365   0.681   1.932   4.301 -1.3162  0.4704 -1.1446
  135MOL   H25835366   0.582   2.041   4.582 -2.6914 -3.4608  0.5526
  135MOL   H25935367   0.726   1.934   4.567  0.3918  0.8358 -0.6059
  135MOL   H26035368   0.931   2.260   4.468  0.6848  0.0621  2.2391
  135MOL   H26135369   1.058   2.151   4.456 -0.2567  1.4187 -1.7947
  135MOL   H26235370   0.950   2.120   4.589 -1.4942  0.7920  0.9793
  136MOL     C135371   0.969   4.257   5.956 -0.0708 -0.0287 -0.2259
  136MOL     C235372   0.939   4.391   6.016 -0.1636  0.7968 -0.6953
  136MOL     C335373   0.864   4.493   5.940 -0.0590  0.5610  0.2297
  136MOL     C435374   1.011   4.514   5.974  0.6376  0.2674  0.5508
  136MOL     C535375   1.115   4.218   6.000  0.5912 -0.5649  0.0959
  136MOL     H635376   0.897   4.185   5.993 -0.4707  0.7868  0.6022
  136MOL     H735377   0.920   4.377   6.122 -0.9804  0.5542 -0.8726
  136MOL     H835378   0.845   4.472   5.836  0.2720 -2.3016  0.7150
  136MOL     H935379   0.778   4.533   5.994 -1.2022  0.4155 -1.4654
  136MOL    H1035380   1.026   4.589   6.051  0.4450 -0.8146  1.6566
  136MOL    H1135381   1.086   4.507   5.895 -0.7377  2.0787 -0.9455
  136MOL    H1235382   1.121   4.217   6.109  0.2515 -1.3760  0.1181
  136MOL    H1335383   1.178   4.295   5.956 -1.9725  0.9507 -1.0374
  136MOL    H1435384   0.954   4.255   5.848 -3.1649 -0.0866  0.1634
  136MOL    C1535385   1.152   4.080   5.956 -0.0802  0.3028  0.4392
  136MOL    C1635386   1.304   4.060   5.941 -0.4273 -0.0061 -0.5298
  136MOL    C1735387   1.365   4.113   5.812 -0.2423  0.0447 -0.0472
  136MOL    C1835388   1.365   3.968   5.836  0.0295  0.6530 -1.0809
  136MOL    C1935389   1.086   3.974   6.038 -0.2454  0.4002 -0.0911
  136MOL    H2035390   1.117   4.075   5.853 -2.1633 -0.5326  1.1630
  136MOL    H2135391   1.361   4.084   6.031  1.2181 -0.4870 -1.4267
  136MOL    H2235392   1.454   4.172   5.832 -0.2602 -0.3575  1.2443
  136MOL    H2335393   1.297   4.158   5.740 -0.9414 -1.1998 -0.1926
  136MOL    H2435394   1.301   3.898   5.783  0.9798 -1.8640  0.9562
  136MOL    H2535395   1.465   3.927   5.854 -0.8414 -1.7014 -1.3817
  136MOL    H2635396   0.991   4.014   6.074 -0.2889  0.6055 -0.4281
  136MOL    H2735397   1.147   3.960   6.127 -0.2596 -0.8200 -0.2655
  136MOL    C2835398   1.063   3.842   5.961 -0.7255  0.3938 -0.5559
  136MOL    C2935399   0.972   3.863   5.843 -0.1780 -0.0769 -0.1087
  136MOL    C3035400   1.023   3.876   5.700  0.2331  0.5025 -0.4072
  136MOL    C3135401   0.939   3.752   5.746 -0.8205 -0.4258  0.3483
  136MOL    C3235402   1.007   3.735   6.057  0.5334  0.3358 -0.7950
  136MOL    H3335403   1.160   3.807   5.926 -0.0093  0.6660  1.1168
  136MOL    H3435404   0.888   3.929   5.861 -1.1930 -0.7334 -2.2387
  136MOL    H3535405   1.123   3.847   5.670 -0.1316  0.1667 -1.3396
  136MOL    H3635406   0.976   3.931   5.618 -0.7674 -3.4540 -2.6094
  136MOL    H3735407   0.995   3.658   5.752  0.5390  0.2931 -0.8347
  136MOL    H3835408   0.838   3.746   5.708 -1.1653  0.9232  1.0307
  136MOL    H3935409   0.926   3.674   6.018  0.5220 -1.3181  1.6707
  136MOL    H4035410   0.938   3.786   6.125 -0.9127 -1.3205 -0.9740
  136MOL    C4135411   1.119   3.655   6.141  0.1679  0.4212  0.1914
  136MOL    C4235412   1.223   3.596   6.054  0.6473  0.5204  0.3406
  136MOL    C4335413   1.348   3.533   6.117 -0.1737  0.8148 -0.1899
  136MOL    C4435414   1.353   3.654   6.032  0.0391  0.3747  0.8540
  136MOL    C4535415   1.045   3.544   6.226  0.2539 -0.2071 -0.2970
  136MOL    H4635416   1.178   3.719   6.206 -0.9581  0.7121  0.9510
  136MOL    H4735417   1.176   3.530   5.981  1.6220  0.6484 -0.4199
  136MOL    H4835418   1.362   3.540   6.225  0.4875  1.3257 -0.3051
  136MOL    H4935419   1.372   3.444   6.061 -1.8583  0.4070 -0.2871
  136MOL    H5035420   1.389   3.643   5.930  1.6944  3.2425  1.0659
  136MOL    H5135421   1.383   3.747   6.079  1.8805  0.6495 -0.7753
  136MOL    H5235422   1.119   3.484   6.279  0.5469 -0.4621 -0.9821
  136MOL    H5335423   0.993   3.482   6.151 -1.4860  1.7870 -0.7950
  136MOL    C5435424   0.927   3.585   6.315  0.9155  0.2217  0.0122
  136MOL    C5535425   0.880   3.453   6.393 -0.1830 -0.7813 -0.2822
  136MOL    C5635426   0.787   3.359   6.327  0.5034 -0.4842  0.3315
  136MOL    C5735427   0.743   3.437   6.444  0.5342  0.0897 -0.5301
  136MOL    C5835428   0.980   3.701   6.405  0.1762 -0.5750 -0.0097
  136MOL    H5935429   0.846   3.610   6.246  1.7847 -0.4057 -1.2459
  136MOL    H6035430   0.952   3.400   6.455  1.0113 -0.3347 -1.2601
  136MOL    H6135431   0.757   3.390   6.227  1.3135 -0.4323  0.1033
  136MOL    H6235432   0.814   3.254   6.335  1.5153 -0.3357 -0.9501
  136MOL    H6335433   0.723   3.361   6.520  0.4174 -0.4997 -1.1384
  136MOL    H6435434   0.667   3.513   6.427  0.9911  1.0787  1.7223
  136MOL    H6535435   1.070   3.666   6.455  1.5480  1.9416 -0.5996
  136MOL    H6635436   1.018   3.782   6.342  0.8219 -1.2997 -0.5557
  136MOL    C6735437   0.889   3.754   6.517  0.5029 -0.4533 -0.0322
  136MOL    C6835438   0.964   3.766   6.649  0.3936  0.1459 -0.3465
  136MOL    C6935439   0.891   3.735   6.776  0.4982 -0.2623  0.4660
  136MOL    C7035440   1.002   3.641   6.732 -0.1309 -0.3919 -0.2703
  136MOL    C7135441   0.833   3.897   6.479 -0.4634  0.4810 -0.5504
  136MOL    H7235442   0.808   3.684   6.538 -0.3464  0.7735  0.8290
  136MOL    H7335443   1.038   3.845   6.651 -0.2292  0.7177  3.0595
  136MOL    H7435444   0.902   3.803   6.860 -1.2229  0.2808  0.2872
  136MOL    H7535445   0.787   3.710   6.754  1.0341 -0.7780 -1.6228
  136MOL    H7635446   0.967   3.547   6.689  1.7583 -1.0060 -0.5014
  136MOL    H7735447   1.098   3.647   6.782 -1.0515  1.5742  1.3382
  136MOL    H7835448   0.922   3.960   6.465  0.7368 -1.4531 -1.7585
  136MOL    H7935449   0.794   3.934   6.574 -1.6114 -1.3031 -0.3241
  136MOL    C8035450   0.732   3.913   6.358 -0.0330  0.2858  0.0228
  136MOL    C8135451   0.690   4.056   6.336 -0.5805 -0.4852 -0.0126
  136MOL    C8235452   0.661   4.119   6.206 -0.1684 -0.0786 -0.5361
  136MOL    C8335453   0.783   4.156   6.284  0.3118  0.0422  0.1674
  136MOL    C8435454   0.605   3.819   6.373 -0.4432 -0.3855 -0.6647
  136MOL    H8535455   0.795   3.887   6.272  0.7836  4.1058 -0.6298
  136MOL    H8635456   0.634   4.092   6.423 -1.0799 -0.6133 -0.2834
  136MOL    H8735457   0.594   4.205   6.198 -1.4775 -0.9097  1.2796
  136MOL    H8835458   0.682   4.067   6.112 -0.1992 -0.7927 -0.1518
  136MOL    H8935459   0.880   4.130   6.241  0.7574  0.1897  1.0546
  136MOL    H9035460   0.783   4.255   6.330 -0.0467 -0.6760  1.7390
  136MOL    H9135461   0.627   3.719   6.410 -0.0675 -1.0763 -2.7023
  136MOL    H9235462   0.560   3.864   6.462  1.7885 -0.2728  0.4460
  136MOL    C9335463   0.517   3.799   6.249 -0.2475  0.6517  0.2407
  136MOL    C9435464   0.593   3.710   6.142  0.5407 -0.4850 -0.6394
  136MOL    C9535465   0.564   3.568   6.112 -0.2240 -0.1712  0.0659
  136MOL    C9635466   0.535   3.676   6.006 -0.4417  0.1857 -0.1829
  136MOL    C9735467   0.372   3.747   6.287  0.5327  0.4372 -0.2275
  136MOL    H9835468   0.506   3.899   6.206 -2.8531  0.7089  0.9992
  136MOL    H9935469   0.690   3.759   6.139 -0.0183  1.4366  5.4750
  136MOL   H10035470   0.655   3.510   6.096 -1.4122 -1.4896 -2.2964
  136MOL   H10135471   0.472   3.521   6.146 -0.7558 -0.1226 -1.2784
  136MOL   H10235472   0.598   3.686   5.918 -0.0887  1.1995  0.1831
  136MOL   H10335473   0.430   3.703   5.991 -0.5037  1.0552  1.7403
  136MOL   H10435474   0.380   3.648   6.333 -1.7164 -0.0097 -0.7683
  136MOL   H10535475   0.318   3.736   6.194 -1.3932  2.1222  0.6485
  136MOL   C10635476   0.283   3.843   6.369 -0.3357 -0.3054  0.2931
  136MOL   C10735477   0.232   3.952   6.275 -0.6822  0.3315 -0.2251
  136MOL   C10835478   0.187   4.082   6.336  0.4712 -0.1872  0.3651
  136MOL   C10935479   0.308   4.079   6.252 -0.1402 -0.4559 -0.0316
  136MOL   C11035480   0.168   3.778   6.449  0.3480 -0.0561  0.0531
  136MOL   H11135481   0.348   3.899   6.436  2.0105 -1.6263 -0.8165
  136MOL   H11235482   0.174   3.905   6.195 -1.3566  0.8487 -0.0449
  136MOL   H11335483   0.095   4.127   6.298  2.2124  1.6002 -1.9078
  136MOL   H11435484   0.203   4.090   6.443  2.1414  1.4240  0.0153
  136MOL   H11535485   0.406   4.088   6.298  0.1926  0.1379 -0.8338
  136MOL   H11635486   0.299   4.117   6.150 -0.5797  1.1410  0.5845
  136MOL   H11735487   0.221   3.702   6.507  1.2451  0.4416 -0.1062
  136MOL   H11835488   0.138   3.849   6.527 -0.4384 -0.7050  0.3505
  136MOL   C11935489   0.053   3.723   6.368  0.0720  0.0850  0.0211
  136MOL   C12035490   0.014   3.588   6.412 -0.3781 -0.1612 -0.3505
  136MOL   C12135491   0.104   3.469   6.373  0.1358 -0.1757 -0.1349
  136MOL   C12235492   7.803   3.486   6.320 -0.2838  0.3298 -0.7985
  136MOL   C12335493   7.772   3.813   6.380 -0.5451  0.2821  0.1185
  136MOL   H12435494   0.085   3.722   6.264  0.2067  4.1508 -0.0747
  136MOL   H12535495   7.822   3.589   6.516 -2.2394  1.4241 -0.8931
  136MOL   H12635496   0.129   3.397   6.451 -1.6367  0.7456  1.3144
  136MOL   H12735497   0.174   3.474   6.290 -0.4485  0.7315 -0.5804
  136MOL   H12835498   7.790   3.519   6.217 -4.5510 -0.2641 -0.5468
  136MOL   H12935499   7.715   3.432   6.356 -0.3216  0.9244  0.0023
  136MOL   H13035500   7.752   3.831   6.486 -0.9166 -1.3290  0.3378
  136MOL   H13135501   7.802   3.912   6.345 -1.4092  0.3345 -0.4944
  136MOL   C13235502   7.649   3.783   6.287  0.2311  0.4300  0.2353
  136MOL   C13335503   7.672   3.852   6.150 -0.1912  0.0702  0.7000
  136MOL   C13435504   7.588   3.830   6.025 -0.1485  0.1361  0.0634
  136MOL   C13535505   7.725   3.778   6.033  0.0914 -0.2683  0.0049
  136MOL   C13635506   7.521   3.833   6.358 -0.0644 -0.4304  0.3507
  136MOL   H13735507   7.643   3.674   6.276 -1.7522  0.5134  0.3133
  136MOL   H13835508   7.702   3.956   6.149  2.9922 -0.8069 -1.5486
  136MOL   H13935509   7.503   3.762   6.024 -1.5951  1.8914 -2.9862
  136MOL   H14035510   7.565   3.925   5.978 -0.8510  0.7483  1.5800
  136MOL   H14135511   7.734   3.670   6.033  2.0578 -0.1292  1.1114
  136MOL   H14235512   7.809   3.826   5.982  1.2642  0.2471  2.3674
  136MOL   H14335513   7.541   3.915   6.427 -0.9082 -0.2142  0.3455
  136MOL   H14435514   7.453   3.882   6.288  1.4315  1.6868  0.3153
  136MOL   C14535515   7.437   3.739   6.443  0.2334  0.0430 -1.0466
  136MOL   C14635516   7.393   3.614   6.374  0.9190 -0.9349  0.5442
  136MOL   C14735517   7.279   3.538   6.427  0.5202  0.7839 -0.2140
  136MOL   C14835518   7.268   3.611   6.299 -0.3669  0.7849 -0.0665
  136MOL   C14935519   7.506   3.700   6.584 -0.5832 -0.1367  0.1753
  136MOL   H15035520   7.350   3.794   6.480 -0.4001 -2.1611  0.8622
  136MOL   H15135521   7.479   3.559   6.336  1.8165  0.1228  1.0120
  136MOL   H15235522   7.279   3.430   6.419  1.7622  0.4747  3.0285
  136MOL   H15335523   7.201   3.569   6.497 -0.8080 -3.0935  0.1293
  136MOL   H15435524   7.213   3.704   6.288 -0.8448  0.4157 -0.7706
  136MOL   H15535525   7.259   3.548   6.211  3.2378 -0.7879  0.5874
  136MOL   H15635526   7.442   3.628   6.635 -0.6972 -0.1197  0.0568
  136MOL   H15735527   7.593   3.639   6.557 -0.5186  0.1435 -0.2608
  136MOL   C15835528   7.540   3.813   6.690 -0.7724  0.5549  1.0049
  136MOL   C15935529   7.627   3.751   6.794  0.0725  0.2169 -0.7388
  136MOL   C16035530   7.776   3.724   6.768  0.2929  1.1667 -0.3786
  136MOL   C16135531   7.732   3.826   6.873 -0.2231  0.1656 -0.3394
  136MOL   C16235532   7.415   3.852   6.761  0.2581  0.6086  0.6494
  136MOL   H16335533   7.599   3.891   6.642  0.4993  0.1262  1.8631
  136MOL   H16435534   7.577   3.668   6.843  1.8504 -0.5436 -0.1589
  136MOL   H16535535   7.833   3.773   6.689  0.6505  1.0482 -0.1975
  136MOL   H16635536   7.813   3.625   6.794 -2.9682 -0.6433 -2.2965
  136MOL   H16735537   7.744   3.804   6.979  0.0023  0.7595 -0.2374
  136MOL   H16835538   7.728   3.933   6.850 -0.2124  0.5353  1.3158
  136MOL   H16935539   7.407   3.807   6.860 -1.1168 -0.4359  0.0910
  136MOL   H17035540   7.325   3.830   6.704 -0.3485  3.3385  0.5020
  136MOL   C17135541   7.387   4.005   6.800 -0.0022  0.1479  0.3581
  136MOL   C17235542   7.470   4.058   6.920 -0.2477 -0.2353 -0.6296
  136MOL   C17335543   7.414   4.148   7.023  0.5577  0.6650 -0.4819
  136MOL   C17435544   7.443   3.998   7.057  0.0315  0.6697  0.0091
  136MOL   C17535545   7.406   4.107   6.685 -0.1618 -0.9786  0.0733
  136MOL   H17635546   7.282   4.014   6.828 -0.1845  1.8578 -0.8090
  136MOL   H17735547   7.573   4.083   6.895 -0.1219  0.5216  0.5679
  136MOL   H17835548   7.476   4.220   7.077  1.2714 -0.3046  0.0008
  136MOL   H17935549   7.313   4.184   7.008  0.2847  0.4527  0.7590
  136MOL   H18035550   7.352   3.939   7.064 -0.9687  2.1932 -0.1298
  136MOL   H18135551   7.531   3.970   7.115 -0.1320 -0.6183 -0.3531
  136MOL   H18235552   7.406   4.046   6.594 -0.0324 -1.8165  0.6261
  136MOL   H18335553   7.502   4.155   6.703 -1.0781  1.2962 -0.9050
  136MOL   C18435554   7.294   4.218   6.682  0.6464  0.8083 -0.3913
  136MOL   C18535555   7.160   4.155   6.648 -0.4260 -0.3641  0.7391
  136MOL   C18635556   7.035   4.243   6.661 -0.2199 -0.3543  0.4110
  136MOL   C18735557   7.055   4.114   6.740  0.6169  0.5807  0.0356
  136MOL   C18835558   7.331   4.338   6.592 -0.2246 -0.4209 -0.6751
  136MOL   H18935559   7.276   4.243   6.787  1.0645 -1.4060  0.2373
  136MOL   H19035560   7.164   4.095   6.557 -0.0445 -0.9330  1.1317
  136MOL   H19135561   6.969   4.244   6.575 -1.2333  1.2726  1.1880
  136MOL   H19235562   7.044   4.344   6.700  0.9065 -0.6589  0.9628
  136MOL   H19335563   7.002   4.028   6.700  1.0300 -1.3046  3.3711
  136MOL   H19435564   7.062   4.117   6.849 -0.4384  0.0876  0.1177
  136MOL   H19535565   7.429   4.379   6.616 -1.3801  0.8628  2.1234
  136MOL   H19635566   7.284   4.434   6.614  1.1600  0.1974 -0.3644
  136MOL   C19735567   7.336   4.319   6.446 -0.6645  0.3011  0.0897
  136MOL   C19835568   7.468   4.362   6.388  0.1086  0.1188 -0.1457
  136MOL   C19935569   7.538   4.276   6.280 -0.0247 -0.5672 -0.6023
  136MOL   C20035570   7.599   4.281   6.415  0.0954 -0.2796  0.0835
  136MOL   C20135571   7.219   4.397   6.375  0.1808 -0.0769  0.4004
  136MOL   H20235572   7.323   4.214   6.420  1.6528  0.1211 -0.5260
  136MOL   H20335573   7.498   4.463   6.359  0.0173 -0.3642 -1.9917
  136MOL   H20435574   7.497   4.181   6.247  1.0660 -0.3063 -2.7427
  136MOL   H20535575   7.593   4.326   6.201  1.6471 -0.3058  0.6954
  136MOL   H20635576   7.586   4.203   6.489  0.3560  1.6431  2.2197
  136MOL   H20735577   7.690   4.340   6.427 -1.1646  1.7059 -0.0273
  136MOL   H20835578   7.133   4.379   6.440 -0.0396  2.0092  0.7268
  136MOL   H20935579   7.235   4.505   6.378  0.2004 -0.1034  1.4432
  136MOL   C21035580   7.187   4.355   6.226  0.3495 -0.2801 -0.2448
  136MOL   C21135581   7.110   4.229   6.210  0.6964  0.4013  0.9652
  136MOL   C21235582   7.128   4.174   6.070  0.1066  0.0293  0.3981
  136MOL   C21335583   7.186   4.101   6.183  0.4559 -0.2978 -0.0538
  136MOL   C21435584   7.107   4.465   6.168  0.0134  0.0322  0.1569
  136MOL   H21535585   7.284   4.346   6.176  0.7450  2.6994 -0.0757
  136MOL   H21635586   7.009   4.218   6.249  0.1507  2.4314  0.1847
  136MOL   H21735587   7.033   4.153   6.021 -0.6252  1.7393  1.0346
  136MOL   H21835588   7.206   4.226   6.013  2.2563 -2.3855  1.0566
  136MOL   H21935589   7.142   4.011   6.227  0.4812 -0.0848  0.4098
  136MOL   H22035590   7.294   4.091   6.182  0.7195  2.1691 -0.3893
  136MOL   H22135591   7.060   4.439   6.073  1.9387  0.7473 -1.0278
  136MOL   H22235592   7.019   4.496   6.223  0.1030 -1.1806  0.9918
  136MOL   C22335593   7.195   4.595   6.119  0.2149 -0.2487  0.3994
  136MOL   C22435594   7.120   4.721   6.125  0.2253 -0.4045 -0.8871
  136MOL   C22535595   7.046   4.764   6.251 -0.6504  0.3068  0.7961
  136MOL   C22635596   7.173   4.836   6.214 -1.2702  0.7761  0.1341
  136MOL   C22735597   7.251   4.569   5.972  0.4666  0.0301  0.3715
  136MOL   H22835598   7.278   4.602   6.189  1.3221  2.8047 -1.1297
  136MOL   H22935599   7.079   4.764   6.034  0.0198  1.4600  0.0649
  136MOL   H23035600   7.063   4.718   6.349  2.1235 -1.9053 -0.6443
  136MOL   H23135601   6.947   4.807   6.237 -0.8318 -0.3418  0.0449
  136MOL   H23235602   7.170   4.941   6.185 -1.9496  0.3351 -1.4646
  136MOL   H23335603   7.272   4.811   6.251  0.2661  1.0986 -3.4874
  136MOL   H23435604   7.288   4.466   5.975 -3.0518 -1.2940  1.4949
  136MOL   H23535605   7.166   4.569   5.904  0.5301 -1.4097  0.2709
  136MOL   C23635606   7.348   4.677   5.910  0.3175 -0.1679  0.3913
  136MOL   C23735607   7.371   4.663   5.754  0.0899 -0.0389 -0.4363
  136MOL   C23835608   7.272   4.703   5.651 -0.1817  0.0305 -1.0398
  136MOL   C23935609   7.395   4.788   5.670  0.1809  0.8728 -0.4035
  136MOL   C24035610   7.476   4.699   5.989 -0.3482 -0.6097  0.2026
  136MOL   H24135611   7.286   4.766   5.912 -0.3170 -0.4859 -2.6167
  136MOL   H24235612   7.434   4.575   5.743  1.2772  0.7242  0.1440
  136MOL   H24335613   7.266   4.625   5.575 -0.9436 -0.4408 -0.5071
  136MOL   H24435614   7.174   4.736   5.686 -2.2851 -3.7144 -3.1151
  136MOL   H24535615   7.370   4.886   5.713 -1.1901  0.8057 -1.0231
  136MOL   H24635616   7.462   4.782   5.585  0.2517  0.0714 -0.2952
  136MOL   H24735617   7.453   4.693   6.095  1.0654  1.6691  0.6827
  136MOL   H24835618   7.533   4.608   5.970  2.2590  1.2074 -1.1111
  136MOL   C24935619   7.554   4.837   5.973 -0.1473 -0.5590 -0.1350
  136MOL   C25035620   7.684   4.853   6.045 -0.2227 -0.3907  0.4035
  136MOL   C25135621   7.692   4.815   6.187  0.3556 -0.0597  0.0136
  136MOL   C25235622   7.775   4.740   6.087  0.3456  0.3577  0.3571
  136MOL   C25335623   7.468   4.966   5.999  0.2372 -0.1499  0.2594
  136MOL   H25435624   7.569   4.842   5.865 -1.2815 -0.4433 -0.2923
  136MOL   H25535625   7.737   4.942   6.013  0.6473 -1.2475 -0.5578
  136MOL   H25635626   7.720   4.901   6.247 -0.7287  0.0828  0.3314
  136MOL   H25735627   7.616   4.756   6.239  0.5276 -1.3315 -1.1589
  136MOL   H25835628   0.040   4.768   6.076  0.1690  0.6149 -0.7159
  136MOL   H25935629   7.755   4.635   6.065 -0.1731  1.0452 -2.7317
  136MOL   H26035630   7.509   5.056   5.953  1.0713 -0.8685 -0.4098
  136MOL   H26135631   7.463   4.979   6.107  2.4629  0.9634  0.2459
  136MOL   H26235632   7.369   4.952   5.955  0.4342 -0.3739 -0.1127
  137MOL     C135633   2.200   6.425   1.149 -0.7188 -0.8470  0.1044
  137MOL     C235634   2.254   6.306   1.082 -0.0497 -0.2227  0.0147
  137MOL     C335635   2.392   6.256   1.104 -0.2832 -0.1580 -0.3037
  137MOL     C435636   2.350   6.310   0.969  0.1486  0.3807 -0.2560
  137MOL     C535637   2.067   6.482   1.089  0.6183  0.0656 -0.7079
  137MOL     H635638   2.207   6.405   1.256  0.3104 -0.6621  0.0779
  137MOL     H735639   2.173   6.233   1.074 -0.5576  0.4251 -0.7130
  137MOL     H835640   2.464   6.309   1.166 -0.0665 -2.1182  1.1956
  137MOL     H935641   2.408   6.148   1.110  0.9635  0.0364  0.0440
  137MOL    H1035642   2.312   6.242   0.893  1.5542 -1.8139  0.9342
  137MOL    H1135643   2.396   6.407   0.953 -0.2569  0.7868  0.9631
  137MOL    H1235644   1.998   6.397   1.089  1.3390 -0.5372 -1.7534
  137MOL    H1335645   2.087   6.508   0.986  1.1419  0.3036 -0.5469
  137MOL    H1435646   2.272   6.506   1.140 -1.6635  0.1416  1.2771
  137MOL    C1535647   2.007   6.599   1.182 -0.1558  0.4796 -0.0714
  137MOL    C1635648   2.095   6.723   1.160 -0.2790 -0.0040 -0.2000
  137MOL    C1735649   2.220   6.756   1.247  0.4734  0.2668  0.5684
  137MOL    C1835650   2.083   6.828   1.265 -1.1269 -0.0768 -0.5800
  137MOL    C1935651   1.859   6.631   1.159 -0.0213  0.1280  0.4622
  137MOL    H2035652   2.022   6.569   1.286  1.0069  1.5689  0.0905
  137MOL    H2135653   2.103   6.753   1.055  0.4781 -1.8853 -0.7091
  137MOL    H2235654   2.300   6.810   1.197 -1.3059  0.9901 -1.5712
  137MOL    H2335655   2.250   6.674   1.313 -1.2891 -1.0446 -0.2108
  137MOL    H2435656   2.027   6.801   1.354  0.1464  0.5221  0.4136
  137MOL    H2535657   2.075   6.924   1.214  3.3648  1.2014  0.9692
  137MOL    H2635658   1.853   6.665   1.056  1.6486  1.3716  0.7445
  137MOL    H2735659   1.838   6.722   1.217  1.2830  0.3469  0.5969
  137MOL    C2835660   1.757   6.510   1.181  0.0172 -0.4997  0.2104
  137MOL    C2935661   1.620   6.563   1.190 -0.3304  0.3951  0.5236
  137MOL    C3035662   1.577   6.673   1.280 -0.5423  0.1153  0.4719
  137MOL    C3135663   1.567   6.686   1.121 -0.4467  0.1697 -0.0341
  137MOL    C3235664   1.792   6.417   1.304 -0.3240 -0.4024  0.1895
  137MOL    H3335665   1.750   6.446   1.094  1.5261  0.2754 -0.5045
  137MOL    H3435666   1.545   6.485   1.196  0.7180 -0.8968 -2.5076
  137MOL    H3535667   1.651   6.730   1.335  0.5224 -0.2282 -0.5731
  137MOL    H3635668   1.483   6.657   1.331 -1.6255  1.8080 -0.9105
  137MOL    H3735669   1.631   6.766   1.084 -0.3750 -1.2046 -3.0093
  137MOL    H3835670   1.464   6.686   1.088 -0.8596 -3.1601  1.0242
  137MOL    H3935671   1.790   6.471   1.399  1.9675 -1.7111  1.0183
  137MOL    H4035672   1.898   6.390   1.301  0.3727  2.3172 -1.6561
  137MOL    C4135673   1.721   6.282   1.323 -0.3482  0.1095  0.7594
  137MOL    C4235674   1.776   6.214   1.448  0.4601 -0.4207 -0.0616
  137MOL    C4335675   1.714   6.088   1.499  0.8076  0.4369  0.2028
  137MOL    C4435676   1.713   6.211   1.586 -0.2743 -0.6578 -0.0801
  137MOL    C4535677   1.740   6.196   1.196 -0.0276  0.2264  0.1917
  137MOL    H4635678   1.617   6.312   1.325 -0.7393 -1.1638 -0.0757
  137MOL    H4735679   1.885   6.213   1.450  0.4733  1.0619  0.0282
  137MOL    H4835680   1.620   6.058   1.455  1.3529 -0.3739 -0.4126
  137MOL    H4935681   1.791   6.012   1.509  1.3668  0.6875 -2.0562
  137MOL    H5035682   1.775   6.202   1.674 -0.5235  1.8573  0.3747
  137MOL    H5135683   1.634   6.284   1.603 -0.3829 -0.9514  0.6733
  137MOL    H5235684   1.744   6.091   1.224 -2.3654  0.7908  2.8669
  137MOL    H5335685   1.841   6.218   1.162 -0.1016 -0.7229 -0.6550
  137MOL    C5435686   1.627   6.197   1.088 -0.2827 -0.4556 -0.3295
  137MOL    C5535687   1.684   6.145   0.951 -0.5184 -0.1711  0.4806
  137MOL    C5635688   1.764   6.237   0.861  0.3202 -0.3793 -0.1599
  137MOL    C5735689   1.628   6.182   0.820  0.0487  0.3689 -0.0601
  137MOL    C5835690   1.508   6.112   1.147 -0.0688  0.1405 -0.0692
  137MOL    H5935691   1.615   6.302   1.064  2.3574 -0.1212 -0.2289
  137MOL    H6035692   1.729   6.046   0.950 -0.0788  0.0150  1.1437
  137MOL    H6135693   1.765   6.346   0.871  1.5764 -0.1385 -2.5855
  137MOL    H6235694   1.852   6.205   0.806  0.7442  0.7493 -0.1510
  137MOL    H6335695   1.614   6.101   0.748 -0.7229 -1.5398  2.1875
  137MOL    H6435696   1.558   6.264   0.824 -0.2951  0.0573  0.3165
  137MOL    H6535697   1.532   6.006   1.155 -3.7580 -0.7692 -0.1809
  137MOL    H6635698   1.501   6.140   1.252 -0.0651 -0.6792  0.1492
  137MOL    C6735699   1.367   6.123   1.091  0.2762  0.5852  0.7152
  137MOL    C6835700   1.322   6.267   1.078  0.0122  0.1507  0.3148
  137MOL    C6935701   1.189   6.305   1.127 -0.1958 -0.2601 -0.1105
  137MOL    C7035702   1.306   6.374   1.190  0.2256 -0.1699 -0.0740
  137MOL    C7135703   1.357   6.037   0.964  0.4598 -0.0360  0.0329
  137MOL    H7235704   1.306   6.064   1.159  1.7908 -1.1602  0.5996
  137MOL    H7335705   1.351   6.318   0.986 -1.7661  2.4050  0.9481
  137MOL    H7435706   1.131   6.341   1.043  1.3412  1.9164 -0.2630
  137MOL    H7535707   1.133   6.240   1.194 -0.6266  0.5653  0.3341
  137MOL    H7635708   1.349   6.355   1.288  0.7308  0.1039 -0.2441
  137MOL    H7735709   1.332   6.474   1.156  1.4571 -0.6344 -0.5046
  137MOL    H7835710   1.427   5.954   0.958  0.5329 -0.0227  0.6409
  137MOL    H7935711   1.373   6.106   0.881  3.5735  1.3172  1.6711
  137MOL    C8035712   1.217   5.973   0.942  0.5530  0.2635  0.6114
  137MOL    C8135713   1.192   5.871   1.061 -0.4335  0.5655  0.6891
  137MOL    C8235714   1.061   5.796   1.069  0.2823  0.8160  0.3763
  137MOL    C8335715   1.099   5.901   1.167 -0.1367  0.1633  0.4539
  137MOL    C8435716   1.206   5.904   0.803 -0.4167 -0.1365  0.4136
  137MOL    H8535717   1.136   6.047   0.942  1.7122  1.5661  0.5136
  137MOL    H8635718   1.281   5.817   1.093 -0.1452  0.0224 -1.0017
  137MOL    H8735719   1.082   5.691   1.086  3.4085  1.5016  1.1023
  137MOL    H8835720   0.990   5.811   0.988  1.1645  0.3254 -0.5082
  137MOL    H8935721   1.055   5.999   1.149 -1.4229 -0.5536 -0.4176
  137MOL    H9035722   1.130   5.880   1.269  2.5071  2.4786  0.1644
  137MOL    H9135723   1.278   5.822   0.809  0.5381  0.8071  2.2689
  137MOL    H9235724   1.112   5.850   0.790  0.2938 -1.1861 -0.4584
  137MOL    C9335725   1.236   5.985   0.675  0.3308  1.0043  0.3303
  137MOL    C9435726   1.247   5.899   0.552 -0.1281  0.3548  0.5113
  137MOL    C9535727   1.365   5.929   0.458  0.0878 -0.2545  0.3930
  137MOL    C9635728   1.350   5.796   0.529 -0.0742  0.6466  0.3082
  137MOL    C9735729   1.131   6.097   0.654  0.2672 -0.4355  0.4448
  137MOL    H9835730   1.341   6.013   0.682  1.4946 -2.9928  0.5000
  137MOL    H9935731   1.155   5.870   0.503 -0.4688 -0.6995  1.7646
  137MOL   H10035732   1.338   5.927   0.352 -0.8215 -0.6579  0.6229
  137MOL   H10135733   1.450   5.994   0.478 -0.2080  0.5425 -0.8643
  137MOL   H10235734   1.321   5.708   0.471 -0.7282  0.0798  1.4698
  137MOL   H10335735   1.427   5.783   0.606  0.9214  1.0113 -0.6213
  137MOL   H10435736   1.077   6.124   0.745 -1.4465 -0.8652 -0.4262
  137MOL   H10535737   1.054   6.048   0.595 -1.8894  1.3888  1.6689
  137MOL   C10635738   1.193   6.221   0.583 -0.3076  0.0261  0.0658
  137MOL   C10735739   1.085   6.285   0.499 -0.5908 -0.5340 -0.2847
  137MOL   C10835740   1.122   6.338   0.361 -0.5550 -0.5698  0.5492
  137MOL   C10935741   1.038   6.216   0.374 -0.0356 -0.4525  0.0030
  137MOL   C11035742   1.264   6.310   0.688 -0.0356  0.1113  0.3509
  137MOL   H11135743   1.269   6.181   0.515 -1.1800 -1.4358 -0.0615
  137MOL   H11235744   1.017   6.351   0.553  0.4048 -0.1049  0.4721
  137MOL   H11335745   1.066   6.424   0.326 -1.3487 -0.9035  0.9891
  137MOL   H11435746   1.228   6.338   0.337 -0.7222 -1.6625 -0.2796
  137MOL   H11535747   1.086   6.129   0.330  0.3837  1.3841 -3.3032
  137MOL   H11635748   0.931   6.221   0.353 -0.4810 -2.5246  1.6120
  137MOL   H11735749   1.199   6.307   0.775 -1.6929 -0.4895 -0.8767
  137MOL   H11835750   1.356   6.262   0.722  2.2504  3.5352 -0.6556
  137MOL   C11935751   1.309   6.451   0.641  0.7034 -0.0886  0.1484
  137MOL   C12035752   1.318   6.544   0.769  0.1574  0.7660 -0.0927
  137MOL   C12135753   1.196   6.609   0.829 -0.2224 -0.3231 -0.1723
  137MOL   C12235754   1.300   6.694   0.759 -0.3325 -0.0212 -0.6326
  137MOL   C12335755   1.441   6.437   0.560 -0.3265 -0.0061  0.7803
  137MOL   H12435756   1.227   6.491   0.581  0.3957  1.0776  1.3480
  137MOL   H12535757   1.394   6.507   0.837 -0.3941  1.5060  0.9335
  137MOL   H12635758   1.182   6.625   0.936  2.3886 -1.5187  0.3864
  137MOL   H12735759   1.102   6.598   0.776 -1.0476  2.5878  0.5433
  137MOL   H12835760   1.274   6.735   0.662  2.0283 -0.1662 -1.3635
  137MOL   H12935761   1.366   6.750   0.825 -1.8004 -0.8548  1.5954
  137MOL   H13035762   1.510   6.395   0.633 -0.7201  2.0097  2.3448
  137MOL   H13135763   1.427   6.353   0.491 -1.2213  1.8871 -1.4261
  137MOL   C13235764   1.483   6.565   0.485  0.7697  0.5517  0.4993
  137MOL   C13335765   1.393   6.584   0.364  0.3769  0.2362 -0.0608
  137MOL   C13435766   1.404   6.711   0.285 -0.4754 -0.9309 -0.4106
  137MOL   C13535767   1.272   6.677   0.358 -0.1320  0.2358 -1.0655
  137MOL   C13635768   1.630   6.550   0.434 -0.2784 -0.1097 -0.1706
  137MOL   H13735769   1.466   6.652   0.549  1.2078  0.5935  0.5540
  137MOL   H13835770   1.381   6.493   0.305 -0.8370 -0.3227  1.0445
  137MOL   H13935771   1.451   6.788   0.347 -0.2885 -1.3470 -0.0298
  137MOL   H14035772   1.402   6.724   0.177 -1.5170 -0.7209 -0.3732
  137MOL   H14135773   1.245   6.744   0.439 -1.6375  2.0698 -3.0558
  137MOL   H14235774   1.191   6.656   0.289 -2.7393 -0.2499  2.0448
  137MOL   H14335775   1.653   6.444   0.431 -1.3482 -0.3624  0.2255
  137MOL   H14435776   1.633   6.585   0.331 -0.0698  1.8572  0.4807
  137MOL   C14535777   1.743   6.627   0.509  0.8555 -0.0293  0.1471
  137MOL   C14635778   1.746   6.578   0.649 -0.2862 -0.3263 -0.7010
  137MOL   C14735779   1.825   6.665   0.754 -0.0405  0.1266 -0.3886
  137MOL   C14835780   1.679   6.654   0.766  0.0588  0.0630  0.4183
  137MOL   C14935781   1.881   6.611   0.430 -0.1931  0.6185 -0.0735
  137MOL   H15035782   1.725   6.735   0.515 -0.1641 -0.2452  1.0342
  137MOL   H15135783   1.775   6.473   0.656 -2.1609 -0.9568 -1.8930
  137MOL   H15235784   1.885   6.620   0.833  0.5087  0.8325 -0.3936
  137MOL   H15335785   1.866   6.759   0.717  0.3171  0.3918  0.6472
  137MOL   H15435786   1.616   6.742   0.756 -0.3542 -0.4104 -1.3006
  137MOL   H15535787   1.656   6.584   0.846  1.9020 -1.8995 -0.6988
  137MOL   H15635788   1.959   6.649   0.496  0.3066  1.7938 -1.3101
  137MOL   H15735789   1.897   6.505   0.408 -0.5062  0.7709 -1.0619
  137MOL   C15835790   1.907   6.696   0.299 -0.2360 -0.6579 -0.2076
  137MOL   C15935791   2.015   6.627   0.217 -0.4147 -0.7450  0.5108
  137MOL   C16035792   2.003   6.481   0.173 -0.3599 -0.1438  0.1704
  137MOL   C16135793   1.992   6.595   0.076  0.6493  0.2972  0.2011
  137MOL   C16235794   1.951   6.845   0.332  0.3193  1.0664 -0.6312
  137MOL   H16335795   1.818   6.689   0.237  0.1911  1.7092 -1.1352
  137MOL   H16435796   2.115   6.668   0.231 -0.4715  0.1677 -1.6132
  137MOL   H16535797   1.915   6.418   0.185 -0.1012 -0.6025 -0.3439
  137MOL   H16635798   2.093   6.422   0.161 -0.4499 -0.5572  1.4818
  137MOL   H16735799   2.079   6.601   0.010  0.8636  1.0304  0.5488
  137MOL   H16835800   1.898   6.615   0.024 -0.3932 -0.5359  1.7168
  137MOL   H16935801   2.060   6.845   0.340  0.5315 -1.2180 -3.1370
  137MOL   H17035802   1.908   6.872   0.428  0.7374  1.7766 -0.6350
  137MOL   C17135803   1.893   6.950   0.237 -0.1338 -0.1123  0.7412
  137MOL   C17235804   1.743   6.955   0.222  0.2427  0.1971 -0.2312
  137MOL   C17335805   1.685   7.049   0.117 -0.7126 -0.0281 -0.3372
  137MOL   C17435806   1.673   6.897   0.099  0.0901 -0.6998  0.5568
  137MOL   C17535807   1.932   7.093   0.278 -0.4558  0.3793 -0.0359
  137MOL   H17635808   1.924   6.926   0.136 -1.0459  0.8328  0.2263
  137MOL   H17735809   1.693   6.970   0.318 -1.4591 -0.5426 -0.9827
  137MOL   H17835810   1.597   7.101   0.155  0.1837  0.5222  1.0375
  137MOL   H17935811   1.738   7.110   0.044  1.8366 -1.5121  0.2311
  137MOL   H18035812   1.738   6.868   0.017 -1.1071  2.2484 -1.5101
  137MOL   H18135813   1.574   6.853   0.110  0.1109 -0.7359  0.6046
  137MOL   H18235814   1.921   7.110   0.385  0.9138 -1.0324  0.3469
  137MOL   H18335815   1.867   7.170   0.236  0.4087  0.5573 -1.0567
  137MOL   C18435816   2.076   7.132   0.226 -0.0851  0.6842  1.1091
  137MOL   C18535817   2.113   7.274   0.270 -0.3782  0.2914 -0.4257
  137MOL   C18635818   2.248   7.303   0.324 -0.0450 -0.0867 -0.5419
  137MOL   C18735819   2.130   7.306   0.419 -0.1061 -0.4364  0.4370
  137MOL   C18835820   2.100   7.112   0.070 -0.3550 -0.4702 -0.1412
  137MOL   H18935821   2.145   7.066   0.279  1.0555  1.0547  0.0877
  137MOL   H19035822   2.071   7.361   0.221 -1.8088 -0.7034 -0.9875
  137MOL   H19135823   2.292   7.398   0.294 -0.6946  0.0311 -1.1277
  137MOL   H19235824   2.322   7.223   0.317 -1.0475 -1.2014  1.4029
  137MOL   H19335825   2.089   7.400   0.457 -1.6066  0.0442 -2.2350
  137MOL   H19435826   2.118   7.218   0.481 -0.9618  0.1562  1.1261
  137MOL   H19535827   2.086   7.216   0.040 -0.8124 -0.2963  0.6589
  137MOL   H19635828   2.021   7.059   0.017 -1.7191  0.8226  0.5442
  137MOL   C19735829   2.240   7.068   0.035  0.0669 -0.4803  0.0986
  137MOL   C19835830   2.291   7.149   7.754 -0.8514 -0.3885  0.5427
  137MOL   C19935831   2.448   7.184   7.753  0.1806  0.3819 -0.5033
  137MOL   C20035832   2.342   7.291   7.785 -0.1038  0.5393  0.1342
  137MOL   C20135833   2.238   6.915   0.005 -0.4833 -0.3880  0.2319
  137MOL   H20235834   2.313   7.079   0.115 -0.9136  0.2666  0.9134
  137MOL   H20335835   2.255   7.130   7.653  3.7227  1.3464 -1.5969
  137MOL   H20435836   2.511   7.154   7.837 -3.1049 -0.9380  1.5966
  137MOL   H20535837   2.504   7.185   7.660  0.4456  1.9828 -0.3381
  137MOL   H20635838   2.350   7.328   0.048  1.4490 -0.3681  0.3471
  137MOL   H20735839   2.305   7.361   7.711  1.1566  1.6418  0.5414
  137MOL   H20835840   2.192   6.864   0.090  0.8803  3.5594  3.4561
  137MOL   H20935841   2.172   6.902   7.758 -0.8787 -2.8411  0.8558
  137MOL   C21035842   2.375   6.845   7.828 -0.4595  0.1626  0.3678
  137MOL   C21135843   2.429   6.798   0.123  0.3116 -0.0357 -0.4081
  137MOL   C21235844   2.571   6.761   0.142  0.4539 -0.2551 -0.3753
  137MOL   C21335845   2.520   6.883   0.214  0.0976 -0.2146  0.3628
  137MOL   C21435846   2.362   6.722   7.732 -0.4855  0.1843  0.5081
  137MOL   H21535847   2.446   6.919   7.790 -2.4342  2.9808  2.0221
  137MOL   H21635848   2.357   6.736   0.175 -0.6876  1.9721  0.6352
  137MOL   H21735849   2.582   6.670   0.201 -0.2824  0.7506  1.3664
  137MOL   H21835850   2.639   6.776   0.059  2.3349 -2.0841  0.7900
  137MOL   H21935851   2.500   6.868   0.320  0.7141 -2.0825  0.2332
  137MOL   H22035852   2.568   6.974   0.178 -0.6872 -0.0437 -0.2608
  137MOL   H22135853   2.444   6.651   7.747 -0.2930  0.6746  1.9238
  137MOL   H22235854   2.271   6.674   7.767 -1.9663  1.4993 -1.5047
  137MOL   C22335855   2.356   6.774   7.585  0.6699  0.7236 -0.3562
  137MOL   C22435856   2.256   6.697   7.502 -0.4393  0.5700  0.0690
  137MOL   C22535857   2.105   6.703   7.531 -0.1669 -0.2707 -0.1016
  137MOL   C22635858   2.158   6.762   7.404 -0.1649 -0.5530  0.4057
  137MOL   C22735859   2.490   6.783   7.510  0.3096  0.1246 -0.1585
  137MOL   H22835860   2.310   6.873   7.594 -0.1192  0.4673 -1.3942
  137MOL   H22935861   2.289   6.597   7.475  2.9848  1.6742 -0.1247
  137MOL   H23035862   2.068   6.778   7.600 -0.6993  0.3071 -0.9965
  137MOL   H23135863   2.046   6.613   7.514 -0.7727  0.1671 -0.3313
  137MOL   H23235864   2.169   6.717   7.305 -0.3494 -0.1190  0.1832
  137MOL   H23335865   2.176   6.869   7.405 -4.7599  0.3558 -1.3288
  137MOL   H23435866   2.560   6.842   7.570 -2.3221  1.3271  1.8182
  137MOL   H23535867   2.533   6.684   7.520 -0.8660 -0.3372  0.3963
  137MOL   C23635868   2.499   6.837   7.365  0.0273  0.2441 -0.3898
  137MOL   C23735869   2.621   6.787   7.294  0.4631  0.3457 -0.3490
  137MOL   C23835870   2.629   6.653   7.236  0.5692  0.1029  0.4245
  137MOL   C23935871   2.621   6.776   7.145  0.4404 -0.5158  0.4805
  137MOL   C24035872   2.491   6.990   7.376 -0.3926 -0.7261 -0.0340
  137MOL   H24135873   2.416   6.799   7.306  0.8224 -0.1581 -1.2761
  137MOL   H24235874   2.711   6.824   7.342  0.3946  1.0107 -0.7372
  137MOL   H24335875   2.724   6.601   7.229  0.1243 -0.8362  1.2278
  137MOL   H24435876   2.540   6.590   7.248 -1.1210  1.9234 -2.0963
  137MOL   H24535877   2.527   6.799   7.095  1.1017 -1.2272 -1.1169
  137MOL   H24635878   2.714   6.807   7.100 -0.9319  1.3070 -1.2056
  137MOL   H24735879   2.413   7.022   7.445 -3.5084 -0.6564 -3.4201
  137MOL   H24835880   2.585   7.025   7.419 -0.3591  0.1298 -0.7852
  137MOL   C24935881   2.465   7.075   7.252  0.4556 -0.5260 -0.6643
  137MOL   C25035882   2.505   7.219   7.270  0.4124  0.2288  0.2722
  137MOL   C25135883   2.449   7.335   7.197 -0.1265 -1.0018 -0.6180
  137MOL   C25235884   2.407   7.313   7.335 -0.1289  0.2459  0.2918
  137MOL   C25335885   2.320   7.056   7.201 -0.3076 -0.6371  0.0241
  137MOL   H25435886   2.526   7.029   7.174  1.2177 -1.1042  0.2565
  137MOL   H25535887   2.602   7.229   7.317  0.2330  0.8711  0.5052
  137MOL   H25635888   2.513   7.422   7.186  2.2355 -2.8003 -1.5799
  137MOL   H25735889   2.376   7.313   7.119 -2.9706  2.7842  0.8231
  137MOL   H25835890   2.444   7.392   7.401  0.3593 -0.0810  0.4116
  137MOL   H25935891   2.310   7.268   7.357 -0.5596  1.0667  0.0817
  137MOL   H26035892   2.315   6.947   7.198 -2.6467 -0.5188 -2.4029
  137MOL   H26135893   2.304   7.097   7.101 -3.1288  3.2178  1.9186
  137MOL   H26235894   2.247   7.099   7.269  0.2053 -0.3550  0.4044
  138MOL     C135895   4.826   7.583   5.724 -0.0548 -0.9033  0.0476
  138MOL     C235896   4.937   7.488   5.699  0.5751 -0.3273 -0.3696
  138MOL     C335897   5.084   7.515   5.754  0.5051 -0.0894  0.3283
  138MOL     C435898   5.058   7.509   5.603 -0.2035  0.1898  0.3795
  138MOL     C535899   4.741   7.542   5.845  0.0263 -0.1580 -0.6161
  138MOL     H635900   4.869   7.681   5.745 -0.2257 -1.0406  1.0538
  138MOL     H735901   4.911   7.383   5.688 -2.0076  0.4177 -1.7959
  138MOL     H835902   5.104   7.613   5.797  0.3087  0.1083 -0.0272
  138MOL     H935903   5.136   7.429   5.796 -0.1614 -0.6808 -0.0339
  138MOL    H1035904   5.102   7.427   5.546  0.9111  1.9632 -1.3608
  138MOL    H1135905   5.047   7.600   5.545 -1.8778 -1.1861 -1.5487
  138MOL    H1235906   4.802   7.497   5.923 -1.4903  0.6654  1.0791
  138MOL    H1335907   4.680   7.455   5.821  0.1358 -0.2767 -0.4670
  138MOL    H1435908   4.757   7.591   5.640 -2.2544  0.6874  1.9543
  138MOL    C1535909   4.662   7.657   5.905  0.4358  0.2501 -0.3791
  138MOL    C1635910   4.527   7.667   5.833 -0.4951  0.7039 -0.0326
  138MOL    C1735911   4.508   7.750   5.706  0.0790  0.1511  0.2057
  138MOL    C1835912   4.450   7.796   5.835  0.5223 -0.3173 -0.0765
  138MOL    C1935913   4.639   7.635   6.054  0.0431 -0.0944  0.2420
  138MOL    H2035914   4.714   7.752   5.894 -1.8276  1.4890 -0.8332
  138MOL    H2135915   4.465   7.578   5.842  0.1981  0.2692  0.5022
  138MOL    H2235916   4.435   7.712   5.635  0.0570  2.6823 -1.1927
  138MOL    H2335917   4.595   7.804   5.667 -1.7833  2.3659 -0.9802
  138MOL    H2435918   4.491   0.044   5.885 -1.9431  1.0977 -0.4684
  138MOL    H2535919   4.346   7.775   5.859  0.7116 -0.0131  1.0350
  138MOL    H2635920   4.624   7.528   6.070  1.7447 -0.4008 -0.1491
  138MOL    H2735921   4.544   7.687   6.072 -0.6796 -0.9005 -1.1588
  138MOL    C2835922   4.744   7.684   6.159  0.4080  0.3971 -0.0432
  138MOL    C2935923   4.867   7.597   6.152 -0.7212 -0.6880 -0.2890
  138MOL    C3035924   4.992   7.645   6.088 -0.5949  0.3440 -0.3464
  138MOL    C3135925   4.985   7.627   6.238  0.5624 -0.2677 -0.3014
  138MOL    C3235926   4.669   7.669   6.293  0.0413 -0.0947 -0.1905
  138MOL    H3335927   4.771   7.788   6.140  0.7173  0.3214 -0.0157
  138MOL    H3435928   4.857   7.489   6.153 -0.9344 -0.6725  1.4982
  138MOL    H3535929   5.004   7.748   6.056  2.7691  0.2171  0.3581
  138MOL    H3635930   5.041   7.565   6.033 -0.5753  0.0931  0.0328
  138MOL    H3735931   4.980   7.724   6.288 -2.7574  0.1603 -1.3369
  138MOL    H3835932   5.027   7.549   6.301 -0.6605  0.7190  1.8225
  138MOL    H3935933   4.735   7.679   6.380 -0.3220  2.7980 -0.2029
  138MOL    H4035934   4.632   7.567   6.299 -0.9549  0.2109 -0.9864
  138MOL    C4135935   4.558   7.776   6.326 -0.1282 -0.1769 -0.2829
  138MOL    C4235936   4.614   0.079   6.333  0.3467  0.3741 -0.2741
  138MOL    C4335937   4.520   0.203   6.324 -0.2537 -0.2005 -0.1496
  138MOL    C4435938   4.607   0.161   6.210 -0.6372 -0.2223 -0.2543
  138MOL    C4535939   4.482   7.745   6.461 -0.6445  0.2036  0.1585
  138MOL    H4635940   4.492   7.772   6.239  2.1209  1.3160 -2.1215
  138MOL    H4735941   4.701   0.085   6.399 -0.8678  2.3890  1.2184
  138MOL    H4835942   4.416   0.188   6.297 -1.3160  3.5650  1.5126
  138MOL    H4935943   4.551   0.301   6.358  2.5261 -1.4450  1.0681
  138MOL    H5035944   4.696   0.223   6.197  0.8901 -1.7152  2.5360
  138MOL    H5135945   4.559   0.114   6.125 -0.1399  1.6614 -1.6163
  138MOL    H5235946   4.444   0.001   6.498  0.0891 -0.7705  3.5752
  138MOL    H5335947   4.550   7.722   6.542 -1.3625  0.0105  0.7132
  138MOL    C5435948   4.362   7.654   6.456 -0.3533 -1.3540  0.2126
  138MOL    C5535949   4.329   7.600   6.595 -0.3933 -0.3320 -0.4236
  138MOL    C5635950   4.424   7.504   6.662  0.1384  0.5778  0.3931
  138MOL    C5735951   4.288   7.457   6.606 -0.6475 -0.4232  0.0687
  138MOL    C5835952   4.241   7.719   6.386 -0.2104  0.9454  0.0474
  138MOL    H5935953   4.391   7.568   6.395  0.4478 -0.7967 -0.1975
  138MOL    H6035954   4.308   7.673   6.673  2.7350 -0.2653  0.4153
  138MOL    H6135955   4.514   7.469   6.611 -1.9900 -1.7904 -1.8920
  138MOL    H6235956   4.430   7.501   6.771 -2.1950  1.5788  0.5738
  138MOL    H6335957   4.209   7.431   6.676 -1.3501  0.5170 -0.3747
  138MOL    H6435958   4.286   7.404   6.511  0.0127  1.4138 -0.9999
  138MOL    H6535959   4.207   7.792   6.459 -1.5740  1.2213 -0.8260
  138MOL    H6635960   4.270   7.779   6.299 -0.6703  0.2509 -0.5877
  138MOL    C6735961   4.117   7.632   6.345 -0.3442  0.7203  0.2146
  138MOL    C6835962   3.991   7.724   6.335 -0.0755 -0.1586  0.5244
  138MOL    C6935963   3.852   7.681   6.378 -0.9316 -0.1907  0.8675
  138MOL    C7035964   3.925   7.786   6.456  0.1795  0.6789 -0.1401
  138MOL    C7135965   4.144   7.545   6.222  0.7339 -0.3508 -0.0459
  138MOL    H7235966   4.097   7.558   6.423 -3.1407  1.7639  0.5520
  138MOL    H7335967   3.988   7.797   6.254  2.2777  0.0026  0.5728
  138MOL    H7435968   3.768   7.714   6.318 -0.0348  1.3173  0.4281
  138MOL    H7535969   3.853   7.576   6.407 -0.0728 -1.0417 -2.0485
  138MOL    H7635970   3.963   7.760   6.554 -1.9494 -1.1737  0.2365
  138MOL    H7735971   3.878   0.044   6.460 -0.9050  0.1857 -0.5732
  138MOL    H7835972   4.239   7.492   6.233  1.8135  1.3894 -0.6623
  138MOL    H7935973   4.135   7.614   6.137  2.9072  0.6674  0.4923
  138MOL    C8035974   4.049   7.418   6.208 -0.6511  0.0121 -0.1830
  138MOL    C8135975   4.083   7.311   6.314 -0.4770  0.0179  0.5024
  138MOL    C8235976   3.995   7.197   6.352 -0.2718  0.6834 -0.1269
  138MOL    C8335977   4.026   7.298   6.460 -0.1690  0.3803  0.0251
  138MOL    C8435978   4.051   7.352   6.074 -0.6034 -0.0030 -0.4996
  138MOL    H8535979   3.950   7.448   6.243 -0.5305  0.3833 -0.1559
  138MOL    H8635980   4.190   7.291   6.315 -0.6986 -1.4429 -1.6692
  138MOL    H8735981   4.048   7.102   6.341  0.4343  1.2767 -2.0949
  138MOL    H8835982   3.891   7.195   6.319  0.3328 -1.8682 -2.1254
  138MOL    H8935983   3.944   7.358   6.497 -0.9911  0.5356 -1.9946
  138MOL    H9035984   4.086   7.255   6.541 -0.7555  0.0518  0.2840
  138MOL    H9135985   4.153   7.329   6.042 -0.1405  0.3634  0.6731
  138MOL    H9235986   4.002   7.256   6.093 -1.4722 -0.0376 -2.7816
  138MOL    C9335987   3.966   7.426   5.967  0.3016  0.1266 -0.2383
  138MOL    C9435988   4.045   7.450   5.843  0.2079  0.8315  0.3571
  138MOL    C9535989   4.011   7.569   5.759 -0.5210  0.1663 -0.5243
  138MOL    C9635990   4.141   7.563   5.830  0.1469 -0.2733 -0.8524
  138MOL    C9735991   3.832   7.362   5.922  0.0702 -0.1098  0.3895
  138MOL    H9835992   3.942   7.525   6.005  0.2836  0.2291 -0.5102
  138MOL    H9935993   4.052   7.365   5.774 -3.0508  1.4603 -0.8390
  138MOL   H10035994   4.019   7.557   5.652 -0.4814  1.9262 -0.7440
  138MOL   H10135995   3.942   7.650   5.784 -0.1935  0.2628  0.0854
  138MOL   H10235996   4.212   7.566   5.747  3.3523 -2.6669  1.6701
  138MOL   H10335997   4.133   7.641   5.906 -1.3808 -0.5082 -0.7662
  138MOL   H10435998   3.846   7.262   5.881 -1.3773 -1.2176  2.4477
  138MOL   H10535999   3.798   7.418   5.835  0.4774  1.6076  1.3195
  138MOL   C10636000   3.718   7.334   6.033  1.0320  0.1875  0.4767
  138MOL   C10736001   3.679   7.464   6.104  0.5368  0.2116 -0.1829
  138MOL   C10836002   3.596   7.560   6.028  0.0608  0.2449  0.2910
  138MOL   C10936003   3.539   7.509   6.154 -0.0242  0.1815  0.3765
  138MOL   C11036004   3.603   7.257   5.972 -0.1521 -0.3816 -0.9707
  138MOL   H11136005   3.763   7.272   6.111  1.0929 -1.0954 -0.5762
  138MOL   H11236006   3.764   7.506   6.156  0.8916 -0.0347 -0.5648
  138MOL   H11336007   3.616   7.667   6.022  2.7668 -0.2219  0.4141
  138MOL   H11436008   3.541   7.523   5.941 -0.9533  1.7702  0.2580
  138MOL   H11536009   3.459   7.435   6.147 -1.0541  1.0798  2.1187
  138MOL   H11636010   3.560   7.565   6.245  2.8288 -1.1620  0.6110
  138MOL   H11736011   3.530   7.231   6.049  1.4999  1.3159  1.2364
  138MOL   H11836012   3.565   7.313   5.886  1.2687 -0.9987 -2.0295
  138MOL   C11936013   3.635   7.119   5.916 -0.3657  0.8643 -0.0090
  138MOL   C12036014   3.709   7.025   6.015 -0.0497 -0.4614 -0.3375
  138MOL   C12136015   3.859   7.015   6.031 -0.2842 -0.2184 -0.5340
  138MOL   C12236016   3.789   6.910   5.952 -0.8207  0.2811 -0.7451
  138MOL   C12336017   3.512   7.042   5.857 -0.1149  0.1109 -0.0113
  138MOL   H12436018   3.697   7.128   5.827 -2.6798  0.8201 -1.6892
  138MOL   H12536019   3.648   6.992   6.099  0.8596 -0.0040  0.5039
  138MOL   H12636020   3.909   6.992   6.125  0.8725 -1.6025 -1.4733
  138MOL   H12736021   3.925   7.066   5.962  0.9430 -2.6602 -1.1984
  138MOL   H12836022   3.809   6.906   5.845 -2.4791  0.3025 -1.0691
  138MOL   H12936023   3.772   6.811   5.995  1.0222 -1.0913 -3.0450
  138MOL   H13036024   3.522   6.936   5.835  1.8900  0.3270 -0.2619
  138MOL   H13136025   3.441   7.046   5.940  1.3454  0.0189  1.2541
  138MOL   C13236026   3.447   7.099   5.723  0.4197 -0.9558 -0.0534
  138MOL   C13336027   3.552   7.162   5.627 -0.2517 -0.4850 -0.7363
  138MOL   C13436028   3.540   7.180   5.476 -0.2602 -0.0753 -0.0565
  138MOL   C13536029   3.629   7.071   5.538 -0.2874 -0.1399  0.5240
  138MOL   C13636030   3.330   7.200   5.749 -0.0810  0.0654  0.0621
  138MOL   H13736031   3.418   7.010   5.666 -1.3920  1.0904 -2.4373
  138MOL   H13836032   3.601   7.249   5.670 -1.0483 -0.3190 -0.1482
  138MOL   H13936033   3.462   7.142   5.410  0.4213  0.5700 -1.2380
  138MOL   H14036034   3.595   7.268   5.443  0.5034 -0.1637  0.9623
  138MOL   H14136035   3.596   6.968   5.540  1.5360 -0.8849 -2.8538
  138MOL   H14236036   3.736   7.085   5.550 -0.3762  2.0499 -0.7646
  138MOL   H14336037   3.280   7.167   5.839 -1.7905  4.8147  0.9690
  138MOL   H14436038   3.357   7.300   5.781 -0.0101  0.2898 -0.6795
  138MOL   C14536039   3.216   7.214   5.649 -0.0018  0.1156  0.5019
  138MOL   C14636040   3.242   7.326   5.550  0.7683  0.0290  0.9807
  138MOL   C14736041   3.123   7.417   5.509 -0.4552  0.1744 -0.5996
  138MOL   C14836042   3.248   7.469   5.590  0.1154  0.5952  0.3375
  138MOL   C14936043   3.174   7.084   5.577  0.0573 -0.1377 -0.1975
  138MOL   H15036044   3.131   7.256   5.703 -1.2951 -2.1672  0.2948
  138MOL   H15136045   3.297   7.293   5.462 -2.4166 -0.2163 -1.0150
  138MOL   H15236046   3.127   7.465   5.412 -2.5840  1.7519  0.0569
  138MOL   H15336047   3.027   7.404   5.559 -0.8808  1.8962 -0.9328
  138MOL   H15436048   3.239   7.485   5.697  0.7360  0.5644  0.3967
  138MOL   H15536049   3.321   7.531   5.538  0.3962 -1.1076 -1.3734
  138MOL   H15636050   3.105   7.101   5.495 -1.6667 -0.9485  1.0616
  138MOL   H15736051   3.261   7.042   5.527  0.4822  0.0195  0.3999
  138MOL   C15836052   3.118   6.977   5.675  0.3900  0.2784 -0.3986
  138MOL   C15936053   3.113   6.844   5.610  0.3454 -0.1928 -0.1306
  138MOL   C16036054   3.227   6.750   5.605 -0.3258  0.2631 -0.6637
  138MOL   C16136055   3.097   6.718   5.690 -0.5810 -0.8944 -0.7435
  138MOL   C16236056   2.971   7.006   5.718  0.1201  0.0264 -0.0007
  138MOL   H16336057   3.185   6.973   5.760  1.4266  0.2116 -1.2127
  138MOL   H16436058   3.063   6.834   5.514  0.5790 -1.1008 -0.1709
  138MOL   H16536059   3.319   6.777   5.655 -2.3250 -0.7453  3.8423
  138MOL   H16636060   3.250   6.695   5.514  1.2792 -1.4354  0.7350
  138MOL   H16736061   3.024   6.644   5.658 -0.6303 -1.3103  0.3205
  138MOL   H16836062   3.106   6.719   5.798  0.2638  0.0046 -0.8138
  138MOL   H16936063   2.902   6.931   5.680  0.7972 -1.0086  0.7852
  138MOL   H17036064   2.954   7.094   5.655 -0.3719  0.3475  0.5751
  138MOL   C17136065   2.944   7.046   5.857 -0.5652 -0.7331  0.2790
  138MOL   C17236066   2.805   7.110   5.871  0.7092  0.1371 -0.0512
  138MOL   C17336067   2.774   7.203   5.982  0.5036  0.8178  0.3186
  138MOL   C17436068   2.772   7.256   5.840  0.4984  0.5058  0.0402
  138MOL   C17536069   2.967   6.927   5.961 -0.0136 -0.2744  0.1043
  138MOL   H17636070   3.015   7.126   5.875 -1.3254  0.6774 -2.6520
  138MOL   H17736071   2.731   7.034   5.848  0.7251  0.6023 -1.7114
  138MOL   H17836072   2.684   7.203   6.044  0.6916  1.1202  0.5914
  138MOL   H17936073   2.859   7.242   6.038 -0.4817  1.0366  1.6831
  138MOL   H18036074   2.849   7.318   5.796  0.5043  0.7548  0.4033
  138MOL   H18136075   2.674   7.267   5.795  0.6285  1.9784  0.1003
  138MOL   H18236076   3.050   6.863   5.931  1.7124  0.7007  2.5384
  138MOL   H18336077   2.881   6.862   5.971 -0.6878  0.3613 -1.4723
  138MOL   C18436078   3.008   6.972   6.100 -0.4119  0.0877  0.2675
  138MOL   C18536079   3.144   7.043   6.095 -0.8677  0.3355 -0.6819
  138MOL   C18636080   3.200   7.115   6.220  0.4966 -0.2975  0.2410
  138MOL   C18736081   3.169   7.191   6.087 -0.0675 -0.4337  0.0777
  138MOL   C18836082   3.016   6.853   6.194 -0.1968 -0.4263  0.3441
  138MOL   H18936083   2.946   7.053   6.138  1.3508  0.8247  1.6852
  138MOL   H19036084   3.219   6.984   6.043 -1.4736 -1.7862  0.7326
  138MOL   H19136085   3.306   7.102   6.241  0.1803 -1.4877  1.1405
  138MOL   H19236086   3.142   7.149   6.306 -2.1924  2.2220 -2.4419
  138MOL   H19336087   3.258   7.232   6.040  0.1516 -1.7835 -0.6843
  138MOL   H19436088   3.087   7.264   6.089  1.2457  1.0898 -0.3636
  138MOL   H19536089   3.073   6.893   6.278 -0.1250 -1.0737  0.6140
  138MOL   H19636090   3.080   6.780   6.144 -0.1751  0.2452 -0.5994
  138MOL   C19736091   2.879   6.796   6.239 -0.0343  0.2035 -0.0242
  138MOL   C19836092   2.806   6.913   6.306  0.5322 -0.2106  0.0414
  138MOL   C19936093   2.651   6.895   6.343 -0.1275 -0.3886  0.2557
  138MOL   C20036094   2.695   6.996   6.235  0.1617  0.5855  0.2355
  138MOL   C20136095   2.905   6.682   6.338 -0.0973  0.1038 -0.6974
  138MOL   H20236096   2.816   6.770   6.154  1.9955  0.1391 -1.5532
  138MOL   H20336097   2.855   6.960   6.391 -3.4699  2.5650  0.9552
  138MOL   H20436098   2.597   6.803   6.323 -0.6941 -0.1579  0.6808
  138MOL   H20536099   2.627   6.938   6.441  0.0160  1.2661 -0.4095
  138MOL   H20636100   2.665   6.968   6.134  0.1678 -0.6855  0.5791
  138MOL   H20736101   2.708   7.101   6.260 -1.0392  0.2404  2.3999
  138MOL   H20836102   2.979   6.721   6.408 -0.3650 -0.6242 -0.0021
  138MOL   H20936103   2.818   6.662   6.400  0.4413 -1.7572 -0.5144
  138MOL   C21036104   2.953   6.547   6.281 -0.3677 -0.1016 -0.6783
  138MOL   C21136105   2.988   6.454   6.391  0.5553  0.6260  0.2749
  138MOL   C21236106   3.115   6.370   6.413  0.4377 -0.2002 -0.0520
  138MOL   C21336107   3.087   6.495   6.495 -0.8389  0.3799 -0.0632
  138MOL   C21436108   2.849   6.491   6.183  0.2366  0.0256 -0.4848
  138MOL   H21536109   3.049   6.558   6.232 -0.0134 -1.6142 -0.3380
  138MOL   H21636110   2.895   6.416   6.433  0.6050  0.3562  0.1388
  138MOL   H21736111   3.122   6.272   6.458 -1.7889 -1.7295 -2.9002
  138MOL   H21836112   3.187   6.384   6.333 -0.6168 -0.6692 -1.1000
  138MOL   H21936113   3.047   6.483   6.596  0.7501  0.4474  0.5843
  138MOL   H22036114   3.158   6.577   6.483  0.5564 -0.8476 -0.1899
  138MOL   H22136115   2.754   6.468   6.232 -0.1111  2.3703  0.0302
  138MOL   H22236116   2.832   6.572   6.112 -0.5510  0.3525  0.0642
  138MOL   C22336117   2.899   6.373   6.099 -0.1500 -0.2510 -0.0065
  138MOL   C22436118   2.831   6.376   5.965 -0.0250 -0.0417  0.2222
  138MOL   C22536119   2.878   6.483   5.867  0.2309 -0.0824 -0.2384
  138MOL   C22636120   2.901   6.334   5.835  0.6762 -0.1959  0.1812
  138MOL   C22736121   2.869   6.239   6.168 -0.0683 -0.4091 -0.4791
  138MOL   H22836122   3.006   6.380   6.079  0.1533 -0.5815  1.3867
  138MOL   H22936123   2.722   6.374   5.974  0.0761  0.4755  1.6487
  138MOL   H23036124   2.982   6.514   5.862  0.8476 -1.5571  2.3778
  138MOL   H23136125   2.794   6.538   5.824 -0.2209 -2.2162 -2.1787
  138MOL   H23236126   2.839   6.289   5.757 -0.0530 -2.2033  1.8799
  138MOL   H23336127   3.002   6.294   5.840  0.2244 -1.1327  2.6367
  138MOL   H23436128   2.881   6.250   6.276  0.8294  0.1809 -0.6342
  138MOL   H23536129   2.763   6.225   6.145 -0.9889  0.2633  2.9820
  138MOL   C23636130   2.941   6.113   6.120  1.0140 -0.1514 -0.0417
  138MOL   C23736131   2.868   5.986   6.169 -0.2487 -0.1582 -0.2447
  138MOL   C23836132   2.857   5.959   6.315  0.2056 -0.0218 -0.3738
  138MOL   C23936133   2.730   5.975   6.234  0.4387  0.1872  0.1679
  138MOL   C24036134   3.091   6.108   6.151 -0.0924  0.3693  0.7811
  138MOL   H24136135   2.930   6.100   6.013 -0.8901 -0.2965  0.1459
  138MOL   H24236136   2.903   5.900   6.113  0.4314 -1.3581  1.9907
  138MOL   H24336137   2.878   5.857   6.348  0.5430  0.0918 -0.2345
  138MOL   H24436138   2.885   6.036   6.386 -2.2685  0.0778  0.5698
  138MOL   H24536139   2.662   6.057   6.252 -0.5545 -0.5340 -0.2705
  138MOL   H24636140   2.674   5.882   6.238  0.6716  0.0981  1.9243
  138MOL   H24736141   3.134   6.201   6.114 -0.4915  0.8299  1.4459
  138MOL   H24836142   3.115   6.113   6.258 -1.4099  1.8315  1.0391
  138MOL   C24936143   3.187   6.000   6.088 -0.2748  0.0733 -0.0158
  138MOL   C25036144   3.334   6.051   6.118  0.3156 -0.5362 -0.3843
  138MOL   C25136145   3.381   6.050   6.264 -0.1192 -0.0136 -0.3068
  138MOL   C25236146   3.449   5.967   6.158 -0.2212  0.1036 -0.8558
  138MOL   C25336147   3.177   5.976   5.941  0.0445 -0.5390  0.2438
  138MOL   H25436148   3.157   5.903   6.127  0.8263 -0.2539  0.0278
  138MOL   H25536149   3.361   6.140   6.063  3.0096 -1.6449 -0.9323
  138MOL   H25636150   3.442   6.132   6.300  1.0721 -1.7740  1.7810
  138MOL   H25736151   3.313   5.998   6.331  0.0027 -1.2503 -1.1292
  138MOL   H25836152   3.536   5.990   6.096  0.4381  0.3614  0.1552
  138MOL   H25936153   3.429   5.861   6.175  1.9023 -0.3446 -0.9293
  138MOL   H26036154   3.079   5.934   5.918 -1.3284  0.9469  3.0931
  138MOL   H26136155   3.247   5.901   5.904 -1.1795 -0.6350 -1.9732
  138MOL   H26236156   3.178   6.062   5.874  0.3319 -1.4649 -0.9480
  139MOL     C136157   1.853   7.792   0.136  0.3659 -0.1293  0.0078
  139MOL     C236158   1.796   7.815   7.839 -0.2979  0.4071  0.9020
  139MOL     C336159   1.780   0.113   7.777  0.0513 -0.1425  0.3461
  139MOL     C436160   1.656   0.043   7.825 -0.0962 -0.0104 -0.7622
  139MOL     C536161   2.001   7.837   0.138  0.0714  0.1268  0.2049
  139MOL     H636162   1.794   0.006   0.211  2.0922 -0.6571  1.7801
  139MOL     H736163   1.816   7.739   7.763 -1.1423  0.6738  0.4138
  139MOL     H836164   1.831   0.191   7.833 -2.2124 -0.6648  3.2489
  139MOL     H936165   1.807   0.115   7.671  0.0743  1.5965  0.3709
  139MOL    H1036166   1.595   0.005   7.742  0.6623 -1.6719 -0.5795
  139MOL    H1136167   1.604   0.087   0.070  1.0443 -0.0008 -0.0626
  139MOL    H1236168   2.010   0.106   0.129  0.8527  0.0713  0.2421
  139MOL    H1336169   2.059   7.797   0.054  1.6499  0.7354  0.9776
  139MOL    H1436170   1.844   7.686   0.160 -2.5230  0.0737 -0.0569
  139MOL    C1536171   2.089   7.793   0.255 -0.1223  0.1643  0.4546
  139MOL    C1636172   2.236   7.812   0.218 -0.0191  0.4746 -0.4814
  139MOL    C1736173   2.302   7.693   0.160 -0.5453 -0.1450  0.0409
  139MOL    C1836174   2.350   7.746   0.292 -0.2256  0.2117 -0.2563
  139MOL    C1936175   2.056   0.031   0.383  0.5551 -0.1036 -0.6664
  139MOL    H2036176   2.067   7.687   0.270 -2.5390  0.4401 -0.8230
  139MOL    H2136177   2.254   0.074   0.181 -1.8682  1.0208  0.0308
  139MOL    H2236178   2.348   7.714   0.063 -0.9629  1.5714  0.2047
  139MOL    H2336179   2.243   7.602   0.162  1.2880 -1.3178  1.9354
  139MOL    H2436180   2.334   7.683   0.380 -0.2218  0.0273 -0.3885
  139MOL    H2536181   2.443   7.802   0.297 -0.7297  0.9856  0.4815
  139MOL    H2636182   1.974   0.103   0.376  1.0289  0.6777  1.4110
  139MOL    H2736183   2.135   0.106   0.392 -0.0511  0.4373  0.2630
  139MOL    C2836184   2.031   7.798   0.518  0.8187 -0.5735  0.3965
  139MOL    C2936185   2.145   7.710   0.560  0.2162 -0.2439 -0.3753
  139MOL    C3036186   2.252   7.771   0.644 -0.6470 -0.8058  0.2655
  139MOL    C3136187   2.161   7.667   0.704  0.3198 -0.2582  0.8070
  139MOL    C3236188   1.899   7.719   0.513 -0.2889 -0.1673  0.1682
  139MOL    H3336189   2.020   0.041   0.589  2.5868 -0.3151  0.3906
  139MOL    H3436190   2.173   7.624   0.501 -2.8225 -1.8985  0.5113
  139MOL    H3536191   2.238   0.030   0.687 -1.2018 -0.5172 -0.5571
  139MOL    H3636192   2.353   7.740   0.617 -0.2455  0.0391  0.7976
  139MOL    H3736193   2.087   7.702   0.776  0.1173  0.3070  0.3351
  139MOL    H3836194   2.197   7.568   0.730  1.7182  0.1557  0.4777
  139MOL    H3936195   1.917   7.620   0.555  0.2627 -0.6213 -1.1151
  139MOL    H4036196   1.873   7.712   0.408  1.1060  3.0218 -0.4444
  139MOL    C4136197   1.777   7.775   0.593  0.3939 -0.5013  0.9625
  139MOL    C4236198   1.797   7.776   0.746  0.6407 -0.2727  0.1006
  139MOL    C4336199   1.724   0.021   0.845  1.3703  0.4681 -0.1927
  139MOL    C4436200   1.878   0.042   0.822  0.6102 -0.4124 -0.4430
  139MOL    C4536201   1.647   7.699   0.556 -0.2863  0.1108 -0.0624
  139MOL    H4636202   1.767   0.041   0.567 -3.7684 -1.1628 -0.5523
  139MOL    H4736203   1.821   7.678   0.788  1.1549  0.3571  1.3001
  139MOL    H4836204   1.661   0.107   0.823  1.6644  0.3521 -1.4963
  139MOL    H4936205   1.688   7.799   0.927 -0.5587  1.5598 -0.1965
  139MOL    H5036206   1.956   0.011   0.891 -0.1426 -0.5091  0.3641
  139MOL    H5136207   1.898   0.134   0.767  0.2695 -0.9766 -1.5226
  139MOL    H5236208   1.654   7.595   0.588  1.0606  0.4030  0.6238
  139MOL    H5336209   1.642   7.700   0.447 -0.6018 -0.2578 -0.0516
  139MOL    C5436210   1.508   7.751   0.605 -0.2420  0.1368 -0.1550
  139MOL    C5536211   1.486   0.060   0.579  0.1517 -0.0661 -0.2508
  139MOL    C5636212   1.348   0.119   0.563 -0.0007  0.4005 -0.1512
  139MOL    C5736213   1.441   0.115   0.446 -0.0600 -0.2788 -0.7871
  139MOL    C5836214   1.399   7.653   0.551  0.1894 -0.0235  0.7039
  139MOL    H5936215   1.514   7.741   0.714 -0.8112  2.1576  0.0899
  139MOL    H6036216   1.542   0.123   0.648 -0.2702 -0.6909  0.6913
  139MOL    H6136217   1.259   0.056   0.557 -0.2901  0.8457 -0.6167
  139MOL    H6236218   1.315   0.218   0.595  0.4248  0.7727 -0.8586
  139MOL    H6336219   1.469   0.215   0.415  2.7690 -1.2789 -1.6056
  139MOL    H6436220   1.425   0.041   0.367 -0.3151 -0.2783 -0.7387
  139MOL    H6536221   1.369   7.686   0.452  1.8793 -0.0543  0.1707
  139MOL    H6636222   1.438   7.554   0.525  1.0079  0.6157 -0.5446
  139MOL    C6736223   1.282   7.627   0.655 -0.3519  0.7794  0.0158
  139MOL    C6836224   1.170   7.559   0.577  0.5935  0.1917  0.0566
  139MOL    C6936225   1.030   7.567   0.631  0.0071  0.6451 -0.2920
  139MOL    C7036226   1.071   7.639   0.501  0.8421 -0.3428  0.3416
  139MOL    C7136227   1.310   7.545   0.783 -0.5203 -0.0791  0.1047
  139MOL    H7236228   1.231   7.718   0.685 -1.4726 -1.0560  3.9718
  139MOL    H7336229   1.190   7.456   0.549 -2.2183 -0.3969  0.0916
  139MOL    H7436230   0.982   7.470   0.623  2.2951 -0.4433 -1.0707
  139MOL    H7536231   1.003   7.633   0.713 -2.0784  0.9286 -1.1642
  139MOL    H7636232   1.089   7.746   0.498 -0.2565 -0.1065  1.4482
  139MOL    H7736233   1.034   7.603   0.405  0.7939 -3.4274  1.4576
  139MOL    H7836234   1.215   7.545   0.836 -1.0756  0.3300 -0.8608
  139MOL    H7936235   1.363   7.614   0.848  3.0405 -1.6737 -1.0050
  139MOL    C8036236   1.384   7.409   0.772 -0.7768 -0.0638 -0.2906
  139MOL    C8136237   1.293   7.297   0.827 -0.0264  0.1893 -0.3115
  139MOL    C8236238   1.305   7.164   0.760 -0.2915 -0.4399  0.2259
  139MOL    C8336239   1.174   7.234   0.763 -0.5515  0.0246 -0.2232
  139MOL    C8436240   1.518   7.405   0.852 -0.0417  0.4109  0.0759
  139MOL    H8536241   1.393   7.386   0.666 -1.9918 -1.6516 -0.0732
  139MOL    H8636242   1.300   7.279   0.934 -3.3236  1.3770  0.1450
  139MOL    H8736243   1.323   7.084   0.831  2.7575  0.2088  0.2425
  139MOL    H8836244   1.352   7.155   0.662 -0.8565 -0.0062 -0.0890
  139MOL    H8936245   1.136   7.267   0.667  0.1226 -1.8666 -1.1836
  139MOL    H9036246   1.101   7.211   0.840 -0.1143  0.1241  0.2249
  139MOL    H9136247   1.565   7.503   0.842  2.0343 -0.4836  0.8324
  139MOL    H9236248   1.493   7.392   0.958  0.3001  2.9353  0.4977
  139MOL    C9336249   1.621   7.300   0.795  0.2633 -0.0222  0.4505
  139MOL    C9436250   1.667   7.321   0.660 -0.7469  0.4860  0.0436
  139MOL    C9536251   1.756   7.220   0.584  0.0189  0.4889 -0.1769
  139MOL    C9636252   1.614   7.248   0.537  0.3040  0.5746 -0.2087
  139MOL    C9736253   1.754   7.306   0.881  0.4048 -0.1925  0.0411
  139MOL    H9836254   1.566   7.205   0.796 -0.1633  0.1692 -1.9558
  139MOL    H9936255   1.705   7.423   0.656 -1.0998  0.6751  1.2773
  139MOL   H10036256   1.836   7.265   0.527  2.9011  0.3308  3.5579
  139MOL   H10136257   1.774   7.125   0.635  0.1509  0.3175 -0.5366
  139MOL   H10236258   1.603   7.301   0.442  1.5552  0.1416 -0.5961
  139MOL   H10336259   1.545   7.164   0.533 -1.4383  1.9864 -0.3612
  139MOL   H10436260   1.799   7.405   0.866 -0.1853 -0.2277 -2.2588
  139MOL   H10536261   1.837   7.252   0.836  0.3625  0.7230 -1.1779
  139MOL   C10636262   1.745   7.262   1.025  0.1575 -0.1255 -0.0734
  139MOL   C10736263   1.686   7.119   1.031  0.0652 -0.9630  0.1034
  139MOL   C10836264   1.634   7.077   1.161 -0.0159  0.6454  0.6021
  139MOL   C10936265   1.543   7.080   1.044  0.6251  0.0931 -0.2183
  139MOL   C11036266   1.874   7.270   1.111  0.1928  0.3909 -0.6502
  139MOL   H11136267   1.680   7.338   1.069  0.4340  0.7832 -1.2302
  139MOL   H11236268   1.752   7.052   0.976  2.5341  1.5167 -0.0833
  139MOL   H11336269   1.659   6.981   1.206 -0.4784  0.3508  0.2433
  139MOL   H11436270   1.618   7.153   1.237  1.7448  1.0743  0.5695
  139MOL   H11536271   1.480   7.165   1.020 -1.3569 -1.5105 -0.8401
  139MOL   H11636272   1.510   6.983   1.008  0.5373 -0.4838  1.3615
  139MOL   H11736273   1.856   7.240   1.214 -1.2310  0.9077 -0.7419
  139MOL   H11836274   1.944   7.202   1.062  1.6780  0.9952  0.5851
  139MOL   C11936275   1.938   7.408   1.118  0.7790 -0.2228  0.5426
  139MOL   C12036276   1.856   7.499   1.208  0.6049 -0.7099 -0.9261
  139MOL   C12136277   1.746   7.588   1.161  0.4486 -0.8847 -0.0965
  139MOL   C12236278   1.882   7.647   1.186  1.3613 -0.9285  0.0698
  139MOL   C12336279   2.089   7.393   1.171 -0.2092 -0.0852  0.1689
  139MOL   H12436280   1.955   7.453   1.021 -0.6372 -1.2921 -0.2248
  139MOL   H12536281   1.841   7.460   1.308 -1.2425 -1.3554 -1.4396
  139MOL   H12636282   1.655   7.576   1.219  0.8144 -0.3935  0.5935
  139MOL   H12736283   1.723   7.575   1.055 -1.5449 -0.8039  0.3177
  139MOL   H12836284   1.939   7.681   1.100 -1.1312  1.0609 -0.8549
  139MOL   H12936285   1.897   7.705   1.277  1.5750 -0.1401 -0.4702
  139MOL   H13036286   2.132   7.492   1.160  1.1329 -0.5441  1.0974
  139MOL   H13136287   2.078   7.372   1.277  0.8950 -1.0419  0.1037
  139MOL   C13236288   2.191   7.292   1.104 -0.2698 -0.0156  0.3324
  139MOL   C13336289   2.315   7.269   1.197  0.6830  0.2301 -0.3450
  139MOL   C13436290   2.382   7.143   1.210 -0.0264  0.5054  0.0896
  139MOL   C13536291   2.288   7.177   1.321 -0.5240  0.0164  0.3032
  139MOL   C13636292   2.240   7.331   0.963  0.4233 -0.4466 -0.3506
  139MOL   H13736293   2.148   7.192   1.105  0.4978 -0.3748 -0.6631
  139MOL   H13836294   2.379   7.357   1.207  0.6708  0.0960  1.0747
  139MOL   H13936295   2.347   7.067   1.141 -1.8124  1.7799 -0.4330
  139MOL   H14036296   2.490   7.142   1.229 -0.0679  1.3451  0.3588
  139MOL   H14136297   2.193   7.124   1.329 -0.4052 -0.1414  0.6751
  139MOL   H14236298   2.333   7.220   1.410  1.1549  1.1405 -1.0511
  139MOL   H14336299   2.179   7.403   0.910 -0.4715 -0.2080  0.9808
  139MOL   H14436300   2.338   7.377   0.975  0.7869 -0.9856 -1.1779
  139MOL   C14536301   2.265   7.210   0.868  0.5289  0.0082 -0.5902
  139MOL   C14636302   2.136   7.149   0.818 -0.3667  0.6398 -0.3589
  139MOL   C14736303   2.128   7.021   0.740 -0.2437 -0.1658 -1.2032
  139MOL   C14836304   2.071   7.022   0.879  0.2914  0.4757  0.1260
  139MOL   C14936305   2.344   7.252   0.752 -0.1294 -0.4532  0.5739
  139MOL   H15036306   2.314   7.130   0.924  1.3278  0.7550 -0.2213
  139MOL   H15136307   2.066   7.227   0.790 -0.3016  0.8475  0.0369
  139MOL   H15236308   2.056   7.015   0.659 -2.2495 -0.9961  0.6068
  139MOL   H15336309   2.224   6.971   0.727 -0.5757 -1.5306  1.3389
  139MOL   H15436310   2.128   6.981   0.963  0.7525 -2.0653 -1.3693
  139MOL   H15536311   1.964   7.001   0.878  0.8934 -2.9454 -0.9527
  139MOL   H15636312   2.354   7.169   0.681 -2.0330 -1.4143  1.3875
  139MOL   H15736313   2.278   7.306   0.685  0.7545 -0.2571 -0.1564
  139MOL   C15836314   2.482   7.330   0.766  0.5819  0.2545  0.3786
  139MOL   C15936315   2.549   7.335   0.632  0.3944  0.3636  0.4087
  139MOL   C16036316   2.505   7.435   0.531  0.1246 -0.0363 -0.5043
  139MOL   C16136317   2.636   7.445   0.602 -0.6243  0.0175  0.3280
  139MOL   C16236318   2.581   7.272   0.864 -0.1935  0.2211 -0.3219
  139MOL   H16336319   2.455   7.431   0.795  0.0493  0.7469 -1.7283
  139MOL   H16436320   2.562   7.234   0.593  0.3454 -0.3806  2.2890
  139MOL   H16536321   2.443   7.523   0.549 -0.0862 -0.2931  0.0431
  139MOL   H16636322   2.511   7.405   0.427  1.3636  0.6675 -0.6420
  139MOL   H16736323   2.724   7.416   0.545 -0.3729  0.8586  0.2864
  139MOL   H16836324   2.649   7.532   0.667 -0.6352  0.2383  0.0315
  139MOL   H16936325   2.621   7.174   0.836  0.0065  0.2023  0.0068
  139MOL   H17036326   2.524   7.257   0.956  1.0613  2.9481  0.9494
  139MOL   C17136327   2.690   7.370   0.913 -0.2854  0.5311  0.7409
  139MOL   C17236328   2.632   7.488   0.989  0.0862 -0.0578 -0.4919
  139MOL   C17336329   2.732   7.592   1.039 -1.2547  0.6727 -0.3910
  139MOL   C17436330   2.622   7.629   0.944  0.5341 -0.0281 -0.5949
  139MOL   C17536331   2.792   7.287   1.003 -0.7924  0.0090  0.4363
  139MOL   H17636332   2.752   7.405   0.830 -1.2233 -1.9528 -1.0716
  139MOL   H17736333   2.549   7.463   1.055 -0.4461  0.3336 -1.0100
  139MOL   H17836334   2.721   7.622   1.143  1.9747 -2.9547  1.0860
  139MOL   H17936335   2.834   7.584   1.002 -0.5609 -1.0811  1.7926
  139MOL   H18036336   2.639   7.646   0.838 -2.3259  2.6875 -0.7027
  139MOL   H18136337   2.539   7.682   0.991  0.2313 -0.1375 -1.0128
  139MOL   H18236338   2.739   7.195   1.024  0.7718 -1.1143 -0.4537
  139MOL   H18336339   2.799   7.343   1.097 -0.4398 -0.4969  0.7119
  139MOL   C18436340   2.930   7.260   0.944 -0.1791  0.3653 -0.8532
  139MOL   C18536341   2.911   7.180   0.820  0.1603  0.0195  0.4153
  139MOL   C18636342   3.022   7.155   0.717  0.1705 -0.6445 -0.1082
  139MOL   C18736343   2.905   7.240   0.675 -0.1235  0.0947 -0.1976
  139MOL   C18836344   3.015   7.195   1.045 -0.3920 -0.6752 -0.1748
  139MOL   H18936345   2.976   7.355   0.920  0.2238  0.7597  1.3778
  139MOL   H19036346   2.863   7.086   0.845  0.1182  0.0594  0.4831
  139MOL   H19136347   3.036   7.054   0.678  2.1337 -0.3062 -0.3239
  139MOL   H19236348   3.113   7.214   0.722 -0.4062  0.2867 -0.5501
  139MOL   H19336349   2.831   7.209   0.602  1.6336 -0.8795 -1.6267
  139MOL   H19436350   2.925   7.347   0.670 -1.9819  0.4444 -0.5011
  139MOL   H19536351   3.053   7.104   1.000 -0.6499  0.2985 -2.4296
  139MOL   H19636352   2.965   7.162   1.136 -0.7245  2.0236  0.6709
  139MOL   C19736353   3.137   7.278   1.081 -0.6108  0.9191  0.8388
  139MOL   C19836354   3.250   7.184   1.120  0.5359 -0.6267 -0.1115
  139MOL   C19936355   3.399   7.208   1.080  0.6812 -0.2536 -0.2542
  139MOL   C20036356   3.316   7.095   1.014  0.2072 -0.6769  0.1207
  139MOL   C20136357   3.114   7.384   1.194 -0.1536  0.4769 -0.0701
  139MOL   H20236358   3.174   7.329   0.993 -1.8617  0.9672  0.3294
  139MOL   H20336359   3.239   7.135   1.216  1.4637 -2.7499 -1.0601
  139MOL   H20436360   3.421   7.284   1.005 -1.9488  2.5376  1.6944
  139MOL   H20536361   3.482   7.176   1.142 -1.3280 -1.8402  1.6995
  139MOL   H20636362   3.306   7.107   0.906 -0.5901  1.8367  0.4484
  139MOL   H20736363   3.342   6.993   1.044  0.8422 -0.3746  0.6062
  139MOL   H20836364   3.012   7.419   1.176  0.5555  2.2233 -0.8213
  139MOL   H20936365   3.130   7.328   1.286  2.9392  0.8945 -0.2903
  139MOL   C21036366   3.203   7.509   1.187 -0.4045 -0.9235 -0.0887
  139MOL   C21136367   3.184   7.587   1.052 -0.0509  0.4217  0.9675
  139MOL   C21236368   3.280   7.690   0.991  0.3153 -0.0484  0.1348
  139MOL   C21336369   3.275   7.544   0.942  0.1468 -0.0550  0.2293
  139MOL   C21436370   3.181   7.608   1.310  0.1220  0.0388  0.2658
  139MOL   H21536371   3.309   7.485   1.195 -0.3354 -0.3942  0.6655
  139MOL   H21636372   3.081   7.588   1.018 -0.0786 -1.5918  0.9116
  139MOL   H21736373   3.230   7.768   0.934  0.7360  0.2585  0.1812
  139MOL   H21836374   3.350   7.741   1.056 -0.6241  1.1329  0.2338
  139MOL   H21936375   3.214   7.523   0.854 -1.2424 -0.8664  1.3824
  139MOL   H22036376   3.373   7.498   0.950  1.3689  2.5039  0.5608
  139MOL   H22136377   3.239   7.698   1.291  1.2199 -0.1604  2.5157
  139MOL   H22236378   3.078   7.645   1.317  0.2446  0.5227 -0.4268
  139MOL   C22336379   3.204   7.560   1.455 -0.7426 -0.2680 -0.0723
  139MOL   C22436380   3.190   7.682   1.546 -0.1325 -0.1227 -0.3642
  139MOL   C22536381   3.060   7.756   1.557 -0.5689 -0.6200  0.3097
  139MOL   C22636382   3.101   7.665   1.673 -0.8854 -0.0512  0.2448
  139MOL   C22736383   3.348   7.497   1.475 -0.0029 -0.2343  0.5230
  139MOL   H22836384   3.117   7.499   1.478 -0.9785  0.1557  0.1601
  139MOL   H22936385   3.278   7.746   1.556  1.0196 -1.9673  1.6303
  139MOL   H23036386   2.979   7.718   1.496 -3.4535  3.4439  1.3612
  139MOL   H23136387   3.054   0.026   1.562  0.5274 -0.4955 -0.7032
  139MOL   H23236388   3.136   7.714   1.763  0.4447 -1.6266  0.6021
  139MOL   H23336389   3.043   7.573   1.684 -0.9285  0.2421  2.6438
  139MOL   H23436390   3.351   7.413   1.406  0.5687  1.1347 -1.1590
  139MOL   H23536391   3.424   7.571   1.451 -0.1565 -0.5675 -1.0356
  139MOL   C23636392   3.372   7.420   1.605  0.2336  0.0935  0.0487
  139MOL   C23736393   3.516   7.372   1.596  0.0444  0.5602 -0.4143
  139MOL   C23836394   3.644   7.455   1.612  0.1645 -0.0070 -0.1514
  139MOL   C23936395   3.608   7.362   1.714 -0.7257  0.2410  0.3693
  139MOL   C24036396   3.256   7.316   1.638 -0.3320  0.3035  0.1473
  139MOL   H24136397   3.368   7.490   1.688  1.2775 -0.3267  0.4526
  139MOL   H24236398   3.533   7.299   1.517  0.1323 -1.1220  1.1219
  139MOL   H24336399   3.724   7.434   1.541  1.3421  0.2460  1.0865
  139MOL   H24436400   3.632   7.562   1.630  0.9289 -0.0151  0.4202
  139MOL   H24536401   3.580   7.401   1.812  0.5055  0.7402  0.5245
  139MOL   H24636402   3.667   7.272   1.720 -1.5678 -0.2954  0.7380
  139MOL   H24736403   3.158   7.365   1.639 -0.6782 -0.3849  2.2590
  139MOL   H24836404   3.268   7.239   1.562 -1.1673  1.9095 -1.6665
  139MOL   C24936405   3.269   7.248   1.768 -0.8929 -0.2365  0.2027
  139MOL   C25036406   3.157   7.145   1.784 -0.1987 -0.1962 -0.3218
  139MOL   C25136407   3.028   7.144   1.701 -0.7330  0.0371  0.1949
  139MOL   C25236408   3.134   7.030   1.693  0.2974 -0.0643  0.9428
  139MOL   C25336409   3.250   7.338   1.891  0.2313 -0.1167 -0.1144
  139MOL   H25436410   3.361   7.189   1.777  0.4188  1.5553 -0.9720
  139MOL   H25536411   3.142   7.121   1.890  0.8961  0.5557  0.0111
  139MOL   H25636412   2.933   7.108   1.739 -0.8801  1.4488  1.1914
  139MOL   H25736413   3.010   7.204   1.612 -1.2988  0.9159  0.8901
  139MOL   H25836414   3.124   6.935   1.745  0.8341 -0.3779  0.4830
  139MOL   H25936415   3.193   7.024   1.602  2.1655 -1.7422  2.2287
  139MOL   H26036416   3.145   7.365   1.899  0.5791  1.0551  0.7115
  139MOL   H26136417   3.312   7.428   1.895  1.2182 -0.7198 -1.3545
  139MOL   H26236418   3.282   7.278   1.976  3.2719  0.4014 -0.8399
  140MOL     C136419   3.129   1.296   1.345  0.1384  0.5971 -1.1029
  140MOL     C236420   3.011   1.380   1.397 -0.2795 -0.0670 -0.0119
  140MOL     C336421   2.982   1.507   1.321  0.3237  0.7405 -0.4389
  140MOL     C436422   3.033   1.510   1.467 -0.0993 -0.4953  0.1757
  140MOL     C536423   3.206   1.226   1.460 -0.4491 -0.2569  0.7766
  140MOL     H636424   3.083   1.221   1.281 -2.4866  0.1964  1.1677
  140MOL     H736425   2.930   1.317   1.431 -1.8084  1.9693  0.2132
  140MOL     H836426   3.040   1.546   1.237  0.5195  0.2830 -0.5185
  140MOL     H936427   2.878   1.538   1.312  0.2257  0.3212 -0.7691
  140MOL    H1036428   2.965   1.555   1.539 -0.7117 -0.6437 -0.3095
  140MOL    H1136429   3.135   1.547   1.479 -0.6966  2.2512 -2.4071
  140MOL    H1236430   3.138   1.181   1.532  1.2187 -0.2185  2.3895
  140MOL    H1336431   3.264   1.301   1.513  0.3180 -1.3587  1.5169
  140MOL    H1436432   3.191   1.354   1.276  0.3263  1.0107 -0.5936
  140MOL    C1536433   3.297   1.119   1.392 -1.0494  0.0624 -0.3812
  140MOL    C1636434   3.394   1.070   1.498 -0.2853 -0.1101 -0.1402
  140MOL    C1736435   3.513   1.149   1.548  0.3217 -0.6266 -0.1844
  140MOL    C1836436   3.536   1.027   1.462  0.1563 -0.7993 -0.5024
  140MOL    C1936437   3.219   0.993   1.335 -0.8924 -0.0492 -0.7715
  140MOL    H2036438   3.355   1.166   1.312  0.6268  0.2225  0.9009
  140MOL    H2136439   3.353   1.000   1.571 -0.7889  0.9666  0.6252
  140MOL    H2236440   3.532   1.144   1.655 -2.8270  2.9901  0.6420
  140MOL    H2336441   3.551   1.234   1.493 -2.7197  0.6076 -0.4866
  140MOL    H2436442   3.561   1.036   1.357  3.5395  0.1880  0.3385
  140MOL    H2536443   3.571   0.938   1.513 -3.7040  0.0104  3.9042
  140MOL    H2636444   3.112   1.011   1.336 -0.7322  0.8940  0.1354
  140MOL    H2736445   3.224   0.906   1.399 -2.0975  0.4725  0.0272
  140MOL    C2836446   3.272   0.959   1.189  0.0385  1.4167 -0.0805
  140MOL    C2936447   3.238   1.054   1.078  0.4594 -0.4953 -0.1429
  140MOL    C3036448   3.324   1.181   1.063 -0.5109 -0.2753  0.4608
  140MOL    C3136449   3.326   1.066   0.962  0.0710 -0.4953  0.5537
  140MOL    C3236450   3.217   0.815   1.153  0.3437  0.0954  0.6743
  140MOL    H3336451   3.380   0.954   1.194 -0.0611 -0.5656  0.5401
  140MOL    H3436452   3.135   1.058   1.045  0.4871 -0.2942 -0.2096
  140MOL    H3536453   3.421   1.191   1.111 -0.2380  0.1932 -0.1704
  140MOL    H3636454   3.272   1.272   1.035  2.1863  0.7291 -1.5076
  140MOL    H3736455   3.405   0.992   0.961 -0.1032 -0.6681 -1.0516
  140MOL    H3836456   3.261   1.068   0.875  0.2886 -0.5008  0.3927
  140MOL    H3936457   3.219   0.808   1.044 -1.1737  1.3144  0.5506
  140MOL    H4036458   3.109   0.808   1.169  0.2620 -0.3999 -0.0991
  140MOL    C4136459   3.310   0.696   1.200  0.5952  0.4818  0.8021
  140MOL    C4236460   3.422   0.655   1.098 -0.0749  1.1704 -0.3810
  140MOL    C4336461   3.565   0.622   1.126  0.5543  0.0370  0.6161
  140MOL    C4436462   3.530   0.750   1.057  0.4901  0.8757 -0.4809
  140MOL    C4536463   3.221   0.582   1.243 -0.2647  0.1479  0.6174
  140MOL    H4636464   3.366   0.738   1.283  1.4342 -1.2298  1.1292
  140MOL    H4736465   3.378   0.594   1.019 -1.7151  0.6816  0.8544
  140MOL    H4836466   3.603   0.625   1.228 -1.2657 -1.5042  1.3861
  140MOL    H4936467   3.610   0.548   1.060  1.0037  0.7155  0.1578
  140MOL    H5036468   3.530   0.764   0.949 -0.0250 -1.9276 -0.8655
  140MOL    H5136469   3.539   0.836   1.123 -1.5905 -1.8871  3.5890
  140MOL    H5236470   3.203   0.524   1.152  1.8791 -2.4297  1.7730
  140MOL    H5336471   3.126   0.608   1.289 -0.6004 -1.3543  0.8002
  140MOL    C5436472   3.291   0.489   1.335  0.3706  0.0506 -0.5197
  140MOL    C5536473   3.286   0.550   1.476 -0.7478  0.4025  0.4322
  140MOL    C5636474   3.386   0.651   1.524 -0.0220 -0.5745 -0.5091
  140MOL    C5736475   3.399   0.513   1.573 -0.4050 -0.1998  0.5019
  140MOL    C5836476   3.218   0.357   1.334 -0.4429  0.4878 -0.0430
  140MOL    H5936477   3.394   0.473   1.304  0.8412 -1.7150  1.7698
  140MOL    H6036478   3.189   0.574   1.518 -0.2160  0.9616  1.3696
  140MOL    H6136479   3.465   0.675   1.453  0.7233 -1.1951  0.1097
  140MOL    H6236480   3.365   0.728   1.598 -1.9514 -1.4525 -0.1054
  140MOL    H6336481   3.368   0.491   1.675 -0.5873  2.3042  1.0343
  140MOL    H6436482   3.481   0.454   1.533 -1.0671 -1.7396  1.4072
  140MOL    H6536483   3.209   0.315   1.434 -0.6886 -1.4488 -0.8619
  140MOL    H6636484   3.116   0.385   1.307 -0.5691 -1.6501 -1.8994
  140MOL    C6736485   3.273   0.247   1.235  0.6416  0.1450 -0.3156
  140MOL    C6836486   3.396   0.177   1.281  0.8661  0.0937  0.2529
  140MOL    C6936487   3.494   0.119   1.186  0.2274  0.7174 -0.2165
  140MOL    C7036488   3.532   0.238   1.276  0.1692 -0.0884  0.4068
  140MOL    C7136489   3.169   0.135   1.195 -0.0031  0.1531  0.4342
  140MOL    H7236490   3.300   0.302   1.146  1.3570  2.8470  1.5138
  140MOL    H7336491   3.389   0.121   1.373  1.5990 -4.2231 -2.1999
  140MOL    H7436492   3.538   0.024   1.218  0.0191  0.1494 -1.5704
  140MOL    H7536493   3.475   0.137   1.080 -0.0063  0.6355 -0.1889
  140MOL    H7636494   3.536   0.330   1.216  2.1013 -0.0617  0.5262
  140MOL    H7736495   3.585   0.241   1.371  1.3599  1.7674 -0.2729
  140MOL    H7836496   3.119   0.093   1.282 -3.3428  0.9217 -1.0327
  140MOL    H7936497   3.217   0.059   1.135 -0.1327  1.0764 -0.8692
  140MOL    C8036498   3.049   0.174   1.107 -0.0128 -0.4426  0.3590
  140MOL    C8136499   2.944   0.069   1.113 -0.9267  0.5843 -0.1339
  140MOL    C8236500   2.797   0.097   1.131 -0.0901 -0.5001 -0.0805
  140MOL    C8336501   2.872   0.015   1.235 -0.0858 -0.1477  0.7349
  140MOL    C8436502   3.086   0.210   0.960  0.0989  0.4573 -0.1029
  140MOL    H8536503   2.998   0.259   1.151  0.9754  0.6295 -0.5260
  140MOL    H8636504   2.954   7.835   1.033 -1.7343  0.2047  0.1038
  140MOL    H8736505   2.741   0.061   1.045  0.0250 -0.2953 -0.2450
  140MOL    H8836506   2.777   0.203   1.149  1.7447 -0.0892 -0.2983
  140MOL    H8936507   2.893   0.060   1.331 -1.2487 -2.3155  2.0701
  140MOL    H9036508   2.843   7.749   1.224  1.0879 -0.2686 -1.5330
  140MOL    H9136509   3.179   0.266   0.968  0.6572 -0.3101 -1.1732
  140MOL    H9236510   3.105   0.114   0.914 -1.6679  0.7136 -1.4475
  140MOL    C9336511   2.981   0.296   0.892 -0.5678  0.4726  0.1899
  140MOL    C9436512   2.980   0.432   0.951  0.1083  0.2000 -0.8482
  140MOL    C9536513   2.891   0.545   0.909 -0.2789  1.2997  0.4424
  140MOL    C9636514   2.866   0.477   1.037 -0.9901  0.5173 -0.2852
  140MOL    C9736515   2.988   0.301   0.741  0.2565  0.5251  0.2814
  140MOL    H9836516   2.880   0.267   0.920 -0.3774 -2.5096 -1.9396
  140MOL    H9936517   3.078   0.476   0.969  1.3553 -2.5749 -0.5841
  140MOL   H10036518   2.936   0.644   0.902 -0.2078  1.5068  3.1819
  140MOL   H10136519   2.810   0.532   0.838  0.0632  1.0651  0.0937
  140MOL   H10236520   2.883   0.541   1.124  1.1048  1.5333 -1.4132
  140MOL   H10336521   2.773   0.420   1.034 -0.3620 -0.5685  0.5364
  140MOL   H10436522   3.087   0.328   0.704 -0.9472  2.7990 -1.4371
  140MOL   H10536523   2.935   0.389   0.704 -0.6656 -0.4818 -0.8343
  140MOL   C10636524   2.927   0.169   0.675 -0.2097  0.4221  0.2142
  140MOL   C10736525   2.771   0.170   0.660 -0.1077  0.1095  0.8865
  140MOL   C10836526   2.690   0.044   0.679  0.0505  0.2678 -0.0386
  140MOL   C10936527   2.669   0.159   0.773 -0.0969  0.0415 -0.2061
  140MOL   C11036528   2.980   0.142   0.534  0.0399  0.5642  0.0288
  140MOL   H11136529   2.963   0.087   0.737  0.2456  1.6329  1.5735
  140MOL   H11236530   2.741   0.239   0.582  0.5383  0.0959  0.6198
  140MOL   H11336531   2.624   0.021   0.596 -0.2719 -0.5799  0.4458
  140MOL   H11436532   2.749   7.800   0.717 -0.5487  1.0949  2.7611
  140MOL   H11536533   2.702   0.173   0.876 -1.9688  1.2200  0.2567
  140MOL   H11636534   2.566   0.190   0.759 -0.8012 -2.0656  0.1282
  140MOL   H11736535   2.915   0.062   0.499  0.9981 -0.5726  0.7792
  140MOL   H11836536   2.973   0.235   0.478  0.7917  1.0460  0.7098
  140MOL   C11936537   3.123   0.081   0.537 -0.2554 -0.1483  0.7628
  140MOL   C12036538   3.128   7.771   0.494  0.0656 -0.3653  0.0694
  140MOL   C12136539   3.055   7.666   0.571  0.2515 -0.1935 -0.0470
  140MOL   C12236540   3.208   7.666   0.576 -0.5560  0.1663  0.5043
  140MOL   C12336541   3.229   0.162   0.446  0.3969  0.6900 -0.2123
  140MOL   H12436542   3.162   0.078   0.639  0.8494  0.1295  0.3496
  140MOL   H12536543   3.123   7.757   0.386 -0.2150  0.8522 -0.0877
  140MOL   H12636544   3.011   7.587   0.510  0.4591 -0.8850  0.6909
  140MOL   H12736545   3.003   7.692   0.662 -1.2896 -2.2784 -0.2848
  140MOL   H12836546   3.265   7.712   0.657  1.0239  1.7537 -1.4387
  140MOL   H12936547   3.261   7.591   0.518  0.7502  1.1151  0.4349
  140MOL   H13036548   3.317   0.098   0.441 -0.4862 -0.5609 -0.0232
  140MOL   H13136549   3.180   0.164   0.349 -0.6974 -0.1061  0.3220
  140MOL   C13236550   3.278   0.305   0.486  0.1338 -0.1322 -0.3055
  140MOL   C13336551   3.345   0.379   0.373  0.0195  0.0076 -0.6066
  140MOL   C13436552   3.331   0.350   0.231  0.2379 -0.1317  0.5725
  140MOL   C13536553   3.464   0.317   0.298 -0.4919 -0.0318  0.2523
  140MOL   C13636554   3.369   0.295   0.609 -0.2792  0.1007  0.1822
  140MOL   H13736555   3.186   0.359   0.509 -0.6621 -0.8870 -1.6977
  140MOL   H13836556   3.343   0.486   0.395 -0.2633 -0.0993 -0.0936
  140MOL   H13936557   3.272   0.269   0.189  0.5676 -1.0587  1.8645
  140MOL   H14036558   3.333   0.435   0.164  0.6728  0.2120  1.0124
  140MOL   H14136559   3.478   0.221   0.346 -2.5578 -0.0546  0.8638
  140MOL   H14236560   3.555   0.377   0.291 -0.8450  0.5748  0.8003
  140MOL   H14336561   3.325   0.225   0.680  1.3257 -0.4269  0.6717
  140MOL   H14436562   3.455   0.239   0.574 -1.8321 -2.9796  1.1669
  140MOL   C14536563   3.425   0.427   0.665  0.4880  0.6840 -0.5216
  140MOL   C14636564   3.317   0.507   0.729 -0.2091 -0.1685 -0.8256
  140MOL   C14736565   3.315   0.659   0.733  0.1479  0.3027 -0.3462
  140MOL   C14836566   3.210   0.582   0.658 -0.1056  0.1418 -0.6771
  140MOL   C14936567   3.522   0.407   0.782 -0.0548 -0.8053 -0.3847
  140MOL   H15036568   3.470   0.478   0.580  1.0544  0.5499 -0.3030
  140MOL   H15136569   3.264   0.454   0.807 -1.2894  0.3690 -1.1830
  140MOL   H15236570   3.286   0.699   0.830 -0.1301 -1.2268  0.2134
  140MOL   H15336571   3.366   0.728   0.665 -1.0122  0.1310 -1.3985
  140MOL   H15436572   3.219   0.593   0.550  3.6578  0.6703 -0.3568
  140MOL   H15536573   3.111   0.582   0.704  0.2299  0.1132  0.0501
  140MOL   H15636574   3.537   0.498   0.840  0.1373 -0.3908 -1.0787
  140MOL   H15736575   3.484   0.338   0.857 -2.8013  0.4602 -0.5522
  140MOL   C15836576   3.667   0.362   0.728  0.8259  0.1796 -1.2290
  140MOL   C15936577   3.720   0.254   0.821 -0.1924  0.5954  0.2814
  140MOL   C16036578   3.674   0.109   0.811  0.2558 -0.8034 -0.4225
  140MOL   C16136579   3.814   0.152   0.769 -0.0650 -0.4952  0.1603
  140MOL   C16236580   3.765   0.479   0.697 -0.2185  0.4059 -0.2729
  140MOL   H16336581   3.652   0.311   0.632 -1.3831 -2.3038  0.3660
  140MOL   H16436582   3.739   0.293   0.921 -1.2839  0.5177  0.5250
  140MOL   H16536583   3.599   0.101   0.732  0.3331 -0.2519 -0.5566
  140MOL   H16636584   3.654   0.060   0.906  0.3419  2.3878  1.3188
  140MOL   H16736585   3.897   0.112   0.825 -0.2247  0.5207  1.1366
  140MOL   H16836586   3.825   0.147   0.661 -0.1837  0.6181  0.0909
  140MOL   H16936587   3.802   0.521   0.791 -1.1377 -1.0864  0.7729
  140MOL   H17036588   3.702   0.558   0.656 -0.9677  0.6567  1.3388
  140MOL   C17136589   3.882   0.451   0.597 -0.5214  0.0893 -0.4859
  140MOL   C17236590   3.826   0.438   0.454 -0.1329  0.5121  0.4609
  140MOL   C17336591   3.810   0.543   0.346 -0.6027 -0.2752 -0.0877
  140MOL   C17436592   3.917   0.441   0.334  0.2442 -0.1275 -0.0979
  140MOL   C17536593   3.995   0.559   0.614 -0.2781  0.2801  0.5397
  140MOL   H17636594   3.918   0.350   0.617 -0.0830 -0.4359 -3.6274
  140MOL   H17736595   3.770   0.346   0.444 -1.6144  1.2833  1.4847
  140MOL   H17836596   3.728   0.540   0.274 -0.0010  4.3523 -1.1674
  140MOL   H17936597   3.850   0.641   0.371  2.2064 -0.8537 -2.0082
  140MOL   H18036598   4.018   0.481   0.337  0.1779  0.0953 -0.7721
  140MOL   H18136599   3.908   0.358   0.264  1.7704 -0.7672  0.4501
  140MOL   H18236600   3.956   0.661   0.613  1.0870  0.8246 -1.3033
  140MOL   H18336601   4.053   0.555   0.522 -1.9707 -1.0500 -0.4833
  140MOL   C18436602   4.098   0.553   0.730 -0.1363 -0.0702 -0.3673
  140MOL   C18536603   4.179   0.682   0.738 -0.0813  0.2163 -0.0655
  140MOL   C18636604   4.224   0.743   0.875  0.1574  0.7412  0.2542
  140MOL   C18736605   4.119   0.814   0.787  0.5953 -1.0203  0.0753
  140MOL   C18836606   4.185   0.426   0.720  0.2977 -0.4103 -0.2017
  140MOL   H18936607   4.040   0.562   0.822 -0.4432  0.4088 -0.6019
  140MOL   H19036608   4.252   0.688   0.657 -0.0010 -1.2678 -0.1167
  140MOL   H19136609   4.329   0.764   0.890  1.3209 -2.4002 -2.8182
  140MOL   H19236610   4.183   0.708   0.970 -0.9649  0.1756 -0.4172
  140MOL   H19336611   4.153   0.906   0.741 -0.2108 -1.4820 -1.4658
  140MOL   H19436612   4.017   0.817   0.825  0.0868  0.0138 -1.3441
  140MOL   H19536613   4.289   0.446   0.747 -0.4664  0.6615  2.0441
  140MOL   H19636614   4.200   0.382   0.621 -0.0219 -0.6139 -0.1616
  140MOL   C19736615   4.151   0.320   0.819  0.0804  0.2624  0.4059
  140MOL   C19836616   4.148   0.363   0.968  0.9392  0.3615 -0.3861
  140MOL   C19936617   4.092   0.272   1.071  0.2243 -0.4721 -0.7945
  140MOL   C20036618   4.020   0.404   1.035  0.3457  0.2594  0.2152
  140MOL   C20136619   4.249   0.199   0.807  0.3826 -0.4008  0.2793
  140MOL   H20236620   4.049   0.290   0.793  0.0458  1.3173 -0.7288
  140MOL   H20336621   4.240   0.415   0.994  1.1767 -0.1170 -0.2721
  140MOL   H20436622   4.031   0.186   1.044  1.4535 -1.2686 -1.0472
  140MOL   H20536623   4.140   0.260   1.168 -0.6472 -1.5019 -0.4836
  140MOL   H20636624   3.929   0.397   0.975 -0.2262 -0.1164  1.1172
  140MOL   H20736625   4.010   0.494   1.094 -0.8260  0.0253  0.3941
  140MOL   H20836626   4.348   0.219   0.850  0.3588  2.3675 -0.8396
  140MOL   H20936627   4.217   0.124   0.880  1.9351 -0.0630  1.3497
  140MOL   C21036628   4.268   0.133   0.670 -0.5650  0.3388 -0.3049
  140MOL   C21136629   4.337   0.000   0.688 -0.2157 -1.2007 -0.2753
  140MOL   C21236630   4.448   7.793   0.592 -0.8733  0.2610 -0.2843
  140MOL   C21336631   4.477   7.817   0.735  1.4035  0.9594 -0.2144
  140MOL   C21436632   4.142   0.107   0.585  0.6737 -0.5162  0.0318
  140MOL   H21536633   4.336   0.203   0.620  0.4181 -0.2633  0.1700
  140MOL   H21636634   4.264   7.766   0.721 -0.8869  0.1704  1.3869
  140MOL   H21736635   4.444   7.687   0.567  1.3934 -0.0377  0.5658
  140MOL   H21836636   4.498   0.009   0.513 -1.1124  0.2918 -0.4146
  140MOL   H21936637   4.499   7.728   0.794  0.0436 -0.8268 -2.3345
  140MOL   H22036638   4.531   0.068   0.763  2.2113  0.5476 -0.4254
  140MOL   H22136639   4.086   0.021   0.622 -0.2549 -0.7159 -1.7825
  140MOL   H22236640   4.072   0.190   0.595  0.7967 -0.3397 -0.5418
  140MOL   C22336641   4.163   0.091   0.433 -0.0483 -0.0503 -0.9016
  140MOL   C22436642   4.207   0.227   0.375  0.1556 -0.5282  0.4051
  140MOL   C22536643   4.352   0.247   0.338  0.2159 -0.8819  0.0679
  140MOL   C22636644   4.250   0.248   0.226  0.5774  0.2763 -0.5549
  140MOL   C22736645   4.040   0.041   0.361 -0.3242  0.2440  0.2367
  140MOL   H22836646   4.245   0.023   0.409  0.7473  0.9333 -1.0066
  140MOL   H22936647   4.155   0.308   0.425  2.6851  1.9597 -0.8987
  140MOL   H23036648   4.383   0.340   0.386 -0.3371 -1.0457  0.7489
  140MOL   H23136649   4.424   0.166   0.346  0.2115 -0.8196  0.8636
  140MOL   H23236650   4.214   0.341   0.181 -0.7112  0.4693  0.8379
  140MOL   H23336651   4.248   0.164   0.157  1.0565  0.7320 -1.1350
  140MOL   H23436652   3.957   0.102   0.398  0.4690 -0.0145  2.5493
  140MOL   H23536653   4.062   0.072   0.259 -1.7042  1.1437  0.2080
  140MOL   C23636654   4.005   7.724   0.376  0.5412  0.2804 -0.4054
  140MOL   C23736655   4.099   7.636   0.303  0.2929  0.6651 -0.5639
  140MOL   C23836656   4.228   7.582   0.370 -0.3677 -0.0462 -0.6381
  140MOL   C23936657   4.109   7.492   0.341  0.0160  0.4176 -0.6431
  140MOL   C24036658   3.856   7.688   0.333  0.4868  0.5256 -0.0301
  140MOL   H24136659   4.027   7.691   0.477  1.2940 -0.6749 -0.8690
  140MOL   H24236660   4.112   7.653   0.196  1.2913  0.6463 -0.4486
  140MOL   H24336661   4.321   7.569   0.316  0.1296 -3.5609  0.9526
  140MOL   H24436662   4.240   7.616   0.472 -0.7626 -2.8240  0.3767
  140MOL   H24536663   4.054   7.462   0.430  1.1922  0.4131  0.0933
  140MOL   H24636664   4.120   7.420   0.261 -0.4867  1.1752 -1.4039
  140MOL   H24736665   3.848   7.731   0.234 -0.9440  2.6790  0.9852
  140MOL   H24836666   3.853   7.582   0.307 -0.8762  0.2742  1.0378
  140MOL   C24936667   3.736   7.733   0.417 -0.1357 -0.4572 -0.1492
  140MOL   C25036668   3.734   7.663   0.554  0.2780  0.4922 -0.2027
  140MOL   C25136669   3.618   7.659   0.647 -0.6521  0.5665 -0.9049
  140MOL   C25236670   3.663   7.528   0.581  1.1457 -0.0548  0.1852
  140MOL   C25336671   3.598   7.730   0.348 -0.1296  0.2023  0.5534
  140MOL   H25436672   3.745   7.837   0.447 -0.8236  0.0681 -1.7060
  140MOL   H25536673   3.825   7.684   0.610 -0.0083  0.0988  0.4190
  140MOL   H25636674   3.626   7.667   0.755 -1.8584  1.7184 -0.8918
  140MOL   H25736675   3.531   7.713   0.609 -0.0234  0.0643 -3.1455
  140MOL   H25836676   3.704   7.447   0.642 -0.9601 -1.6763 -0.5056
  140MOL   H25936677   3.627   7.487   0.488  0.5843  2.2955 -0.6737
  140MOL   H26036678   3.517   7.786   0.394 -0.7875  0.9596 -1.4932
  140MOL   H26136679   3.553   7.633   0.326 -2.5084  1.5834 -0.9109
  140MOL   H26236680   3.599   7.780   0.251 -0.5870 -0.8717 -0.0200
  141MOL     C136681   1.615   1.242   3.328 -0.4487  0.9696 -0.1054
  141MOL     C236682   1.589   1.097   3.287  0.2930  0.6713  0.3926
  141MOL     C336683   1.539   1.081   3.155  0.2400  0.1189 -0.4661
  141MOL     C436684   1.444   1.044   3.272 -0.1761 -0.1387  0.1721
  141MOL     C536685   1.744   1.302   3.275  0.1793  0.4627  0.4446
  141MOL     H636686   1.532   1.302   3.288 -0.1134  0.8367 -1.0166
  141MOL     H736687   1.662   1.023   3.319  0.3021  0.6429  0.3064
  141MOL     H836688   1.528   1.169   3.093  1.4468  0.4803 -0.1723
  141MOL     H936689   1.600   1.005   3.106  0.0252 -0.0973 -0.4020
  141MOL    H1036690   1.427   0.940   3.297 -0.8129 -0.4098 -1.3833
  141MOL    H1136691   1.363   1.114   3.293  0.8432  1.3319 -0.6836
  141MOL    H1236692   1.740   1.292   3.167 -0.7396  3.1316  0.2086
  141MOL    H1336693   1.819   1.227   3.301 -0.5182  0.0390  1.2791
  141MOL    H1436694   1.607   1.247   3.436 -0.6630 -0.4238 -0.0481
  141MOL    C1536695   1.783   1.433   3.317 -0.3140 -0.8251  0.0977
  141MOL    C1636696   1.817   1.434   3.466  0.2921  0.4299  0.3137
  141MOL    C1736697   1.709   1.441   3.568  0.4016 -0.0702  0.7575
  141MOL    C1836698   1.807   1.553   3.554 -0.2544  0.9286  0.7665
  141MOL    C1936699   1.907   1.477   3.235  0.3227  0.5497 -0.4460
  141MOL    H2036700   1.694   1.494   3.301 -1.1279 -2.1495 -0.5732
  141MOL    H2136701   1.903   1.376   3.500  1.7638  0.1598 -3.5823
  141MOL    H2236702   1.717   1.378   3.656 -1.3095 -0.5384  0.6121
  141MOL    H2336703   1.612   1.453   3.519  0.6803 -0.2423  0.1578
  141MOL    H2436704   1.784   1.647   3.504 -3.1833  1.9393  3.7835
  141MOL    H2536705   1.886   1.566   3.627  1.6072  1.1534 -1.2659
  141MOL    H2636706   1.962   1.390   3.198 -0.7397 -0.5806  0.6024
  141MOL    H2736707   1.970   1.542   3.295 -0.0710  1.0266 -0.5407
  141MOL    C2836708   1.879   1.562   3.111  0.1165 -0.0483  0.3749
  141MOL    C2936709   1.796   1.490   3.011 -0.2391  0.5866  0.1042
  141MOL    C3036710   1.643   1.494   3.016  0.2023 -0.1305  0.0887
  141MOL    C3136711   1.713   1.570   2.912 -0.4635  0.0508  0.5599
  141MOL    C3236712   1.999   1.612   3.031  0.1750  0.1080  0.6806
  141MOL    H3336713   1.821   1.650   3.138 -0.0416  0.4508 -1.5063
  141MOL    H3436714   1.839   1.393   2.985 -0.2286  0.0874  1.8946
  141MOL    H3536715   1.594   1.536   3.104  0.0197  0.6836 -0.3908
  141MOL    H3636716   1.581   1.411   2.982  2.6339 -2.5867  1.5656
  141MOL    H3736717   1.700   1.678   2.915 -1.3917  0.0184 -1.3081
  141MOL    H3836718   1.690   1.531   2.813 -1.0166 -0.6791  0.9743
  141MOL    H3936719   1.960   1.647   2.936  0.6826 -0.5816  0.2155
  141MOL    H4036720   2.050   1.519   3.007 -2.5947 -0.8515 -1.9416
  141MOL    C4136721   2.088   1.725   3.097  0.4992 -0.0258  0.8601
  141MOL    C4236722   2.011   1.850   3.111 -1.0819  0.6794 -0.1739
  141MOL    C4336723   2.070   1.960   3.205  0.1069 -0.1532 -0.7854
  141MOL    C4436724   1.938   1.886   3.237  0.6050 -0.8523 -0.2399
  141MOL    C4536725   2.227   1.736   3.026 -0.6512  0.2634 -0.4640
  141MOL    H4636726   2.113   1.700   3.200  1.3037  0.2177  0.7269
  141MOL    H4736727   1.964   1.887   3.020  0.4926  2.6731 -0.2070
  141MOL    H4836728   2.140   1.937   3.285  0.5089  0.6333 -0.9159
  141MOL    H4936729   2.065   2.064   3.174  0.9547  0.9197  2.4960
  141MOL    H5036730   1.852   1.951   3.236 -0.7850 -2.6093  0.9326
  141MOL    H5136731   1.945   1.817   3.322  1.3373  2.2376  2.3079
  141MOL    H5236732   2.241   1.842   3.002  0.5207  1.3432  4.4600
  141MOL    H5336733   2.233   1.684   2.930 -2.7745  0.5503 -0.7747
  141MOL    C5436734   2.349   1.682   3.107 -0.0555 -0.2114 -0.2145
  141MOL    C5536735   2.350   1.534   3.097  0.0711  0.2657 -0.3598
  141MOL    C5636736   2.307   1.451   3.214 -0.1710  1.0313 -0.0894
  141MOL    C5736737   2.449   1.450   3.175 -0.0533 -0.5064  0.2628
  141MOL    C5836738   2.484   1.727   3.049 -0.6240 -0.0880  1.0121
  141MOL    H5936739   2.338   1.717   3.210  0.2797 -0.7249  0.0021
  141MOL    H6036740   2.334   1.499   2.996  0.1678  1.0436 -0.6483
  141MOL    H6136741   2.282   1.489   3.313  0.3221  1.1014  0.0074
  141MOL    H6236742   2.249   1.365   3.182  2.4258 -0.8055  0.0242
  141MOL    H6336743   2.488   1.370   3.112 -0.3617  0.1208 -0.7488
  141MOL    H6436744   2.524   1.493   3.241 -0.7990 -0.9115  1.3822
  141MOL    H6536745   2.555   1.644   3.051  1.0566  1.1745 -2.2248
  141MOL    H6636746   2.472   1.732   2.941  1.2827 -2.0473  0.6559
  141MOL    C6736747   2.542   1.862   3.107  0.1202  0.3905  0.2634
  141MOL    C6836748   2.648   1.825   3.211  0.1248  0.2237  0.7206
  141MOL    C6936749   2.715   1.916   3.310 -0.0956 -0.1278 -0.1329
  141MOL    C7036750   2.609   1.815   3.353  0.0277 -0.2672 -0.5175
  141MOL    C7136751   2.616   1.941   2.991 -0.6087  0.7616 -0.1475
  141MOL    H7236752   2.464   1.922   3.155  0.7730  0.8296  0.7946
  141MOL    H7336753   2.716   1.749   3.175 -2.2093 -1.8041  0.5144
  141MOL    H7436754   2.816   1.902   3.348  0.7898  1.7786 -1.6982
  141MOL    H7536755   2.678   2.019   3.309  2.3948  0.7953 -1.0352
  141MOL    H7636756   2.505   1.846   3.367  0.6331  0.5785  2.4366
  141MOL    H7736757   2.647   1.730   3.409  1.6370  1.1438  0.5894
  141MOL    H7836758   2.665   1.867   2.927 -2.7790 -1.4705  0.6742
  141MOL    H7936759   2.697   1.991   3.043  1.7373  0.2732 -3.2169
  141MOL    C8036760   2.535   2.041   2.899  0.1865  0.8335  0.3491
  141MOL    C8136761   2.582   2.008   2.751 -0.0706 -0.2928  0.5165
  141MOL    C8236762   2.493   2.017   2.626 -0.4577  0.1013 -0.1790
  141MOL    C8336763   2.544   1.879   2.676  0.0197 -0.4839 -0.3973
  141MOL    C8436764   2.555   2.186   2.933  0.3315  0.0860  0.4089
  141MOL    H8536765   2.428   2.021   2.903  0.8400 -2.8586  0.8379
  141MOL    H8636766   2.683   2.048   2.743 -0.4957  1.0191  1.4532
  141MOL    H8736767   2.528   2.067   2.536 -0.5061 -1.1653 -0.9232
  141MOL    H8836768   2.389   2.039   2.647 -0.5366 -1.3127  0.9958
  141MOL    H8936769   2.465   1.818   2.718  0.2858  0.1262  1.0358
  141MOL    H9036770   2.622   1.840   2.611 -0.8229 -0.3819 -1.4766
  141MOL    H9136771   2.662   2.203   2.941  0.5379 -0.9222 -0.0521
  141MOL    H9236772   2.521   2.255   2.856  0.4273 -0.7366 -0.3892
  141MOL    C9336773   2.483   2.225   3.061  0.6190 -0.2630 -0.2523
  141MOL    C9436774   2.531   2.355   3.107 -0.2958 -0.4862 -0.6545
  141MOL    C9536775   2.549   2.381   3.255  0.1704 -0.1215 -0.0002
  141MOL    C9636776   2.666   2.367   3.159  0.3271 -0.0917  0.0275
  141MOL    C9736777   2.329   2.222   3.064 -0.0087  0.5078  0.3061
  141MOL    H9836778   2.500   2.151   3.139  0.4353 -0.0845 -0.0405
  141MOL    H9936779   2.511   2.445   3.049 -0.2902 -0.3563 -0.4561
  141MOL   H10036780   2.528   2.484   3.284 -0.4146 -0.4229  0.6409
  141MOL   H10136781   2.522   2.299   3.321 -0.9358  0.5375  0.3776
  141MOL   H10236782   2.723   2.457   3.136  3.2335 -1.9588 -0.2031
  141MOL   H10336783   2.725   2.276   3.155  0.1647 -0.1131 -2.3521
  141MOL   H10436784   2.303   2.238   3.168 -0.0630  2.3805  0.0230
  141MOL   H10536785   2.284   2.126   3.036 -1.5290  1.4910 -0.7285
  141MOL   C10636786   2.257   2.332   2.981  0.2054  0.4007  0.2218
  141MOL   C10736787   2.218   2.280   2.837 -0.4261 -0.1706 -0.2359
  141MOL   C10836788   2.110   2.174   2.841  0.3123 -0.0478  0.3939
  141MOL   C10936789   2.095   2.297   2.756 -0.0585 -0.4504 -1.1721
  141MOL   C11036790   2.136   2.399   3.047  0.4713  0.1442  0.6611
  141MOL   H11136791   2.324   2.414   2.956  0.5849 -0.4919 -1.7925
  141MOL   H11236792   2.312   2.243   2.798 -0.7029 -1.9942  0.7986
  141MOL   H11336793   2.143   2.084   2.790  1.2672  1.2258 -1.3002
  141MOL   H11436794   2.057   2.160   2.935 -0.2865 -0.5680 -0.0185
  141MOL   H11536795   2.010   2.361   2.782 -0.2562 -1.3788  0.5396
  141MOL   H11636796   2.101   2.283   2.649 -0.3857  2.0826 -1.5444
  141MOL   H11736797   2.072   2.457   2.980 -1.0639  0.5573  2.4477
  141MOL   H11836798   2.077   2.316   3.085  1.0994 -1.1514 -1.0851
  141MOL   C11936799   2.173   2.492   3.160 -0.8207  0.5021  0.1005
  141MOL   C12036800   2.182   2.632   3.104 -0.0613 -0.3089  0.2913
  141MOL   C12136801   2.285   2.680   3.001  0.1859  0.4844  0.2271
  141MOL   C12236802   2.291   2.720   3.142  0.3338  0.2077 -0.2632
  141MOL   C12336803   2.089   2.482   3.290 -0.1442 -0.4120  0.5366
  141MOL   H12436804   2.274   2.466   3.193 -0.3258  1.9696 -0.2071
  141MOL   H12536805   2.083   2.676   3.101 -0.6319 -1.6555 -1.8068
  141MOL   H12636806   2.254   2.757   2.931 -0.5027 -1.9886 -2.2494
  141MOL   H12736807   2.379   2.630   2.977  0.5136  0.5629  1.2991
  141MOL   H12836808   2.374   2.684   3.203 -0.6367  1.6574  1.9636
  141MOL   H12936809   2.245   2.812   3.177  1.1271  0.0969  1.0829
  141MOL   H13036810   1.984   2.508   3.278  0.3044  0.7343 -1.0148
  141MOL   H13136811   2.088   2.375   3.314 -2.2876 -0.8079 -1.0903
  141MOL   C13236812   2.130   2.557   3.417 -0.0097 -0.1107 -0.5918
  141MOL   C13336813   2.112   2.473   3.537  0.0227  0.0853  1.1859
  141MOL   C13436814   2.193   2.484   3.658 -0.1053  0.8373  0.0518
  141MOL   C13536815   2.216   2.365   3.560  0.1288  0.4045 -0.4624
  141MOL   C13636816   2.060   2.696   3.425  0.3402 -0.7321  0.2158
  141MOL   H13736817   2.235   2.587   3.412  0.3646 -1.3842 -0.4730
  141MOL   H13836818   2.010   2.447   3.565 -0.0575 -0.4000  0.4509
  141MOL   H13936819   2.280   2.548   3.665 -0.6316  1.3096  3.3618
  141MOL   H14036820   2.161   2.447   3.755  1.5940 -0.5957  0.0912
  141MOL   H14136821   2.302   2.374   3.494 -0.0647 -0.2204 -0.8012
  141MOL   H14236822   2.184   2.265   3.588 -1.4637  0.7048 -1.1263
  141MOL   H14336823   2.054   2.748   3.329  1.0064 -1.7381 -0.3807
  141MOL   H14436824   1.956   2.672   3.450  0.4597 -1.4249  0.0467
  141MOL   C14536825   2.118   2.785   3.531 -0.0307  0.1452  0.9055
  141MOL   C14636826   2.241   2.854   3.479  0.0272 -0.4224 -0.6999
  141MOL   C14736827   2.351   2.908   3.570  0.2260  0.5060  0.6042
  141MOL   C14836828   2.377   2.792   3.471  0.2379  0.2938  0.1737
  141MOL   C14936829   2.023   2.901   3.573 -0.5346 -0.6475  0.0241
  141MOL   H15036830   2.143   2.732   3.622 -1.8992 -2.3220  0.0312
  141MOL   H15136831   2.211   2.921   3.399  0.2669 -3.0076 -3.0522
  141MOL   H15236832   2.385   3.007   3.540  0.9162 -0.1502 -0.8589
  141MOL   H15336833   2.337   2.899   3.678 -2.0541 -0.8398  0.2335
  141MOL   H15436834   2.392   2.690   3.506 -2.8946 -0.6657 -1.1090
  141MOL   H15536835   2.419   2.809   3.372 -2.1583 -2.8415 -1.4729
  141MOL   H15636836   2.083   2.982   3.615 -0.9700 -0.7021  0.7537
  141MOL   H15736837   1.978   2.952   3.487 -0.4928  0.0089  0.3886
  141MOL   C15836838   1.916   2.874   3.672  0.2614 -0.2455  0.0995
  141MOL   C15936839   1.964   2.796   3.795  0.5911  0.0412 -0.2095
  141MOL   C16036840   2.058   2.872   3.887 -0.6717 -0.8372  0.3190
  141MOL   C16136841   1.930   2.811   3.939  0.7047  0.5408  0.6060
  141MOL   C16236842   1.783   2.818   3.622  0.3965 -0.1150 -0.7148
  141MOL   H16336843   1.896   2.976   3.705  0.3244 -0.3625  0.5001
  141MOL   H16436844   1.994   2.694   3.771 -1.4942 -0.4013 -0.9826
  141MOL   H16536845   2.068   2.980   3.875 -0.8249 -0.7012  1.3434
  141MOL   H16636846   2.151   2.819   3.904  0.1559  0.8666  1.3021
  141MOL   H16736847   1.946   2.724   4.003  0.7531 -0.1004 -0.2803
  141MOL   H16836848   1.846   2.875   3.965 -0.8282 -1.1581 -0.0677
  141MOL   H16936849   1.717   2.831   3.708 -0.1787 -0.1851 -1.1380
  141MOL   H17036850   1.786   2.711   3.601 -0.3580  0.0115 -1.4966
  141MOL   C17136851   1.723   2.878   3.490  0.2838  0.2505 -0.1987
  141MOL   C17236852   1.614   2.788   3.437 -1.0776  0.5706 -0.1365
  141MOL   C17336853   1.597   2.783   3.287  0.0462  0.0861  0.2237
  141MOL   C17436854   1.638   2.659   3.363 -0.9064  0.1264  0.3054
  141MOL   C17536855   1.659   3.015   3.526 -0.6182 -0.2293  0.3670
  141MOL   H17636856   1.794   2.898   3.410  0.0435 -0.8084 -0.6770
  141MOL   H17736857   1.522   2.785   3.494 -1.4183  0.1904 -0.6929
  141MOL   H17836858   1.494   2.785   3.252 -1.1687 -1.8073  3.4752
  141MOL   H17936859   1.668   2.832   3.220 -0.0353  0.3961  0.3650
  141MOL   H18036860   1.740   2.626   3.342 -0.9311  0.5076 -0.4473
  141MOL   H18136861   1.565   2.579   3.353 -1.7837  1.1926 -2.3848
  141MOL   H18236862   1.729   3.077   3.582 -1.3616 -1.0175  2.2047
  141MOL   H18336863   1.576   3.005   3.595  0.1627  1.8932  1.6496
  141MOL   C18436864   1.631   3.112   3.404 -0.2158  0.2366 -0.2901
  141MOL   C18536865   1.764   3.155   3.339 -0.2434  0.0312 -0.2038
  141MOL   C18636866   1.867   3.226   3.417  0.4168  1.4183 -0.4090
  141MOL   C18736867   1.806   3.288   3.296 -0.1837 -0.0618 -0.0422
  141MOL   C18836868   1.540   3.228   3.451  0.5715 -0.9646  0.0275
  141MOL   H18936869   1.579   3.049   3.333  1.7666 -0.8604 -0.7933
  141MOL   H19036870   1.797   3.087   3.261  0.3614  0.2021 -0.0967
  141MOL   H19136871   1.963   3.176   3.425 -2.0211 -3.4720  0.4755
  141MOL   H19236872   1.827   3.259   3.513 -0.3505 -1.1156  0.1985
  141MOL   H19336873   1.876   3.301   3.214  0.1222  1.2725  0.4179
  141MOL   H19436874   1.740   3.373   3.309 -0.2558 -0.4333  2.3541
  141MOL   H19536875   1.613   3.300   3.488  0.2619 -0.2306 -0.7925
  141MOL   H19636876   1.474   3.210   3.536 -0.1064  0.4776 -0.1860
  141MOL   C19736877   1.462   3.285   3.334 -0.0367 -0.2379  0.0767
  141MOL   C19836878   1.405   3.424   3.349  0.3678 -0.7155  0.5917
  141MOL   C19936879   1.359   3.515   3.233 -0.2136  0.3603 -0.1250
  141MOL   C20036880   1.484   3.545   3.312  0.2968 -0.1808 -0.5213
  141MOL   C20136881   1.348   3.186   3.281 -0.0952  0.4165  0.2306
  141MOL   H20236882   1.539   3.282   3.257 -0.0062 -0.4980  0.1162
  141MOL   H20336883   1.342   3.443   3.435 -1.5003  1.9765 -1.2692
  141MOL   H20436884   1.378   3.473   3.135  0.5290  1.1025 -0.2957
  141MOL   H20536885   1.271   3.575   3.254  0.9462  2.4066 -0.9682
  141MOL   H20636886   1.579   3.525   3.262 -0.1110 -1.5169 -0.8052
  141MOL   H20736887   1.470   3.619   3.389  1.0584 -1.4611  0.8747
  141MOL   H20836888   1.345   3.087   3.325 -1.1084  0.7306  0.8789
  141MOL   H20936889   1.258   3.231   3.323 -0.0546  0.8768 -0.1724
  141MOL   C21036890   1.321   3.171   3.127 -0.0227 -0.2349  0.1992
  141MOL   C21136891   1.445   3.114   3.057 -0.3392  0.3064 -0.1253
  141MOL   C21236892   1.452   3.081   2.907 -0.2114 -0.7371  0.2378
  141MOL   C21336893   1.532   3.189   2.962  0.1468 -0.8960 -0.2413
  141MOL   C21436894   1.210   3.062   3.105 -0.0362 -0.1999  0.8096
  141MOL   H21536895   1.287   3.269   3.093 -0.4928 -1.1039 -1.9232
  141MOL   H21636896   1.489   3.041   3.124 -1.0011  0.6319  0.6725
  141MOL   H21736897   1.507   2.992   2.877  0.4003 -0.1971 -0.2552
  141MOL   H21836898   1.368   3.100   2.841 -1.5469  2.1230  2.6445
  141MOL   H21936899   1.639   3.167   2.961  0.7812  1.9541 -1.9599
  141MOL   H22036900   1.512   3.293   2.938 -0.2598 -0.8065  0.4691
  141MOL   H22136901   1.216   3.023   3.003  1.2943  1.4373  0.2383
  141MOL   H22236902   1.229   2.973   3.165  1.8646  0.5905  1.4199
  141MOL   C22336903   1.059   3.095   3.127  0.7074  0.2073 -0.5096
  141MOL   C22436904   0.986   2.982   3.187 -0.4437 -0.3001 -0.3797
  141MOL   C22536905   1.001   2.935   3.334  0.9706 -0.2161 -1.0372
  141MOL   C22636906   0.876   3.014   3.289  0.4509 -0.3821 -0.4090
  141MOL   C22736907   0.980   3.148   3.010  0.2101 -0.4288  0.6045
  141MOL   H22836908   1.059   3.162   3.213  0.3476 -0.9787  0.4295
  141MOL   H22936909   0.966   2.898   3.122  0.2136 -0.3832 -0.4755
  141MOL   H23036910   1.075   2.995   3.387 -0.1197 -1.1828  1.6713
  141MOL   H23136911   0.995   2.833   3.370 -2.0034 -0.6253 -2.5772
  141MOL   H23236912   0.780   2.963   3.287  0.8617 -1.1411 -0.5626
  141MOL   H23336913   0.868   3.118   3.323 -0.2781 -0.7534  0.5943
  141MOL   H23436914   1.024   3.102   2.921  1.4708  0.6457  0.6403
  141MOL   H23536915   0.873   3.132   3.021  0.2813 -2.0731 -0.9306
  141MOL   C23636916   0.993   3.302   2.988  0.0564 -0.3603 -0.7885
  141MOL   C23736917   0.921   3.374   3.101  0.2092 -0.1876 -0.0260
  141MOL   C23836918   0.989   3.412   3.229 -0.2053  0.3158  0.4084
  141MOL   C23936919   0.944   3.521   3.138 -0.7175 -0.1666  0.4387
  141MOL   C24036920   0.925   3.343   2.857  0.0800 -0.4908 -0.3553
  141MOL   H24136921   1.100   3.324   2.984  0.1035 -0.2256  0.6482
  141MOL   H24236922   0.814   3.357   3.097  0.1210  0.3463  0.0049
  141MOL   H24336923   0.932   3.391   3.318  0.1889 -0.5731  0.4546
  141MOL   H24436924   1.097   3.409   3.245 -0.3930  1.0737  1.8268
  141MOL   H24536925   1.022   3.567   3.077  2.0737 -2.6553  2.0240
  141MOL   H24636926   0.869   3.591   3.172  2.0087  2.6762  0.8777
  141MOL   H24736927   0.823   3.307   2.859  0.4110 -1.4277 -0.1887
  141MOL   H24836928   0.917   3.451   2.849  1.9534 -0.2096  1.0160
  141MOL   C24936929   0.997   3.289   2.729  0.5478 -0.2330  0.0095
  141MOL   C25036930   1.054   3.408   2.654 -0.7568 -0.6474  0.4546
  141MOL   C25136931   1.191   3.466   2.687 -0.3200  0.1057 -0.4093
  141MOL   C25236932   1.158   3.401   2.551 -0.6386 -0.1203  0.0426
  141MOL   C25336933   0.906   3.200   2.642  0.1828  1.1458  0.0059
  141MOL   H25436934   1.086   3.229   2.744  0.0919 -1.3289 -1.5075
  141MOL   H25536935   0.971   3.476   2.631  0.6859  1.3260  0.9693
  141MOL   H25636936   1.194   3.573   2.708 -0.8161  0.3932 -1.7762
  141MOL   H25736937   1.259   3.406   2.748  0.6263  0.0449 -1.5029
  141MOL   H25836938   1.187   3.474   2.476  1.2100  0.4880  1.3172
  141MOL   H25936939   1.208   3.307   2.530  0.3733  0.7434 -1.4718
  141MOL   H26036940   0.902   3.097   2.677 -1.4864  0.1300 -3.0306
  141MOL   H26136941   0.958   3.186   2.547 -0.9288  1.6771 -0.6841
  141MOL   H26236942   0.800   3.221   2.637 -0.1536 -0.6838 -1.1809
  142MOL     C136943   1.923   0.655   6.102  0.0406 -0.0583 -0.4859
  142MOL     C236944   1.851   0.644   6.240  0.3380  0.2640 -0.0484
  142MOL     C336945   1.781   0.766   6.297  0.3104  0.0545 -0.5380
  142MOL     C436946   1.903   0.701   6.366 -0.1916 -1.0590 -0.7250
  142MOL     C536947   2.029   0.546   6.086 -0.3937 -0.0914  0.1184
  142MOL     H636948   1.850   0.670   6.022 -3.2515 -0.4847  2.3059
  142MOL     H736949   1.794   0.551   6.242  2.4598 -1.1239 -2.2062
  142MOL     H836950   1.784   0.860   6.242 -1.1688  1.0338  1.0088
  142MOL     H936951   1.680   0.746   6.332 -0.0961  1.8629 -0.5919
  142MOL    H1036952   1.879   0.646   6.457  2.3763  1.2229  1.4225
  142MOL    H1136953   1.999   0.753   6.368 -0.5693 -0.3928  0.2792
  142MOL    H1236954   1.979   0.450   6.096 -0.1747 -0.1690  0.4417
  142MOL    H1336955   2.098   0.552   6.169 -0.9319  0.5608  0.5226
  142MOL    H1436956   1.975   0.750   6.098 -0.5679  0.2625 -0.8275
  142MOL    C1536957   2.091   0.535   5.951 -1.0543 -0.1254  0.2208
  142MOL    C1636958   2.166   0.663   5.917 -0.4072  0.1764  0.1665
  142MOL    C1736959   2.088   0.784   5.868  0.1519  0.7057 -0.1715
  142MOL    C1836960   2.171   0.705   5.769 -0.2931  0.6651 -0.1140
  142MOL    C1936961   2.173   0.405   5.922  0.1362 -0.1848 -0.2248
  142MOL    H2036962   2.009   0.529   5.879 -0.1063 -1.3754 -0.7784
  142MOL    H2136963   2.253   0.680   5.981  0.2594 -0.2291 -0.6206
  142MOL    H2236964   2.107   0.883   5.908 -0.1972 -0.4942  3.1364
  142MOL    H2336965   1.981   0.764   5.861 -0.0495  1.3715  0.9063
  142MOL    H2436966   2.125   0.639   5.696 -0.3308 -0.3897  0.8582
  142MOL    H2536967   2.264   0.754   5.739  0.5423 -0.8498 -0.0468
  142MOL    H2636968   2.243   0.394   6.004 -0.1388 -3.2171 -0.3340
  142MOL    H2736969   2.248   0.419   5.843 -1.5852  0.6580 -1.7507
  142MOL    C2836970   2.080   0.278   5.916 -0.2406 -0.5178  0.4655
  142MOL    C2936971   2.134   0.164   6.011 -0.3528  0.5054 -0.4269
  142MOL    C3036972   2.067   0.145   6.147 -0.1304  1.3256 -0.7113
  142MOL    C3136973   2.045   0.040   6.042 -0.2369 -0.0219 -0.0793
  142MOL    C3236974   2.070   0.219   5.774  0.0055 -0.1803  0.9159
  142MOL    H3336975   1.982   0.303   5.957 -1.5317 -1.7437 -1.8019
  142MOL    H3436976   2.242   0.160   6.021 -0.3247  3.9501  1.3000
  142MOL    H3536977   1.995   0.222   6.174 -1.1950 -0.0028  0.3358
  142MOL    H3636978   2.127   0.116   6.233 -0.5494 -0.8221 -1.1183
  142MOL    H3736979   1.942   0.040   6.006  0.2050 -2.4189 -1.4371
  142MOL    H3836980   2.099   7.786   6.057  2.4351  1.4291 -0.3364
  142MOL    H3936981   2.032   0.117   5.781  1.6326 -0.9150 -0.7082
  142MOL    H4036982   2.173   0.201   5.746  0.1801  0.4715  1.1403
  142MOL    C4136983   1.993   0.288   5.665 -0.9972 -0.1503 -0.0003
  142MOL    C4236984   1.847   0.294   5.681 -0.2294  0.4938  0.1131
  142MOL    C4336985   1.755   0.389   5.617  0.8132  0.1956 -0.2963
  142MOL    C4436986   1.762   0.384   5.764 -0.3266 -0.6014 -0.0795
  142MOL    C4536987   2.037   0.244   5.524 -0.5797 -0.3839  0.2296
  142MOL    H4636988   2.017   0.392   5.682 -2.1908 -0.2168  2.2410
  142MOL    H4736989   1.819   0.189   5.673  0.6265  0.2029  0.8165
  142MOL    H4836990   1.802   0.471   5.563  0.1505  1.2848  0.7597
  142MOL    H4936991   1.663   0.355   5.569  0.4588  2.9244 -1.6751
  142MOL    H5036992   1.673   0.333   5.799  0.1429 -0.9303  0.6689
  142MOL    H5136993   1.805   0.463   5.826 -1.0355  0.1054 -0.4864
  142MOL    H5236994   1.972   0.290   5.450 -0.1091 -1.7253 -1.0480
  142MOL    H5336995   2.021   0.136   5.524 -1.2444 -0.2891 -0.5566
  142MOL    C5436996   2.181   0.270   5.475  0.3764  0.2570 -0.1108
  142MOL    C5536997   2.200   0.184   5.351  0.0848 -0.3077  0.6497
  142MOL    C5636998   2.207   0.035   5.364  0.5944 -0.0183  0.6028
  142MOL    C5736999   2.337   0.116   5.337  0.1091 -0.8505 -0.2897
  142MOL    C5837000   2.189   0.420   5.439  0.4726 -0.3556 -0.4482
  142MOL    H5937001   2.247   0.246   5.559  1.5615  0.5713 -0.9438
  142MOL    H6037002   2.155   0.223   5.261  1.5469 -0.5384 -0.1962
  142MOL    H6137003   2.206   7.817   5.456 -0.1748  1.0631  1.2834
  142MOL    H6237004   2.178   7.807   5.284 -0.7917 -1.1365  2.0324
  142MOL    H6337005   2.381   0.116   5.237  1.1477  1.4525  0.1090
  142MOL    H6437006   2.411   0.128   5.416 -0.2285  1.7716 -0.3324
  142MOL    H6537007   2.127   0.435   5.351  0.1781 -2.3260 -0.5992
  142MOL    H6637008   2.142   0.478   5.519 -1.3275 -2.2080 -0.1078
  142MOL    C6737009   2.329   0.482   5.414 -0.4446 -0.0189 -0.1790
  142MOL    C6837010   2.311   0.626   5.364  0.2936 -0.1370  0.5789
  142MOL    C6937011   2.386   0.688   5.246 -0.5065 -0.0212  0.0350
  142MOL    C7037012   2.244   0.655   5.230  0.0349 -0.3406 -0.9741
  142MOL    C7137013   2.413   0.465   5.540  0.7040  0.2063  0.3044
  142MOL    H7237014   2.373   0.418   5.337 -0.3678 -0.5985  0.3436
  142MOL    H7337015   2.260   0.688   5.437  0.0668 -0.1686  0.4477
  142MOL    H7437016   2.419   0.791   5.259  4.1979 -1.1560 -1.8684
  142MOL    H7537017   2.474   0.631   5.218  0.8089  1.7928  0.3260
  142MOL    H7637018   2.219   0.572   5.164 -2.4083 -0.2297 -0.2323
  142MOL    H7737019   2.165   0.730   5.222  1.0280  0.8800  0.5169
  142MOL    H7837020   2.435   0.360   5.558  1.7055 -0.0402 -2.2111
  142MOL    H7937021   2.358   0.492   5.630  0.5783  0.0230  0.2817
  142MOL    C8037022   2.554   0.525   5.549  0.2439  0.1066 -0.2228
  142MOL    C8137023   2.625   0.465   5.670 -0.6652 -0.5510  0.6593
  142MOL    C8237024   2.780   0.449   5.681  0.8346  0.0098 -0.0388
  142MOL    C8337025   2.690   0.326   5.663 -0.0826  0.0244  0.2518
  142MOL    C8437026   2.549   0.681   5.563 -0.1487 -0.5085  0.1090
  142MOL    H8537027   2.616   0.500   5.463 -0.6951  1.2953 -1.2669
  142MOL    H8637028   2.585   0.496   5.766 -1.1562  3.4803 -0.7619
  142MOL    H8737029   2.841   0.455   5.771  1.1522 -1.0457 -0.1720
  142MOL    H8837030   2.826   0.478   5.587 -2.2397 -0.1680 -1.6546
  142MOL    H8937031   2.714   0.271   5.573 -1.0297 -3.9646  2.3240
  142MOL    H9037032   2.707   0.267   5.753  0.4994 -0.4819 -0.1845
  142MOL    H9137033   2.467   0.737   5.519  0.8746 -0.0870 -1.3291
  142MOL    H9237034   2.531   0.691   5.670 -0.8834 -0.1498 -0.0498
  142MOL    C9337035   2.680   0.759   5.523 -0.0410  0.7249 -0.0893
  142MOL    C9437036   2.717   0.749   5.376 -0.5625 -0.4131 -0.1734
  142MOL    C9537037   2.858   0.771   5.324 -1.1293 -0.3536 -0.1748
  142MOL    C9637038   2.800   0.633   5.322  0.2449  0.4135  0.7627
  142MOL    C9737039   2.673   0.907   5.563  0.4235 -0.1983 -0.4424
  142MOL    H9837040   2.763   0.715   5.577  1.0510  2.1547 -0.5567
  142MOL    H9937041   2.647   0.798   5.310  0.4015  0.2948 -0.6772
  142MOL   H10037042   2.863   0.827   5.231 -0.2148 -0.1135  0.0194
  142MOL   H10137043   2.931   0.802   5.398 -1.6422 -1.1529  0.6851
  142MOL   H10237044   2.764   0.587   5.231  1.0010 -2.3792  1.8330
  142MOL   H10337045   2.856   0.564   5.385  1.5483  0.6925 -0.0641
  142MOL   H10437046   2.593   0.947   5.500 -1.0729  1.5426  2.4649
  142MOL   H10537047   2.764   0.951   5.524 -0.0708 -0.5452 -2.0264
  142MOL   C10637048   2.647   0.952   5.713 -0.4892  0.0807 -0.5037
  142MOL   C10737049   2.780   0.944   5.792 -0.2559  0.3016  0.1735
  142MOL   C10837050   2.778   0.934   5.948 -0.2258 -0.1223 -0.0289
  142MOL   C10937051   2.803   0.809   5.860  0.1376  0.2265 -0.5848
  142MOL   C11037052   2.593   1.097   5.723 -0.2425 -0.1764  0.1630
  142MOL   H11137053   2.574   0.888   5.762 -0.0752  1.5249  2.1184
  142MOL   H11237054   2.867   0.977   5.736  0.5288 -0.9917  0.5984
  142MOL   H11337055   2.868   0.968   5.999  2.3436 -2.9365 -2.4749
  142MOL   H11437056   2.692   0.919   6.012  0.1178  0.2025  0.5076
  142MOL   H11537057   2.724   0.734   5.859 -0.9675  1.3707  0.1593
  142MOL   H11637058   2.904   0.775   5.883  1.0469  2.7026 -0.8007
  142MOL   H11737059   2.615   1.145   5.818 -0.3306  0.0215  0.0846
  142MOL   H11837060   2.646   1.159   5.649  1.2184 -0.1034  1.2464
  142MOL   C11937061   2.439   1.104   5.727  0.3083 -0.4430 -0.3237
  142MOL   C12037062   2.368   1.030   5.612 -0.3676  1.0496  0.1355
  142MOL   C12137063   2.355   1.106   5.480 -0.4199 -0.3940  0.5597
  142MOL   C12237064   2.231   1.063   5.562  1.2882 -0.2623 -0.4261
  142MOL   C12337065   2.377   1.059   5.860 -0.4178 -0.1362  0.7077
  142MOL   H12437066   2.404   1.207   5.718  0.3056 -0.4571 -0.4800
  142MOL   H12537067   2.391   0.924   5.607 -1.6856  0.7965 -0.6656
  142MOL   H12637068   2.370   1.051   5.387  0.1608 -0.4854  0.7072
  142MOL   H12737069   2.381   1.211   5.494  0.8921 -0.5372 -0.7701
  142MOL   H12837070   2.175   1.146   5.605  0.3236 -1.1176  0.0017
  142MOL   H12937071   2.175   0.978   5.521  1.3229 -0.4614 -0.0593
  142MOL   H13037072   2.269   1.068   5.849 -0.1546 -1.1614 -3.7254
  142MOL   H13137073   2.386   0.951   5.859 -0.0728 -0.1231 -2.4813
  142MOL   C13237074   2.424   1.120   5.992 -0.1227  0.6304 -0.2261
  142MOL   C13337075   2.340   1.057   6.105  0.0172  0.3073  0.6704
  142MOL   C13437076   2.402   1.013   6.235  0.5608 -0.1205 -0.4292
  142MOL   C13537077   2.345   0.916   6.145 -0.3873 -0.5300 -0.3471
  142MOL   C13637078   2.434   1.269   5.996 -0.2633 -0.0260 -0.2176
  142MOL   H13737079   2.525   1.078   5.986 -0.5687 -0.3475 -1.1605
  142MOL   H13837080   2.243   1.102   6.125 -0.3783 -0.1611 -0.1790
  142MOL   H13937081   2.510   1.005   6.242  0.4875 -0.6827  0.1357
  142MOL   H14037082   2.358   1.039   6.331  1.1279  1.0524 -0.4777
  142MOL   H14137083   2.425   0.856   6.102 -0.2547 -0.7601  0.2165
  142MOL   H14237084   2.253   0.874   6.184  0.2746 -0.5378  1.2525
  142MOL   H14337085   2.470   1.310   5.902  1.1943 -1.0594 -0.1343
  142MOL   H14437086   2.328   1.288   5.979 -0.3397 -0.0539  0.2318
  142MOL   C14537087   2.501   1.328   6.117  0.4686 -0.1747 -0.4547
  142MOL   C14637088   2.655   1.325   6.109 -0.2086  0.6594  0.2163
  142MOL   C14737089   2.746   1.333   6.235 -0.1865 -0.3018 -0.0980
  142MOL   C14837090   2.737   1.206   6.162  0.0363 -0.0325  0.1623
  142MOL   C14937091   2.444   1.475   6.144 -0.3462  0.7711  0.1749
  142MOL   H15037092   2.464   1.262   6.196 -0.9835  2.0842  0.8455
  142MOL   H15137093   2.696   1.364   6.016  0.0576  1.0818  0.5094
  142MOL   H15237094   2.837   1.390   6.217 -1.0378  0.3302 -2.5659
  142MOL   H15337095   2.706   1.344   6.335 -3.6941  1.3539 -1.6007
  142MOL   H15437096   2.683   1.126   6.211 -1.7652  0.2267 -1.3566
  142MOL   H15537097   2.827   1.177   6.108  0.6116  2.3522 -0.2279
  142MOL   H15637098   2.505   1.500   6.231 -1.1966  0.5523  0.8413
  142MOL   H15737099   2.474   1.535   6.058 -0.4580 -0.4018 -0.7142
  142MOL   C15837100   2.296   1.495   6.184  0.0895  0.1988 -0.5336
  142MOL   C15937101   2.260   1.644   6.186 -0.0140  0.3725  0.5243
  142MOL   C16037102   2.266   1.724   6.060  0.2378  0.5702 -0.3125
  142MOL   C16137103   2.135   1.705   6.129  0.2511 -0.2707 -0.6520
  142MOL   C16237104   2.250   1.411   6.314 -0.0061  0.1688  0.3710
  142MOL   H16337105   2.243   1.457   6.097  0.0206  2.1613 -1.3723
  142MOL   H16437106   2.291   1.689   6.280 -0.3916  0.4375  0.6174
  142MOL   H16537107   2.282   1.682   5.961 -1.2833 -0.2170 -0.2382
  142MOL   H16637108   2.304   1.824   6.078  3.6935 -0.3491 -2.0584
  142MOL   H16737109   2.091   1.782   6.192 -0.8274 -0.6489 -0.9324
  142MOL   H16837110   2.065   1.639   6.078  1.2539 -0.2497 -2.0859
  142MOL   H16937111   2.312   1.459   6.391  2.6758 -2.9318  0.2230
  142MOL   H17037112   2.273   1.305   6.319 -0.0764  0.1062 -0.6474
  142MOL   C17137113   2.104   1.417   6.358  0.4470  0.0571 -0.3145
  142MOL   C17237114   2.028   1.297   6.301  0.1463  0.2138 -0.6937
  142MOL   C17337115   1.884   1.302   6.248 -0.5046  0.3551 -0.0022
  142MOL   C17437116   2.000   1.291   6.152  0.9351  0.4039 -0.3422
  142MOL   C17537117   2.084   1.421   6.513  0.0448 -0.3426 -0.5884
  142MOL   H17637118   2.065   1.506   6.308  0.8319  1.0586  1.1253
  142MOL   H17737119   2.064   1.208   6.352  0.5627  0.9090  0.2369
  142MOL   H17837120   1.835   1.207   6.271 -0.2067  0.0042 -0.7998
  142MOL   H17937121   1.826   1.393   6.239 -0.4367  0.3308 -0.7215
  142MOL   H18037122   2.008   1.194   6.103 -1.6402 -0.1752  0.3481
  142MOL   H18137123   2.021   1.374   6.085  3.3805 -1.3548 -1.8791
  142MOL   H18237124   2.148   1.337   6.539  1.2522  0.7365 -0.0187
  142MOL   H18337125   1.978   1.402   6.531 -0.5702  0.4825 -3.1144
  142MOL   C18437126   2.119   1.556   6.580  0.3318 -0.0950  0.8026
  142MOL   C18537127   2.130   1.535   6.731  0.5089  0.1396 -0.3662
  142MOL   C18637128   2.236   1.604   6.808 -0.1699  0.2816 -0.4844
  142MOL   C18737129   2.229   1.450   6.793 -0.2149 -0.1331  0.3987
  142MOL   C18837130   2.025   1.667   6.522  0.4285 -0.3401  0.0313
  142MOL   H18937131   2.216   1.587   6.540 -0.6300  2.6022  0.4341
  142MOL   H19037132   2.029   1.531   6.771  1.6742 -1.8836  2.5597
  142MOL   H19137133   2.220   1.626   6.914 -2.4506  1.9018 -1.1507
  142MOL   H19237134   2.331   1.642   6.772 -0.5881  3.0626  1.2089
  142MOL   H19337135   2.214   1.391   6.883  0.5382  1.0922  1.3605
  142MOL   H19437136   2.302   1.407   6.725  0.4194 -0.9688  1.5910
  142MOL   H19537137   1.923   1.632   6.535  0.7919 -0.4080  2.9640
  142MOL   H19637138   2.049   1.674   6.416  0.8084  3.9162  0.3215
  142MOL   C19737139   2.044   1.809   6.596  0.2055 -0.9479 -0.0568
  142MOL   C19837140   1.940   1.907   6.555 -1.0361 -0.0551  0.7041
  142MOL   C19937141   1.810   1.879   6.488  0.4773  0.2290  0.1922
  142MOL   C20037142   1.929   1.948   6.412 -0.3627  0.0084  0.6150
  142MOL   C20137143   2.182   1.864   6.572  0.7948 -0.2946 -0.6184
  142MOL   H20237144   2.026   1.796   6.703 -1.8036  0.2737 -0.2117
  142MOL   H20337145   1.940   1.987   6.629 -1.6746  1.8060 -1.2258
  142MOL   H20437146   1.787   1.776   6.463  1.4656 -0.1528  0.8203
  142MOL   H20537147   1.719   1.938   6.500 -0.4482 -1.0886 -0.2647
  142MOL   H20637148   1.960   1.888   6.327  1.0610 -0.6014  1.5585
  142MOL   H20737149   1.920   2.052   6.383 -1.2679  0.0150  0.8785
  142MOL   H20837150   2.258   1.790   6.595  1.4909  0.6432  0.2132
  142MOL   H20937151   2.184   1.894   6.468  3.2471 -0.3795 -0.6130
  142MOL   C21037152   2.223   1.988   6.657  0.0010  0.7949 -0.5267
  142MOL   C21137153   2.231   1.960   6.806  0.1469  0.2642 -0.3643
  142MOL   C21237154   2.229   2.063   6.918  0.1468  0.4400 -0.4009
  142MOL   C21337155   2.114   1.963   6.896 -0.0173 -1.1804 -0.1475
  142MOL   C21437156   2.353   2.048   6.606 -0.1426  0.3480  0.4259
  142MOL   H21537157   2.143   2.060   6.641 -0.0875  0.5819 -1.0483
  142MOL   H21637158   2.288   1.869   6.822 -1.3283 -0.9217 -1.7265
  142MOL   H21737159   2.307   2.054   6.993  0.2531 -0.8641 -0.6620
  142MOL   H21837160   2.221   2.163   6.875 -1.4384  0.8137  0.7645
  142MOL   H21937161   2.099   1.896   6.981 -0.0547  0.6438  1.3185
  142MOL   H22037162   2.027   2.014   6.853  0.5579  0.0313  0.1121
  142MOL   H22137163   2.342   2.078   6.502  0.2635  2.5799  1.0061
  142MOL   H22237164   2.364   2.140   6.663 -3.8796  0.3229  1.3508
  142MOL   C22337165   2.483   1.966   6.635  0.2695 -0.0305  0.0165
  142MOL   C22437166   2.593   2.067   6.670  0.4781  0.2865 -0.6452
  142MOL   C22537167   2.614   2.113   6.809 -0.7660 -0.4219 -0.1807
  142MOL   C22637168   2.715   2.020   6.746  0.0898  0.3180  0.1737
  142MOL   C22737169   2.526   1.894   6.510  0.9284  0.3584  0.1584
  142MOL   H22837170   2.470   1.894   6.716 -0.2413  0.4929  0.4064
  142MOL   H22937171   2.609   2.138   6.589  1.9876  0.8631  0.1584
  142MOL   H23037172   2.541   2.081   6.884 -0.3242 -0.0035  0.4315
  142MOL   H23137173   2.642   2.218   6.798  1.9906 -1.3440 -2.6186
  142MOL   H23237174   2.814   2.059   6.727  0.0374  0.8712  0.9846
  142MOL   H23337175   2.717   1.915   6.772  0.5941  0.2218 -0.2551
  142MOL   H23437176   2.445   1.837   6.463  0.3804  2.6856 -1.8670
  142MOL   H23537177   2.538   1.973   6.435 -0.4572 -0.5625 -1.0833
  142MOL   C23637178   2.643   1.797   6.511 -0.0716  0.0795  1.0217
  142MOL   C23737179   2.670   1.758   6.361 -0.1492 -0.2089  0.0312
  142MOL   C23837180   2.722   1.852   6.258  0.0190  0.0526 -0.3086
  142MOL   C23937181   2.809   1.735   6.315 -0.2303  0.1947  0.1626
  142MOL   C24037182   2.604   1.681   6.612 -0.7495  0.9477  0.0261
  142MOL   H24137183   2.732   1.847   6.550 -0.3257  1.1811  0.1947
  142MOL   H24237184   2.591   1.696   6.320 -0.0884  0.5254 -1.2267
  142MOL   H24337185   2.678   1.837   6.160 -0.0553  0.3274 -0.3156
  142MOL   H24437186   2.758   1.950   6.290  1.0413 -0.3847 -0.0962
  142MOL   H24537187   2.900   1.762   6.369  1.1093 -1.1349 -1.4018
  142MOL   H24637188   2.825   1.647   6.253  2.2923 -0.4949  1.7333
  142MOL   H24737189   2.575   1.711   6.713 -4.4458  1.4620 -1.1213
  142MOL   H24837190   2.519   1.626   6.573 -0.2024 -0.6218  0.9752
  142MOL   C24937191   2.721   1.578   6.649 -1.2193  0.6980 -0.0273
  142MOL   C25037192   2.674   1.459   6.731  1.0388  0.4504 -0.1934
  142MOL   C25137193   2.578   1.355   6.667 -0.6648 -0.2269 -0.0308
  142MOL   C25237194   2.721   1.323   6.710  0.1306 -0.3491  0.0504
  142MOL   C25337195   2.846   1.639   6.718  0.0635 -0.4419  0.5087
  142MOL   H25437196   2.755   1.541   6.552 -0.6075  2.5555 -0.5480
  142MOL   H25537197   2.648   1.479   6.835  0.1816  0.7638 -0.4669
  142MOL   H25637198   2.500   1.314   6.731 -1.1947 -1.2647 -1.3276
  142MOL   H25737199   2.573   1.364   6.559 -0.2987  2.6385  0.1331
  142MOL   H25837200   2.744   1.276   6.806 -0.4452  0.5385  0.6276
  142MOL   H25937201   2.796   1.301   6.635 -0.5071 -1.6195 -0.2327
  142MOL   H26037202   2.884   1.726   6.665 -0.2663 -0.7532 -0.2509
  142MOL   H26137203   2.931   1.571   6.731 -0.8158 -1.4351  1.1277
  142MOL   H26237204   2.834   1.669   6.822 -0.7835 -1.8018  0.8238
  143MOL     C137205   7.422   0.998   1.919  0.0053  0.3619  0.3379
  143MOL     C237206   7.540   0.924   1.870 -0.0414 -1.0547  0.1016
  143MOL     C337207   7.611   0.986   1.752 -0.3912  0.7631 -0.1878
  143MOL     C437208   7.545   0.857   1.730 -0.8335 -0.1053 -0.1918
  143MOL     C537209   7.409   0.983   2.074  0.6166  0.2688  0.3627
  143MOL     H637210   7.424   1.101   1.885 -0.6066  0.7258  1.3905
  143MOL     H737211   7.609   0.886   1.946 -0.4246  1.7914  1.9609
  143MOL     H837212   7.579   1.074   1.698 -0.9118  0.2523 -0.7148
  143MOL     H937213   7.718   0.999   1.768 -0.3862  1.0140 -0.4208
  143MOL    H1037214   7.611   0.771   1.717 -4.2123 -2.4804 -2.4801
  143MOL    H1137215   7.453   0.860   1.671 -1.1141  3.2830  0.3159
  143MOL    H1237216   7.508   1.017   2.107  1.4187 -1.0668 -0.6062
  143MOL    H1337217   7.393   0.878   2.099 -2.2357  0.8909  1.2945
  143MOL    H1437218   7.344   0.943   1.867 -0.7027 -0.0289  1.7941
  143MOL    C1537219   7.293   1.065   2.127  0.6949 -0.4924  0.2120
  143MOL    C1637220   7.159   0.994   2.111 -0.4246 -0.3096  0.7197
  143MOL    C1737221   7.080   0.999   1.981 -0.0730  0.0651  0.5686
  143MOL    C1837222   7.027   1.067   2.101  0.5242  0.0991 -0.4958
  143MOL    C1937223   7.305   1.090   2.278  0.0740 -0.0475 -0.4351
  143MOL    H2037224   7.269   1.160   2.079  1.7003  0.6069  1.8192
  143MOL    H2137225   7.159   0.905   2.174  2.2139  1.0323  2.7278
  143MOL    H2237226   7.045   0.902   1.947  2.8534  0.1552 -2.9657
  143MOL    H2337227   7.101   1.058   1.892 -0.3183  0.3820  0.7178
  143MOL    H2437228   7.028   1.176   2.105 -1.6006  0.1060  1.5148
  143MOL    H2537229   6.941   1.023   2.152  0.7342 -2.9784 -2.6708
  143MOL    H2637230   7.307   0.988   2.318 -1.2193  0.1566  0.1711
  143MOL    H2737231   7.210   1.132   2.313 -1.0960  0.2908 -3.8489
  143MOL    C2837232   7.420   1.169   2.348 -0.2315 -0.3494  0.1025
  143MOL    C2937233   7.400   1.156   2.499 -0.3078  0.2133 -0.1274
  143MOL    C3037234   7.439   1.025   2.574  0.6470 -0.0039 -0.3346
  143MOL    C3137235   7.522   1.152   2.589 -0.5423  0.3332 -0.1587
  143MOL    C3237236   7.419   1.317   2.298  0.6040  0.0507 -0.0447
  143MOL    H3337237   7.517   1.124   2.325 -0.0917 -1.5522  2.8612
  143MOL    H3437238   7.314   1.209   2.539 -0.2153  0.1184  0.2030
  143MOL    H3537239   7.484   0.937   2.529  2.0472  0.4785  0.0851
  143MOL    H3637240   7.374   1.005   2.659  0.1801  1.6273 -0.2934
  143MOL    H3737241   7.515   1.219   2.675 -1.0525  0.2115 -0.1042
  143MOL    H3837242   7.617   1.151   2.537  0.0452  2.2369  0.8263
  143MOL    H3937243   7.344   1.380   2.346  1.3250 -0.2612  1.5365
  143MOL    H4037244   7.391   1.315   2.193 -0.4785  1.5597  0.2025
  143MOL    C4137245   7.543   1.405   2.321 -0.1013  0.3276  0.8972
  143MOL    C4237246   7.528   1.555   2.306  0.1089  0.2360  0.1617
  143MOL    C4337247   7.584   1.642   2.417 -0.4401  0.5946 -0.0841
  143MOL    C4437248   7.430   1.635   2.388 -0.1807 -0.3052  0.1260
  143MOL    C4537249   7.658   1.359   2.233  0.3191 -0.3120  0.7651
  143MOL    H4637250   7.571   1.365   2.418 -1.2025 -2.5302  0.0905
  143MOL    H4737251   7.556   1.597   2.210  0.4162 -1.3615 -0.4737
  143MOL    H4837252   7.590   1.612   2.521 -0.5979 -0.3351 -0.3378
  143MOL    H4937253   7.635   1.732   2.385 -2.1309  1.5451 -0.1570
  143MOL    H5037254   7.385   1.726   2.350  0.0937  0.1961  0.9771
  143MOL    H5137255   7.367   1.570   2.450 -0.7734 -0.3700 -0.5399
  143MOL    H5237256   7.654   1.399   2.132  1.5072 -1.5699  0.2129
  143MOL    H5337257   7.655   1.252   2.213  0.3504 -0.0019 -0.9968
  143MOL    C5437258   7.810   1.392   2.267 -0.5110 -0.6043 -0.9034
  143MOL    C5537259   0.028   1.331   2.396 -0.3357  0.3458  0.1612
  143MOL    C5637260   7.832   1.385   2.531 -0.2267  0.2475 -0.1125
  143MOL    C5737261   0.133   1.407   2.475 -0.2159  0.3430  0.0920
  143MOL    C5837262   0.061   1.364   2.146  0.2337  0.1403 -0.4962
  143MOL    H5937263   7.825   1.498   2.287  0.3311 -0.7323 -0.8286
  143MOL    H6037264   0.029   1.222   2.404 -2.0420  0.2601 -0.7266
  143MOL    H6137265   7.774   1.476   2.545 -0.5139 -0.1678  1.4993
  143MOL    H6237266   7.825   1.317   2.616  1.4246 -1.7263 -1.5017
  143MOL    H6337267   0.214   1.345   2.514 -0.8840 -0.6963 -0.1637
  143MOL    H6437268   0.173   1.493   2.421  2.2870 -1.6989 -1.3849
  143MOL    H6537269   0.006   1.416   2.068  0.6160 -0.1705 -0.9738
  143MOL    H6637270   0.143   1.433   2.167 -1.4304  2.1572 -0.4490
  143MOL    C6737271   0.125   1.230   2.104  0.1892  0.2842 -0.1952
  143MOL    C6837272   0.023   1.131   2.061  0.1325 -0.2179  0.1328
  143MOL    C6937273   0.072   0.991   2.044  0.4331  0.0542 -0.0002
  143MOL    C7037274   7.804   1.023   2.154  0.0847  0.6082 -0.1194
  143MOL    C7137275   0.218   1.245   1.983 -0.0891 -0.8210 -0.6846
  143MOL    H7237276   0.199   1.192   2.175 -0.3252  0.3955  0.3997
  143MOL    H7337277   7.803   1.169   1.978  0.2411  0.6093  0.4337
  143MOL    H7437278   0.043   0.929   1.960  0.1552  0.1420  0.0303
  143MOL    H7537279   0.178   0.982   2.068  0.5804  1.6552  0.0527
  143MOL    H7637280   7.815   1.035   2.262  1.8641  1.6262 -0.3971
  143MOL    H7737281   7.703   0.999   2.124  1.3264 -4.0353 -1.0774
  143MOL    H7837282   0.159   1.285   1.900 -0.3388  0.8324  0.2544
  143MOL    H7937283   0.251   1.148   1.946  0.9383 -0.1154 -1.6715
  143MOL    C8037284   0.334   1.345   2.003 -0.8262 -0.0663  0.6136
  143MOL    C8137285   0.408   1.327   2.134 -0.0086  0.1152  0.3942
  143MOL    C8237286   0.555   1.329   2.146  0.0912 -0.5518 -0.3577
  143MOL    C8337287   0.481   1.191   2.154 -0.0305 -0.3512  0.6147
  143MOL    C8437288   0.322   1.494   1.965  0.0849  0.0176  0.1031
  143MOL    H8537289   0.404   1.304   1.930 -0.2154  2.1750 -0.0841
  143MOL    H8637290   0.362   1.384   2.213 -1.6510  1.3442 -1.4012
  143MOL    H8737291   0.602   1.345   2.243  2.5129  1.6644 -1.8512
  143MOL    H8837292   0.618   1.347   2.060  0.9186 -0.6853  0.2163
  143MOL    H8937293   0.499   1.127   2.068  1.0522 -1.4810  1.6700
  143MOL    H9037294   0.479   1.141   2.250  1.2486 -2.3119 -0.3511
  143MOL    H9137295   0.227   1.534   2.003 -0.9335 -0.5857 -1.7510
  143MOL    H9237296   0.399   1.539   2.028  1.8199 -1.9358 -0.5664
  143MOL    C9337297   0.342   1.527   1.814  0.0505 -0.3697  0.2900
  143MOL    C9437298   0.244   1.464   1.721 -0.6692  0.1939  0.4112
  143MOL    C9537299   0.260   1.449   1.570 -0.2734  0.7273  0.3246
  143MOL    C9637300   0.238   1.334   1.651  0.2653  0.7507 -0.2150
  143MOL    C9737301   0.350   1.679   1.800 -0.0897 -0.4389  0.1881
  143MOL    H9837302   0.443   1.493   1.789 -0.1332 -0.8854  0.2441
  143MOL    H9937303   0.144   1.488   1.757 -0.2525 -0.7661  2.2438
  143MOL   H10037304   0.179   1.467   1.499 -1.3351 -0.2999  1.2562
  143MOL   H10137305   0.361   1.458   1.530  0.2253 -1.1203  1.1400
  143MOL   H10237306   0.141   1.288   1.632 -1.3575  1.6430  4.9347
  143MOL   H10337307   0.322   1.267   1.670 -0.0806  0.2828 -0.3392
  143MOL   H10437308   0.418   1.719   1.875 -1.6832 -0.9186  1.9314
  143MOL   H10537309   0.252   1.715   1.833 -0.0316  0.2976 -0.4170
  143MOL   C10637310   0.376   1.744   1.659  0.4500  0.2903  0.3917
  143MOL   C10737311   0.322   1.879   1.655 -0.5752 -0.6684  0.5428
  143MOL   C10837312   0.272   1.943   1.540 -0.6147  0.1010  0.0865
  143MOL   C10937313   0.175   1.891   1.643  0.5720 -0.2223  0.0431
  143MOL   C11037314   0.520   1.741   1.612  0.3142  0.5530  0.3640
  143MOL   H11137315   0.318   1.688   1.585  1.8218  1.9614 -2.0113
  143MOL   H11237316   0.373   1.947   1.722  0.9071 -2.9850  1.8316
  143MOL   H11337317   0.283   2.049   1.521 -0.3711  0.0484 -0.0667
  143MOL   H11437318   0.259   1.881   1.452 -0.1332 -1.6009  1.1750
  143MOL   H11537319   0.112   1.812   1.603  0.3617 -0.0452  0.0283
  143MOL   H11637320   0.127   1.955   1.717  1.0748  0.2537 -0.0398
  143MOL   H11737321   0.559   1.640   1.600  2.0108  1.3126 -0.6928
  143MOL   H11837322   0.522   1.786   1.513 -1.0451 -0.7951 -0.3047
  143MOL   C11937323   0.619   1.819   1.700 -0.3079  0.0395 -0.0518
  143MOL   C12037324   0.755   1.743   1.725  0.6379 -0.8629 -0.5506
  143MOL   C12137325   0.748   1.610   1.801 -0.0018  0.1055 -1.1571
  143MOL   C12237326   0.811   1.734   1.865  0.4834  0.4383 -0.2557
  143MOL   C12337327   0.647   1.959   1.635  1.0154  0.9516 -0.2543
  143MOL   H12437328   0.577   1.833   1.800 -0.7401 -1.6254 -0.0027
  143MOL   H12537329   0.822   1.731   1.640  0.4692 -1.6169 -0.5836
  143MOL   H12637330   0.814   1.530   1.767  1.4770 -0.0113  1.7697
  143MOL   H12737331   0.649   1.579   1.834  0.0065  1.0110 -0.2500
  143MOL   H12837332   0.759   1.799   1.936 -0.3993 -1.7546  1.1584
  143MOL   H12937333   0.916   1.715   1.886  0.4103  0.3269  0.0234
  143MOL   H13037334   0.734   1.944   1.571 -0.0907 -2.2454 -1.1620
  143MOL   H13137335   0.564   1.996   1.575  0.6582 -1.9389 -1.6311
  143MOL   C13237336   0.696   2.074   1.729  0.8680  0.3793 -0.1598
  143MOL   C13337337   0.586   2.116   1.824 -0.1132 -0.4755 -0.0763
  143MOL   C13437338   0.610   2.198   1.951  0.1984 -0.0093 -0.3446
  143MOL   C13537339   0.569   2.055   1.958  0.4818  0.5751  0.2158
  143MOL   C13637340   0.740   2.203   1.661  0.0210 -0.6709  0.4721
  143MOL   H13737341   0.778   2.046   1.796 -0.0093 -0.5226  0.5641
  143MOL   H13837342   0.495   2.142   1.770  0.5106  0.5728 -0.6322
  143MOL   H13937343   0.710   2.220   1.989  0.8975 -1.3265 -1.3244
  143MOL   H14037344   0.536   2.272   1.979  1.3056  1.2571 -0.6931
  143MOL   H14137345   0.650   2.002   2.008  1.0108  0.6424 -0.5744
  143MOL   H14237346   0.469   2.025   1.989 -0.0221  0.7453 -1.2113
  143MOL   H14337347   0.660   2.229   1.592  0.0967 -2.8277 -0.4784
  143MOL   H14437348   0.739   2.287   1.731 -1.0602 -0.8744  0.7047
  143MOL   C14537349   0.869   2.192   1.575 -0.8980  0.1212  0.3382
  143MOL   C14637350   0.884   2.324   1.491  0.9353 -0.2437 -0.5777
  143MOL   C14737351   0.932   2.322   1.347  0.3601  0.2027 -0.1423
  143MOL   C14837352   0.789   2.356   1.377  0.3625  0.1521 -0.3088
  143MOL   C14937353   1.002   2.167   1.653  0.3187  0.1798 -0.0542
  143MOL   H15037354   0.850   2.117   1.498 -0.0924  0.1156  0.1450
  143MOL   H15137355   0.899   2.408   1.559  1.8299 -2.6721  2.3349
  143MOL   H15237356   0.989   2.408   1.314  0.7730  0.0393  0.1421
  143MOL   H15337357   0.950   2.228   1.296 -3.5829 -0.1816 -1.0178
  143MOL   H15437358   0.709   2.289   1.345 -1.2810  1.5314  0.8083
  143MOL   H15537359   0.759   2.461   1.370 -1.3376 -0.2542  0.6119
  143MOL   H15637360   1.032   2.262   1.698 -0.2726  0.5005 -0.3313
  143MOL   H15737361   0.989   2.114   1.747  0.3221  0.3145  0.0222
  143MOL   C15837362   1.108   2.089   1.565 -0.7603 -0.0430  0.4920
  143MOL   C15937363   1.058   1.947   1.538  0.6890 -0.3358  0.4900
  143MOL   C16037364   0.995   1.916   1.408  1.0222 -0.1881  0.6291
  143MOL   C16137365   1.132   1.862   1.434  0.1190  0.1531 -0.4046
  143MOL   C16237366   1.246   2.089   1.635 -0.6940  0.5851 -0.4425
  143MOL   H16337367   1.122   2.148   1.474 -0.5809  0.0790  0.5985
  143MOL   H16437368   1.019   1.896   1.626 -1.3606 -0.6372 -0.5652
  143MOL   H16537369   0.986   2.005   1.346 -2.9863  0.1729  1.5742
  143MOL   H16637370   0.907   1.853   1.420  1.0009  0.1251  2.2565
  143MOL   H16737371   1.137   1.753   1.442  2.1711  0.1865 -1.0562
  143MOL   H16837372   1.220   1.913   1.397  0.3672 -0.5525 -0.8053
  143MOL   H16937373   1.303   2.000   1.609  0.1345  1.4288 -1.5555
  143MOL   H17037374   1.231   2.096   1.743 -0.0523 -1.0600 -0.2444
  143MOL   C17137375   1.342   2.205   1.577 -0.5532 -0.3736 -0.5905
  143MOL   C17237376   1.370   2.195   1.432  0.0241  0.1921 -0.0578
  143MOL   C17337377   1.507   2.213   1.385 -0.5015  0.8529 -0.6858
  143MOL   C17437378   1.450   2.077   1.385  0.9406  0.1995  0.1339
  143MOL   C17537379   1.294   2.339   1.609 -0.6533  0.3191  0.0492
  143MOL   H17637380   1.434   2.195   1.633 -1.3422 -1.8142  0.5005
  143MOL   H17737381   1.295   2.238   1.366 -1.0738  0.3038  1.2380
  143MOL   H17837382   1.515   2.267   1.291  0.2635  0.1441 -1.0427
  143MOL   H17937383   1.579   2.227   1.465 -1.1089 -0.0767  0.0398
  143MOL   H18037384   1.491   2.010   1.460 -0.5014 -0.9773 -0.0798
  143MOL   H18137385   1.433   2.031   1.287 -3.7057 -1.1190  1.4426
  143MOL   H18237386   1.240   2.341   1.703 -0.3295  0.8574  0.2266
  143MOL   H18337387   1.214   2.352   1.536 -0.4882 -0.4972 -0.2841
  143MOL   C18437388   1.411   2.442   1.621  0.3721 -0.3182  0.0192
  143MOL   C18537389   1.504   2.410   1.735  0.3906 -0.4024 -0.9221
  143MOL   C18637390   1.628   2.492   1.753 -0.1018 -0.0161  0.4703
  143MOL   C18737391   1.638   2.346   1.712 -0.2408 -0.4373  0.3969
  143MOL   C18837392   1.349   2.578   1.640  0.9188  0.2297 -0.2945
  143MOL   H18937393   1.466   2.428   1.528 -1.1763 -2.4095 -0.6223
  143MOL   H19037394   1.468   2.384   1.834 -0.4831 -1.2236 -1.4529
  143MOL   H19137395   1.661   2.509   1.856 -0.0773  1.9426  0.1543
  143MOL   H19237396   1.652   2.569   1.681 -0.5875 -0.8371 -0.5858
  143MOL   H19337397   1.682   2.288   1.792  1.5650 -0.2712 -0.4593
  143MOL   H19437398   1.684   2.342   1.613 -0.6386  1.8312  0.0921
  143MOL   H19537399   1.436   2.644   1.634  0.3282  1.1492  0.9191
  143MOL   H19637400   1.329   2.592   1.746  1.4995  1.2235 -0.3109
  143MOL   C19737401   1.242   2.638   1.549  0.2385 -0.0519  0.0542
  143MOL   C19837402   1.292   2.659   1.405  0.4215 -0.5297 -0.0229
  143MOL   C19937403   1.202   2.676   1.290  0.6045  0.0766  0.8841
  143MOL   C20037404   1.295   2.562   1.293  0.1252 -0.0429 -0.0988
  143MOL   C20137405   1.210   2.771   1.619  0.4405 -0.6066 -0.9397
  143MOL   H20237406   1.159   2.568   1.541  0.1493  0.0048  0.4962
  143MOL   H20337407   1.371   2.734   1.404  0.4876 -0.5789  1.1649
  143MOL   H20437408   1.096   2.656   1.306  0.2655  1.8516  0.9846
  143MOL   H20537409   1.220   2.754   1.217 -0.4659  0.0144  0.5422
  143MOL   H20637410   1.243   2.469   1.314 -3.4291  2.1446  1.0924
  143MOL   H20737411   1.388   2.559   1.236  0.2645 -1.6410  0.1714
  143MOL   H20837412   1.207   2.772   1.728  1.1931 -0.5707 -0.9118
  143MOL   H20937413   1.293   2.841   1.604  0.5420 -0.8212 -1.4163
  143MOL   C21037414   1.088   2.849   1.571 -0.3761 -1.1172  0.4840
  143MOL   C21137415   0.960   2.812   1.648  0.5655  0.1582 -0.2055
  143MOL   C21237416   0.829   2.863   1.581 -0.2853 -0.2674  0.7961
  143MOL   C21337417   0.853   2.714   1.592  0.2714  0.2474 -0.0108
  143MOL   C21437418   1.114   3.001   1.577 -0.6861  0.5352  0.7148
  143MOL   H21537419   1.067   2.843   1.465  2.7564 -2.4147 -0.1114
  143MOL   H21637420   0.947   2.831   1.755 -1.6099 -0.4380 -0.3427
  143MOL   H21737421   0.759   2.922   1.640  0.5972  2.9698 -1.2427
  143MOL   H21837422   0.837   2.894   1.477  0.7431  0.2091  1.0090
  143MOL   H21937423   0.794   2.662   1.667  0.7300 -0.1514  0.0839
  143MOL   H22037424   0.887   2.661   1.503 -0.1828  0.4039 -0.2779
  143MOL   H22137425   1.028   3.067   1.565 -0.1202  0.9352 -1.3967
  143MOL   H22237426   1.140   3.029   1.679  1.2222  0.7420  0.1995
  143MOL   C22337427   1.213   3.057   1.468 -0.4144  0.4253  0.3071
  143MOL   C22437428   1.287   3.169   1.545 -0.1564  0.4731  0.5236
  143MOL   C22537429   1.398   3.145   1.634  0.1583 -0.1478  0.7322
  143MOL   C22637430   1.424   3.212   1.504  0.9203  0.1972 -0.2563
  143MOL   C22737431   1.143   3.115   1.348 -0.0779  0.3068 -0.4520
  143MOL   H22837432   1.276   2.976   1.431 -0.0941  0.5208  0.6334
  143MOL   H22937433   1.224   3.256   1.566  0.4613  1.1730 -0.4465
  143MOL   H23037434   1.413   3.039   1.651 -2.0211 -0.5443  0.3364
  143MOL   H23137435   1.402   3.209   1.722 -2.3563  0.2443  0.6114
  143MOL   H23237436   1.439   3.319   1.502 -3.3774  0.8669  0.5962
  143MOL   H23337437   1.461   3.150   1.422  0.9027 -0.0049 -0.1140
  143MOL   H23437438   1.060   3.051   1.317  0.2956  0.2877 -1.4316
  143MOL   H23537439   1.095   3.207   1.380 -2.5561 -0.6304 -1.3333
  143MOL   C23637440   1.235   3.151   1.231 -0.2764  1.1674 -0.3576
  143MOL   C23737441   1.193   3.294   1.182  0.7225  0.2300  0.4414
  143MOL   C23837442   1.251   3.420   1.247  0.2629  0.1192 -0.3593
  143MOL   C23937443   1.297   3.374   1.112  0.5526 -0.2444  0.0044
  143MOL   C24037444   1.227   3.048   1.122  0.2724  0.3362  0.1963
  143MOL   H24137445   1.338   3.150   1.265 -0.8243 -1.4727  1.3757
  143MOL   H24237446   1.091   3.287   1.144  1.0274 -0.0699 -0.3246
  143MOL   H24337447   1.182   3.504   1.245 -0.1768 -0.2451 -0.5909
  143MOL   H24437448   1.331   3.425   1.321  0.0830  1.6954 -0.2570
  143MOL   H24537449   1.399   3.334   1.112  0.6596 -0.0154 -1.8104
  143MOL   H24637450   1.271   3.437   1.027  0.7566 -2.2854 -1.6029
  143MOL   H24737451   1.254   2.952   1.168  0.7312  0.6120  0.5001
  143MOL   H24837452   1.123   3.037   1.093  1.2182 -1.7721 -2.6949
  143MOL   C24937453   1.316   3.064   1.002  0.0682  0.5391  0.0044
  143MOL   C25037454   1.285   2.953   0.904  0.3445 -0.2571 -0.2689
  143MOL   C25137455   1.173   2.977   0.810  0.0699  0.0959 -0.0722
  143MOL   C25237456   1.314   2.981   0.755  0.4640  0.0981 -0.4443
  143MOL   C25337457   1.468   3.058   1.027  0.8688  0.1165 -0.3680
  143MOL   H25437458   1.292   3.156   0.948  1.2411  1.1577  0.5334
  143MOL   H25537459   1.289   2.851   0.942 -2.4604 -1.6953 -3.5403
  143MOL   H25637460   1.102   2.905   0.771 -1.6931  0.1099  2.9073
  143MOL   H25737461   1.122   3.072   0.828  0.2934  0.3408 -0.7182
  143MOL   H25837462   1.360   2.896   0.707 -2.0055 -0.8412 -1.2376
  143MOL   H25937463   1.360   3.076   0.728  0.3894 -0.0102 -0.9565
  143MOL   H26037464   1.488   2.960   1.070  1.7828  0.5747  0.2844
  143MOL   H26137465   1.496   3.134   1.100  0.0366 -1.1148  1.2823
  143MOL   H26237466   1.526   3.069   0.935 -0.5092  1.6897 -1.0785
  144MOL     C137467   1.828   1.807   1.655  0.2986 -0.2478 -0.6907
  144MOL     C237468   1.782   1.909   1.757 -0.3067  0.1404  0.3934
  144MOL     C337469   1.719   1.869   1.885  0.6311  0.4506 -0.6793
  144MOL     C437470   1.633   1.928   1.782  0.0066 -0.2947 -0.4232
  144MOL     C537471   1.847   1.863   1.513  0.1733  0.1570  0.1132
  144MOL     H637472   1.918   1.764   1.698 -0.1893 -0.1513  0.4366
  144MOL     H737473   1.844   1.999   1.753  0.1793 -0.2349 -1.1454
  144MOL     H837474   1.720   1.761   1.897  0.8359  0.4863 -0.3746
  144MOL     H937475   1.756   1.924   1.971  1.8825 -1.1514 -0.1756
  144MOL    H1037476   1.601   2.030   1.801  0.1353 -0.3264 -0.0307
  144MOL    H1137477   1.577   1.867   1.711  0.0807  2.1841 -2.7101
  144MOL    H1237478   1.911   1.951   1.509 -0.8861  0.8623 -3.8209
  144MOL    H1337479   1.751   1.908   1.487 -0.1314 -1.2030 -1.2189
  144MOL    H1437480   1.755   1.726   1.662 -0.4326  0.6075  2.4753
  144MOL    C1537481   1.882   1.758   1.409 -0.5218 -0.0797 -0.1213
  144MOL    C1637482   1.814   1.621   1.429 -0.6360  0.0321  0.1230
  144MOL    C1737483   1.855   1.524   1.531  0.7166  1.0710  0.4833
  144MOL    C1837484   1.875   1.498   1.382 -0.1706 -0.2025  0.1079
  144MOL    C1937485   1.866   1.800   1.262 -0.2970  0.2271  0.4166
  144MOL    H2037486   1.989   1.736   1.418 -0.7900 -1.2885  0.1358
  144MOL    H2137487   1.706   1.633   1.427 -0.4807  1.7429  1.2797
  144MOL    H2237488   1.776   1.464   1.576  1.4758 -0.6698 -0.4585
  144MOL    H2337489   1.941   1.540   1.595  1.3782  1.4260 -0.4885
  144MOL    H2437490   1.976   1.507   1.343 -0.8823  5.3152 -0.7938
  144MOL    H2537491   1.812   1.428   1.327 -0.1629  0.4321 -0.7091
  144MOL    H2637492   1.767   1.844   1.244 -2.2538 -4.0507  0.1620
  144MOL    H2737493   1.871   1.717   1.192 -2.5911  0.3068  0.1185
  144MOL    C2837494   1.981   1.895   1.217  0.0549  0.0423  0.0540
  144MOL    C2937495   1.936   2.011   1.130 -0.0438  0.2933 -0.1739
  144MOL    C3037496   1.842   2.110   1.192  0.2768 -0.1565  0.0465
  144MOL    C3137497   1.981   2.155   1.149  0.9492  0.2226 -0.1969
  144MOL    C3237498   2.103   1.818   1.154 -0.6248  0.6359 -0.3469
  144MOL    H3337499   2.015   1.939   1.310  1.7400  0.1313 -0.5926
  144MOL    H3437500   1.915   1.984   1.027  1.0969 -3.1663  0.4247
  144MOL    H3537501   1.814   2.100   1.297  2.0626 -1.5222  0.4205
  144MOL    H3637502   1.759   2.136   1.126  0.5709 -0.8494 -0.5946
  144MOL    H3737503   2.063   2.165   1.220  0.1479  2.4009  0.4548
  144MOL    H3837504   1.996   2.214   1.059  0.1537  0.7355  0.0045
  144MOL    H3937505   2.063   1.786   1.058  0.4629 -1.5327 -0.1147
  144MOL    H4037506   2.116   1.728   1.215  0.8896 -0.6028 -2.4505
  144MOL    C4137507   2.235   1.893   1.136 -0.4048 -0.3465  0.5075
  144MOL    C4237508   2.324   1.821   1.035  0.1166  0.3117 -0.0742
  144MOL    C4337509   2.418   1.874   0.939 -0.3972 -0.5149  0.0881
  144MOL    C4437510   2.299   1.796   0.895 -0.4835 -0.2997 -0.4710
  144MOL    C4537511   2.320   1.898   1.274 -0.3729 -0.8923 -0.4351
  144MOL    H4637512   2.216   1.998   1.114  1.3797 -0.7636 -3.5369
  144MOL    H4737513   2.381   1.745   1.088 -0.6664 -0.4992 -0.3886
  144MOL    H4837514   2.417   1.981   0.917  0.6913 -0.1178  1.9103
  144MOL    H4937515   2.507   1.813   0.924  1.3815  1.7656  1.0215
  144MOL    H5037516   2.307   1.692   0.863 -0.5165 -0.6664  0.6893
  144MOL    H5137517   2.204   1.835   0.859 -0.0735  0.6039 -0.6044
  144MOL    H5237518   2.366   1.799   1.272  2.8670  0.4804  2.0009
  144MOL    H5337519   2.246   1.895   1.355 -0.2701  0.3779 -0.2906
  144MOL    C5437520   2.427   2.020   1.287  0.2673 -0.5756 -0.2947
  144MOL    C5537521   2.347   2.147   1.312 -0.3411 -0.1015  0.1067
  144MOL    C5637522   2.319   2.248   1.204 -0.2657 -0.1624 -0.1010
  144MOL    C5737523   2.416   2.281   1.313 -0.1033  0.2980  0.7919
  144MOL    C5837524   2.528   1.992   1.393  0.8723 -0.6260 -0.1027
  144MOL    H5937525   2.485   2.045   1.199  1.5519 -1.0451  0.4135
  144MOL    H6037526   2.270   2.124   1.384 -2.8314  2.6578 -1.5606
  144MOL    H6137527   2.353   2.221   1.105 -0.6928 -1.2628  0.0470
  144MOL    H6237528   2.219   2.289   1.220  0.4115  0.8512  1.7576
  144MOL    H6337529   2.384   2.356   1.385 -0.2102  1.0502 -0.0256
  144MOL    H6437530   2.521   2.293   1.285 -0.6592  0.6030 -1.2527
  144MOL    H6537531   2.586   2.084   1.403  0.5083 -0.5408  1.2761
  144MOL    H6637532   2.467   1.982   1.483  1.8199  1.0851  0.7603
  144MOL    C6737533   2.630   1.882   1.372  0.6564  0.3999 -0.6502
  144MOL    C6837534   2.679   1.877   1.225  0.0110 -0.7004 -0.7810
  144MOL    C6937535   2.781   1.976   1.169  0.8815  0.1725  0.5879
  144MOL    C7037536   2.817   1.833   1.192 -0.4365  0.3008 -0.2765
  144MOL    C7137537   2.743   1.887   1.478 -0.4655  0.3240  0.5984
  144MOL    H7237538   2.579   1.788   1.391  0.4877  0.4143 -1.0334
  144MOL    H7337539   2.604   1.840   1.156 -1.8284  0.5884  0.4676
  144MOL    H7437540   2.774   2.018   1.069  0.9959 -1.3329 -0.0762
  144MOL    H7537541   2.817   2.052   1.238  0.3757  1.8348 -0.9456
  144MOL    H7637542   2.905   1.830   1.257  0.1014  0.5432 -0.9935
  144MOL    H7737543   2.821   1.767   1.106  1.1527  0.1414 -0.1054
  144MOL    H7837544   2.809   1.973   1.461  0.6213 -0.5526  0.3358
  144MOL    H7937545   2.798   1.795   1.461 -1.2256 -0.3201  1.5949
  144MOL    C8037546   2.714   1.905   1.628 -0.7149 -0.3086 -0.2734
  144MOL    C8137547   2.804   2.009   1.687 -0.8335 -0.5177 -0.0497
  144MOL    C8237548   2.753   2.096   1.805 -0.3956  0.6499  0.3248
  144MOL    C8337549   2.765   2.154   1.671 -0.6405 -0.0460  0.2617
  144MOL    C8437550   2.730   1.775   1.699 -0.1339  0.3320  0.1378
  144MOL    H8537551   2.612   1.941   1.640 -0.3745  0.8873 -0.8616
  144MOL    H8637552   2.912   1.998   1.675 -0.6549 -0.3620  1.3712
  144MOL    H8737553   2.819   2.138   1.881 -1.9377  3.7930 -0.0037
  144MOL    H8837554   2.652   2.078   1.839 -0.3769  0.6625  0.3872
  144MOL    H8937555   2.671   2.175   1.620 -0.2793 -0.3838 -0.5554
  144MOL    H9037556   2.847   2.222   1.651 -3.2209  2.4860 -2.1245
  144MOL    H9137557   2.832   1.738   1.689  1.1748  3.8618 -0.5692
  144MOL    H9237558   2.736   1.804   1.804 -0.0766  0.4410  0.1059
  144MOL    C9337559   2.625   1.664   1.682  0.3662 -0.0798 -0.5207
  144MOL    C9437560   2.697   1.535   1.631  0.4003 -0.5658  0.5119
  144MOL    C9537561   2.733   1.411   1.718 -0.2958  0.4598 -0.1005
  144MOL    C9637562   2.628   1.408   1.607  0.0705 -0.1445 -0.1234
  144MOL    C9737563   2.536   1.645   1.810  0.5499  0.1802 -0.5811
  144MOL    H9837564   2.560   1.679   1.597  1.8307 -2.5822 -2.1614
  144MOL    H9937565   2.760   1.565   1.548  2.0656 -2.7445  0.9570
  144MOL   H10037566   2.840   1.390   1.714  0.2556  3.1117 -0.5626
  144MOL   H10137567   2.695   1.393   1.818 -0.5574 -0.3000 -0.3342
  144MOL   H10237568   2.646   1.348   1.518 -0.5090 -1.0376  0.3595
  144MOL   H10337569   2.522   1.407   1.628 -0.1465  0.5264 -1.1444
  144MOL   H10437570   2.614   1.618   1.881 -0.9662 -0.2226  0.9525
  144MOL   H10537571   2.482   1.551   1.796  1.4141 -0.6870  1.7385
  144MOL   C10637572   2.438   1.759   1.852 -0.3966  0.1519 -0.0166
  144MOL   C10737573   2.356   1.821   1.735 -0.2108 -0.8347 -0.2911
  144MOL   C10837574   2.259   1.735   1.652 -0.7233  0.4693  0.5667
  144MOL   C10937575   2.206   1.844   1.738 -0.6736 -0.1230 -0.5247
  144MOL   C11037576   2.344   1.720   1.969  0.1658 -0.4383 -0.6825
  144MOL   H11137577   2.494   1.841   1.897 -1.2121  0.4285  0.5045
  144MOL   H11237578   2.412   1.885   1.667  0.6666 -0.4884  0.7557
  144MOL   H11337579   2.272   1.744   1.545  0.8957 -0.3322  0.6689
  144MOL   H11437580   2.246   1.633   1.689 -0.1347 -0.1456 -0.9063
  144MOL   H11537581   2.152   1.819   1.829 -1.3163 -0.7568 -1.0705
  144MOL   H11637582   2.174   1.935   1.689 -0.5660 -0.4876 -1.2765
  144MOL   H11737583   2.285   1.806   2.000  1.0164 -0.5584  1.3701
  144MOL   H11837584   2.274   1.647   1.929 -0.0163 -0.4437 -0.3594
  144MOL   C11937585   2.417   1.666   2.097 -0.0969 -0.0146  0.2033
  144MOL   C12037586   2.476   1.783   2.172 -0.0188  0.3052  0.1111
  144MOL   C12137587   2.627   1.831   2.162  0.0268  0.4456  0.3387
  144MOL   C12237588   2.572   1.776   2.288  0.1119 -0.1933  0.4157
  144MOL   C12337589   2.321   1.572   2.187  0.9917 -0.6919 -0.8597
  144MOL   H12437590   2.504   1.604   2.072 -2.4402 -2.9951 -0.8715
  144MOL   H12537591   2.398   1.853   2.199  1.7512  2.2777  0.2222
  144MOL   H12637592   2.646   1.937   2.150 -0.4747  0.6231  1.0498
  144MOL   H12737593   2.689   1.765   2.102  0.2778  0.9465  0.0511
  144MOL   H12837594   2.578   1.671   2.317 -1.5153 -0.1707  0.9271
  144MOL   H12937595   2.571   1.846   2.371  0.5038  1.1679 -0.7150
  144MOL   H13037596   2.381   1.565   2.277 -4.0944  0.2567  2.7790
  144MOL   H13137597   2.238   1.632   2.224 -0.3726 -2.5604 -0.7795
  144MOL   C13237598   2.278   1.437   2.126  0.2303  0.5625  0.1311
  144MOL   C13337599   2.165   1.378   2.216 -0.0800  0.1425  0.3173
  144MOL   C13437600   2.041   1.312   2.163  0.3594  0.3115  0.5180
  144MOL   C13537601   2.032   1.443   2.231 -0.5140 -0.5886 -0.3430
  144MOL   C13637602   2.390   1.336   2.112 -0.3791 -0.5402 -0.4658
  144MOL   H13737603   2.233   1.456   2.028 -0.3122 -1.1153  0.0384
  144MOL   H13837604   2.208   1.343   2.310 -1.1240  2.7394  1.8118
  144MOL   H13937605   2.027   1.300   2.056 -0.4998  2.0200  0.4213
  144MOL   H14037606   1.995   1.230   2.217  0.2149 -0.5765 -0.9401
  144MOL   H14137607   2.014   1.538   2.179  1.1584  0.3684  0.8105
  144MOL   H14237608   1.991   1.454   2.331 -0.0896  3.5663 -0.5060
  144MOL   H14337609   2.470   1.387   2.059 -0.4831 -0.3717 -0.4605
  144MOL   H14437610   2.426   1.307   2.211  2.7179  0.1689 -1.3416
  144MOL   C14537611   2.358   1.221   2.011  0.7067 -0.1645 -0.1384
  144MOL   C14637612   2.337   1.271   1.862 -0.3799 -0.0671  0.3396
  144MOL   C14737613   2.255   1.186   1.770 -0.2647  0.5315 -0.1861
  144MOL   C14837614   2.210   1.327   1.805  0.2207  0.2710  0.2934
  144MOL   C14937615   2.469   1.109   2.019 -0.0839  0.2362 -0.2695
  144MOL   H15037616   2.267   1.184   2.058  1.4336 -2.0855 -0.2014
  144MOL   H15137617   2.422   1.318   1.813  0.5687 -0.2480  1.8122
  144MOL   H15237618   2.291   1.179   1.668  0.4212  1.5911 -0.0236
  144MOL   H15337619   2.197   1.113   1.827 -1.9083  2.2354  0.3652
  144MOL   H15437620   2.117   1.329   1.862  0.7639 -0.7390  1.2398
  144MOL   H15537621   2.209   1.412   1.738 -4.7935 -0.5057 -0.8396
  144MOL   H15637622   2.533   1.141   1.937 -0.1254 -0.3361 -0.5235
  144MOL   H15737623   2.532   1.105   2.108 -1.8370 -1.0001  0.9483
  144MOL   C15837624   2.413   0.964   1.999  0.3968 -0.2017 -0.0157
  144MOL   C15937625   2.358   0.915   2.130  0.5984  0.5191 -0.6920
  144MOL   C16037626   2.212   0.938   2.161 -0.1927  0.1483 -0.4744
  144MOL   C16137627   2.261   0.804   2.150  0.6102  0.2066 -0.0703
  144MOL   C16237628   2.528   0.867   1.952  0.3409 -0.2032  0.1593
  144MOL   H16337629   2.329   0.960   1.928  0.1883 -0.6924  0.2568
  144MOL   H16437630   2.429   0.942   2.208  0.7846  0.8177 -0.9611
  144MOL   H16537631   2.137   0.958   2.085 -1.8330 -0.7786  0.8682
  144MOL   H16637632   2.192   0.976   2.261 -1.2861  2.5153 -1.5615
  144MOL   H16737633   2.280   0.746   2.240 -0.0471 -2.1021 -1.3967
  144MOL   H16837634   2.244   0.740   2.063  3.0046 -0.4624 -0.0698
  144MOL   H16937635   2.575   0.836   2.046  0.5327 -2.0469 -0.5231
  144MOL   H17037636   2.601   0.932   1.906  0.2633 -0.8216 -0.8537
  144MOL   C17137637   2.481   0.751   1.862  0.2461  1.1766  0.0880
  144MOL   C17237638   2.475   0.809   1.719 -0.2838 -0.0625 -0.1866
  144MOL   C17337639   2.389   0.749   1.613 -0.1287 -0.7133 -0.7184
  144MOL   C17437640   2.364   0.891   1.666 -0.0257  0.3668 -0.5045
  144MOL   C17537641   2.585   0.630   1.872 -0.8372  0.1896  0.5387
  144MOL   H17637642   2.381   0.720   1.894 -0.0312  0.3096 -1.5788
  144MOL   H17737643   2.574   0.828   1.676  0.0623 -0.3019  0.4929
  144MOL   H17837644   2.422   0.736   1.510  1.9853 -0.1514 -0.1382
  144MOL   H17937645   2.312   0.681   1.650 -0.6208  0.8093  1.1307
  144MOL   H18037646   2.279   0.908   1.733  0.6594  1.3027  0.1459
  144MOL   H18137647   2.392   0.969   1.596  0.4755 -0.4675 -1.2288
  144MOL   H18237648   2.601   0.608   1.978  1.0106 -0.6789  0.1058
  144MOL   H18337649   2.677   0.680   1.843 -0.9882  0.7012  0.9367
  144MOL   C18437650   2.569   0.493   1.791 -0.1483 -0.3878 -0.3694
  144MOL   C18537651   2.441   0.424   1.840 -0.0052 -0.6999  0.4097
  144MOL   C18637652   2.435   0.342   1.966  0.2347  0.0736  0.1104
  144MOL   C18737653   2.406   0.282   1.831 -0.3149  0.1083 -0.1715
  144MOL   C18837654   2.692   0.401   1.806 -0.1260 -0.4806  0.7857
  144MOL   H18937655   2.557   0.513   1.684  1.1301  0.4714 -0.3635
  144MOL   H19037656   2.359   0.494   1.827  0.0478 -0.5574  0.8415
  144MOL   H19137657   2.351   0.356   2.034  1.3419 -1.0594  1.7829
  144MOL   H19237658   2.531   0.311   2.008 -0.4851 -0.7662  1.1775
  144MOL   H19337659   2.302   0.256   1.815 -0.2365  0.9635 -2.2811
  144MOL   H19437660   2.482   0.218   1.787 -2.5391 -2.5889 -0.1717
  144MOL   H19537661   2.667   0.296   1.791 -0.5268 -0.7417  3.1295
  144MOL   H19637662   2.739   0.407   1.905  1.0068 -0.3188  0.2530
  144MOL   C19737663   2.810   0.418   1.700 -0.5202 -0.1370  0.0023
  144MOL   C19837664   2.763   0.367   1.565 -0.7660 -0.6948  0.5198
  144MOL   C19937665   2.835   0.412   1.445  0.6991 -0.1667  0.1589
  144MOL   C20037666   2.686   0.446   1.454  0.0818 -0.9226  0.1307
  144MOL   C20137667   2.941   0.340   1.740 -0.4296 -0.2913  0.2762
  144MOL   H20237668   2.825   0.526   1.692 -0.8043 -0.2360 -2.0376
  144MOL   H20337669   2.731   0.263   1.559 -1.2876 -0.4703 -0.9140
  144MOL   H20437670   2.914   0.487   1.451  0.7370 -0.2064  0.1583
  144MOL   H20537671   2.856   0.336   1.370  0.3328  0.9189 -1.0614
  144MOL   H20637672   2.675   0.553   1.473 -0.1831 -0.8844 -0.2282
  144MOL   H20737673   2.627   0.408   1.371  0.1860  0.5055 -0.6060
  144MOL   H20837674   2.911   0.244   1.782  0.7450 -1.2919 -1.1421
  144MOL   H20937675   3.001   0.305   1.656 -0.5770 -3.1881  1.3165
  144MOL   C21037676   3.032   0.401   1.856  0.7191  0.1477  0.3836
  144MOL   C21137677   3.154   0.317   1.881 -0.2661  0.1035  0.6386
  144MOL   C21237678   3.208   0.309   2.022  0.0297  0.3561  0.7844
  144MOL   C21337679   3.146   0.185   1.952  0.7097  0.2043 -1.2079
  144MOL   C21437680   3.076   0.540   1.815 -0.5659 -0.0381  0.6182
  144MOL   H21537681   2.963   0.411   1.940 -0.5628 -2.3911 -0.3142
  144MOL   H21637682   3.208   0.297   1.789 -1.4350 -0.4795  0.0574
  144MOL   H21737683   3.317   0.307   2.027  0.0147 -0.5097  0.8581
  144MOL   H21837684   3.152   0.355   2.103 -1.3892 -1.2966  0.7687
  144MOL   H21937685   3.203   0.102   1.911 -0.1537 -1.6544  1.2697
  144MOL   H22037686   3.043   0.165   1.980  0.6126 -0.3005 -1.9273
  144MOL   H22137687   3.184   0.544   1.815 -0.4906 -1.7313 -0.3062
  144MOL   H22237688   3.051   0.554   1.710 -2.1495 -0.5680  0.8990
  144MOL   C22337689   3.017   0.655   1.895 -0.5886 -0.4138 -0.4574
  144MOL   C22437690   3.044   0.790   1.822 -0.0733 -0.2842  0.4002
  144MOL   C22537691   2.963   0.817   1.693 -0.1306  0.4449 -0.2190
  144MOL   C22637692   2.934   0.894   1.822  0.6620 -0.5682 -0.6143
  144MOL   C22737693   3.084   0.664   2.037 -0.2290  0.4306 -0.0416
  144MOL   H22837694   2.910   0.635   1.892 -1.0952  2.2328 -1.1993
  144MOL   H22937695   3.150   0.814   1.812  0.1346 -1.6563 -0.8431
  144MOL   H23037696   2.906   0.732   1.656  0.6501 -0.3711  0.4231
  144MOL   H23137697   2.998   0.882   1.613  0.7370 -0.5735 -0.6810
  144MOL   H23237698   2.956   0.998   1.842  0.6692 -0.8832  1.0910
  144MOL   H23337699   2.846   0.862   1.877  0.3361  1.6965  0.2401
  144MOL   H23437700   3.096   0.562   2.074 -2.2783 -0.3022 -1.3051
  144MOL   H23537701   3.188   0.684   2.013 -0.9294  1.5743 -2.2777
  144MOL   C23637702   3.020   0.757   2.151 -0.0175 -0.0142  0.5113
  144MOL   C23737703   3.099   0.766   2.277  0.1911 -0.3922  0.4635
  144MOL   C23837704   3.111   0.638   2.352  0.1398  0.3239  0.4932
  144MOL   C23937705   3.234   0.700   2.296 -0.2770 -0.2837  0.5147
  144MOL   C24037706   2.876   0.712   2.184 -0.0865 -0.4352  0.0389
  144MOL   H24137707   3.026   0.856   2.105  0.0882 -1.0914 -1.8933
  144MOL   H24237708   3.081   0.859   2.331  1.7357 -1.0092  2.0919
  144MOL   H24337709   3.113   0.634   2.461  1.3752 -0.8643  0.4355
  144MOL   H24437710   3.077   0.547   2.304 -0.9142  0.5948  0.7165
  144MOL   H24537711   3.280   0.648   2.212 -0.7016  1.0181 -0.5364
  144MOL   H24637712   3.304   0.760   2.353  0.7493 -0.7192 -0.2695
  144MOL   H24737713   2.810   0.726   2.098  2.5764 -0.6345 -2.0852
  144MOL   H24837714   2.875   0.607   2.212 -0.5227 -0.2433  0.7456
  144MOL   C24937715   2.803   0.790   2.300 -0.0980 -0.1316 -0.8126
  144MOL   C25037716   2.662   0.740   2.328  0.5044  0.1330 -0.4224
  144MOL   C25137717   2.638   0.600   2.373 -0.5980 -0.6089 -0.7147
  144MOL   C25237718   2.605   0.718   2.464 -0.7220 -0.7090 -0.2287
  144MOL   C25337719   2.805   0.940   2.260 -0.4233 -0.3597 -0.8869
  144MOL   H25437720   2.860   0.782   2.392 -1.1171 -0.1027 -0.1724
  144MOL   H25537721   2.594   0.767   2.247  1.3512 -0.7533 -1.4450
  144MOL   H25637722   2.562   0.543   2.320 -1.1833 -0.1309 -0.3939
  144MOL   H25737723   2.722   0.547   2.417 -1.6882  0.5372  2.9599
  144MOL   H25837724   2.508   0.767   2.472 -1.0518 -1.5128  0.7510
  144MOL   H25937725   2.659   0.711   2.558 -0.3457 -0.5122 -0.4281
  144MOL   H26037726   2.749   1.004   2.328  1.2028 -2.7722  2.9243
  144MOL   H26137727   2.752   0.949   2.166 -1.3792 -0.6618 -0.3794
  144MOL   H26237728   2.907   0.977   2.247 -0.6491  0.9371  0.8364
  145MOL     C137729   4.282   4.027   3.370  0.0179  0.1119  0.1966
  145MOL     C237730   4.383   3.923   3.397 -0.4710 -0.0592  0.0171
  145MOL     C337731   4.395   3.790   3.317 -0.0460  0.6390  0.1768
  145MOL     C437732   4.357   3.791   3.463  0.1032  0.5137 -0.3304
  145MOL     C537733   4.281   4.143   3.477 -0.6003  0.5984  0.2568
  145MOL     H637734   4.303   4.082   3.278 -0.5619  1.7214  1.0058
  145MOL     H737735   4.484   3.957   3.418 -0.1320 -2.2242  2.1398
  145MOL     H837736   4.312   3.769   3.251 -0.3208  2.3423 -0.0497
  145MOL     H937737   4.495   3.763   3.282 -1.1276 -2.0118 -0.9357
  145MOL    H1037738   4.422   3.757   3.543 -0.7357  1.7021  0.8694
  145MOL    H1137739   4.254   3.760   3.480 -0.0869  0.5335 -1.3622
  145MOL    H1237740   4.372   4.198   3.453  0.0559 -0.8741 -0.7048
  145MOL    H1337741   4.303   4.094   3.572  1.6486 -2.0755 -1.5469
  145MOL    H1437742   4.183   3.983   3.362 -1.4363  2.8974  1.9711
  145MOL    C1537743   4.175   4.252   3.481 -0.3936 -0.5527  0.0992
  145MOL    C1637744   4.036   4.207   3.535  0.2068 -0.0817 -0.2295
  145MOL    C1737745   3.928   4.171   3.433 -1.2172  0.1033 -0.5787
  145MOL    C1837746   3.918   4.304   3.515 -0.1061  0.5291 -0.2560
  145MOL    C1937747   4.222   4.378   3.559 -0.1588 -0.0871  0.2303
  145MOL    H2037748   4.149   4.282   3.379  1.8440  2.0559  0.2539
  145MOL    H2137749   4.036   4.149   3.628  2.4251 -0.6823 -0.5736
  145MOL    H2237750   3.857   4.096   3.467  0.0794 -0.7104  0.3898
  145MOL    H2337751   3.970   4.171   3.333 -0.0650 -1.0520 -0.0959
  145MOL    H2437752   3.923   4.388   3.446 -0.0593  0.6146 -0.1494
  145MOL    H2537753   3.841   4.307   3.593  1.1065 -2.3482  1.1109
  145MOL    H2637754   4.247   4.343   3.659  3.7811  1.7581 -0.0005
  145MOL    H2737755   4.147   4.456   3.570 -0.1893 -0.2340  1.1225
  145MOL    C2837756   4.343   4.462   3.507 -0.3950 -0.6169  0.8089
  145MOL    C2937757   4.382   4.577   3.599 -0.0310 -0.0193  0.1378
  145MOL    C3037758   4.462   4.537   3.719 -0.6209 -0.7419  0.5475
  145MOL    C3137759   4.526   4.627   3.620 -0.0693  0.0711  0.1553
  145MOL    C3237760   4.330   4.501   3.355 -0.1486  0.1612 -0.2625
  145MOL    H3337761   4.430   4.397   3.499  0.0854  0.1652 -0.4650
  145MOL    H3437762   4.302   4.650   3.614 -1.8904 -1.5575 -1.8669
  145MOL    H3537763   4.485   4.431   3.724  0.2787 -0.5103  1.6066
  145MOL    H3637764   4.416   4.577   3.809 -0.3095 -0.2669  0.4967
  145MOL    H3737765   4.605   4.577   3.565 -2.0521 -2.3370 -0.5828
  145MOL    H3837766   4.543   4.728   3.657 -0.8548  0.0666  0.5455
  145MOL    H3937767   4.254   4.579   3.343  1.0281  1.4083  0.2956
  145MOL    H4037768   4.291   4.422   3.291 -2.9704  1.6547 -0.4693
  145MOL    C4137769   4.451   4.562   3.284  0.0840  0.6781  0.8949
  145MOL    C4237770   4.409   4.642   3.162  0.9319  0.8334 -0.1490
  145MOL    C4337771   4.477   4.776   3.139 -0.3940 -0.8881  0.3633
  145MOL    C4437772   4.324   4.767   3.176 -0.6398 -0.5598  0.0074
  145MOL    C4537773   4.556   4.453   3.249 -0.2273  0.4289 -0.3411
  145MOL    H4637774   4.497   4.635   3.350  0.5350 -0.1007  1.4578
  145MOL    H4737775   4.390   4.578   3.076  0.3574 -0.5447  0.9892
  145MOL    H4837776   4.553   4.808   3.210  0.7130  0.3498 -1.3543
  145MOL    H4937777   4.499   4.805   3.037 -2.0959 -0.9714 -0.0416
  145MOL    H5037778   4.248   4.773   3.099  1.0900 -0.7878 -1.7430
  145MOL    H5137779   4.293   4.809   3.272 -0.7065 -0.0601 -0.2281
  145MOL    H5237780   4.504   4.385   3.182 -0.6183  1.5709 -1.2004
  145MOL    H5337781   4.586   4.397   3.338 -0.4048  1.9859  0.7160
  145MOL    C5437782   4.683   4.503   3.179 -1.2252 -0.3793 -0.0254
  145MOL    C5537783   4.779   4.553   3.285 -0.4201  0.4338  0.7716
  145MOL    C5637784   4.788   4.692   3.337 -0.3191  0.4086 -0.0456
  145MOL    C5737785   4.889   4.640   3.238  0.4483  0.8434 -0.1864
  145MOL    C5837786   4.749   4.398   3.081  0.3206 -0.4083 -1.0680
  145MOL    H5937787   4.662   4.592   3.119  1.9546  0.6669  0.3296
  145MOL    H6037788   4.811   4.473   3.351 -0.6769 -0.1882  0.1563
  145MOL    H6137789   4.719   4.772   3.310 -0.9323 -0.5795 -1.4578
  145MOL    H6237790   4.817   4.702   3.442  1.0930 -0.6975 -0.3284
  145MOL    H6337791   4.990   4.626   3.277  0.4141 -1.0990 -0.7667
  145MOL    H6437792   4.885   4.701   3.148 -1.0813 -0.0039 -0.7031
  145MOL    H6537793   4.856   4.403   3.100  0.0655 -1.3947  0.7374
  145MOL    H6637794   4.732   4.298   3.119  2.6105 -0.5020 -0.2348
  145MOL    C6737795   4.738   4.409   2.930  1.0977  0.1096  0.1485
  145MOL    C6837796   4.596   4.373   2.876 -0.5325 -0.2652 -0.1125
  145MOL    C6937797   4.574   4.308   2.742 -0.1402 -0.8357  0.2261
  145MOL    C7037798   4.547   4.229   2.864  0.7640  0.3423  0.1551
  145MOL    C7137799   4.788   4.547   2.878 -0.1874 -0.3112  0.5154
  145MOL    H7237800   4.808   4.331   2.902  2.0873  0.8519  0.5183
  145MOL    H7337801   4.516   4.438   2.912 -0.1796  0.2431 -0.2345
  145MOL    H7437802   4.484   4.340   2.688  0.2300 -0.4400 -0.1673
  145MOL    H7537803   4.662   4.276   2.686 -0.9123 -0.5642 -1.1782
  145MOL    H7637804   4.609   4.145   2.894 -0.8410 -0.2980  1.8075
  145MOL    H7737805   4.441   4.207   2.878  0.4094  1.4641 -0.7040
  145MOL    H7837806   4.853   4.600   2.948  0.9335  0.3130 -0.9750
  145MOL    H7937807   4.699   4.609   2.886 -0.7569 -1.1740  0.9568
  145MOL    C8037808   4.840   4.552   2.738 -0.4812  0.5526 -0.0019
  145MOL    C8137809   4.987   4.499   2.726  0.4908  0.4581  0.0119
  145MOL    C8237810   5.028   4.457   2.584  0.2598  0.3459  0.0394
  145MOL    C8337811   5.004   4.361   2.698 -0.2485 -0.1683 -0.4907
  145MOL    C8437812   4.838   4.699   2.689 -0.7681  0.6078 -0.7660
  145MOL    H8537813   4.776   4.499   2.667 -0.9261 -0.5637  1.2078
  145MOL    H8637814   5.065   4.539   2.790  1.8910 -2.5088  0.2151
  145MOL    H8737815   5.130   4.480   2.553  0.7361  0.0691  1.3771
  145MOL    H8837816   4.959   4.449   2.501  0.8158  2.6586 -0.6958
  145MOL    H8937817   4.908   4.312   2.679 -0.9815  0.7919  0.6775
  145MOL    H9037818   5.086   4.311   2.749  0.4785 -0.8263 -2.2619
  145MOL    H9137819   4.905   4.742   2.764 -0.2214 -2.8344  0.7710
  145MOL    H9237820   4.900   4.704   2.599  1.1560  2.1869  0.5882
  145MOL    C9337821   4.704   4.765   2.674  0.1317  0.2957  0.2524
  145MOL    C9437822   4.708   4.907   2.716  0.0918 -0.4700  0.3895
  145MOL    C9537823   4.582   4.963   2.775 -0.4623 -0.3806 -0.7895
  145MOL    C9637824   4.705   4.943   2.859  0.1195 -0.4355 -0.1797
  145MOL    C9737825   4.660   4.746   2.529  0.2691  0.2952  0.6851
  145MOL    H9837826   4.636   4.709   2.738  0.9896 -1.0203  0.0232
  145MOL    H9937827   4.779   4.968   2.659  0.8535 -1.6984  0.0033
  145MOL   H10037828   4.554   5.067   2.758 -0.0058 -0.3006 -1.0699
  145MOL   H10137829   4.505   4.895   2.807 -0.2534 -0.1300  0.2638
  145MOL   H10237830   4.757   5.032   2.893  1.1941 -1.6839  1.5329
  145MOL   H10337831   4.713   4.854   2.922  2.9127  1.0814  1.7372
  145MOL   H10437832   4.704   4.656   2.487 -1.9708 -1.1837  1.4598
  145MOL   H10537833   4.713   4.822   2.471 -1.3436 -0.5513 -1.9713
  145MOL   C10637834   4.512   4.743   2.502  1.0600 -0.0559 -0.4060
  145MOL   C10737835   4.479   4.804   2.368  0.3317 -0.4467 -0.0425
  145MOL   C10837836   4.354   4.892   2.353 -0.0663  0.3938 -0.4531
  145MOL   C10937837   4.498   4.947   2.325 -0.0660  0.2667  0.7363
  145MOL   C11037838   4.444   4.598   2.528  0.5870  0.0787  0.5498
  145MOL   H11137839   4.453   4.808   2.568 -0.7635 -0.5214 -1.5311
  145MOL   H11237840   4.501   4.722   2.300  2.5852 -1.2020  1.5339
  145MOL   H11337841   4.292   4.874   2.265 -1.2312 -0.1139  0.4631
  145MOL   H11437842   4.309   4.939   2.439 -1.7552  1.0249 -1.6633
  145MOL   H11537843   4.564   5.004   2.391 -0.4588  0.6815  0.7764
  145MOL   H11637844   4.538   4.938   2.225  1.4611 -0.7575  1.4088
  145MOL   H11737845   4.468   4.526   2.450 -2.0619  0.5976 -0.8160
  145MOL   H11837846   4.491   4.550   2.614 -0.5861 -1.9219  0.0959
  145MOL   C11937847   4.291   4.605   2.558 -0.6681  0.1004 -0.0783
  145MOL   C12037848   4.197   4.506   2.472  0.3962  0.1340 -0.6591
  145MOL   C12137849   4.155   4.538   2.335 -0.3907 -0.5603  0.0310
  145MOL   C12237850   4.052   4.521   2.451  0.7169 -0.6606  0.4080
  145MOL   C12337851   4.271   4.578   2.708  0.3709 -0.3233 -0.0599
  145MOL   H12437852   4.257   4.705   2.530  0.1561  0.9500  1.9161
  145MOL   H12537853   4.225   4.402   2.485 -0.6248  0.0513  1.0961
  145MOL   H12637854   4.174   4.454   2.269  1.2696 -1.7975  1.9966
  145MOL   H12737855   4.165   4.639   2.297 -1.5584 -0.7926 -0.9375
  145MOL   H12837856   3.990   4.607   2.476  0.9670 -0.5807  0.7513
  145MOL   H12937857   3.987   4.435   2.437  0.0142 -0.1629  0.5570
  145MOL   H13037858   4.272   4.473   2.738  1.1247 -0.5862 -0.9852
  145MOL   H13137859   4.358   4.618   2.761  0.3363  0.0769 -0.3022
  145MOL   C13237860   4.138   4.636   2.761  0.2082  0.2071 -0.7389
  145MOL   C13337861   4.136   4.792   2.767 -0.3068  0.0710  0.0931
  145MOL   C13437862   4.001   4.863   2.754  1.0187 -0.6479  0.2866
  145MOL   C13537863   4.101   4.887   2.650  0.4720  0.0315 -0.3837
  145MOL   C13637864   4.094   4.591   2.899  0.8679 -0.5356  0.4986
  145MOL   H13737865   4.063   4.603   2.690 -2.1214  1.7747  0.9359
  145MOL   H13837866   4.213   4.819   2.839 -2.0987  2.5655  1.1409
  145MOL   H13937867   3.911   4.823   2.708  0.8709  0.3695 -0.3228
  145MOL   H14037868   3.986   4.927   2.840 -1.9709 -1.4204  0.3754
  145MOL   H14137869   4.078   4.836   2.556 -0.6439 -2.4535  1.1747
  145MOL   H14237870   4.172   4.968   2.637 -0.9836  1.3635 -0.1599
  145MOL   H14337871   4.189   4.583   2.950  1.6017  0.4552 -0.6877
  145MOL   H14437872   4.031   4.661   2.954 -0.3868 -1.7877  0.6982
  145MOL   C14537873   4.020   4.457   2.907 -0.0348 -0.7208  0.1005
  145MOL   C14637874   4.067   4.376   3.029  0.6547  0.2684 -0.0423
  145MOL   C14737875   4.056   4.227   3.036  0.2310 -0.3356  0.3031
  145MOL   C14837876   4.192   4.288   3.014 -0.1239  0.6959  0.2228
  145MOL   C14937877   3.870   4.464   2.911 -0.0060 -0.0754  0.3847
  145MOL   H15037878   4.048   4.399   2.819  0.3253  4.1918 -3.1868
  145MOL   H15137879   4.051   4.417   3.128  1.5037  1.5459 -0.4233
  145MOL   H15237880   4.063   4.174   3.130 -0.7435  0.4393  0.8284
  145MOL   H15337881   3.997   4.173   2.962  0.8259 -0.9531  0.2781
  145MOL   H15437882   4.231   4.273   2.913  1.1822  0.3924  0.7689
  145MOL   H15537883   4.269   4.284   3.090  0.4782  1.8579 -0.3153
  145MOL   H15637884   3.840   4.501   2.813 -0.0074 -0.3571  0.2784
  145MOL   H15737885   3.847   4.357   2.919 -1.3493  0.1988  0.3156
  145MOL   C15837886   3.802   4.542   3.024 -0.5430 -0.1796  0.1253
  145MOL   C15937887   3.693   4.474   3.099 -0.3137  0.2719  0.8132
  145MOL   C16037888   3.723   4.360   3.198 -0.3275 -0.5813  0.0314
  145MOL   C16137889   3.683   4.495   3.250 -0.3313  0.6043  0.2764
  145MOL   C16237890   3.740   4.664   2.952 -0.0303 -0.6909 -0.1584
  145MOL   H16337891   3.879   4.580   3.091 -0.3868 -1.2946  0.5911
  145MOL   H16437892   3.606   4.443   3.040  1.5992 -0.9972 -1.4227
  145MOL   H16537893   3.829   4.337   3.206 -0.1716 -1.0072 -2.9198
  145MOL   H16637894   3.659   4.273   3.200 -3.2620  1.4604 -1.3667
  145MOL   H16737895   3.579   4.505   3.281 -0.8276  1.7548 -1.6723
  145MOL   H16837896   3.758   4.553   3.302  1.0437  0.7371 -1.8130
  145MOL   H16937897   3.662   4.627   2.887 -0.5687 -0.1120  0.1531
  145MOL   H17037898   3.816   4.713   2.891  1.1773  0.0705  1.8954
  145MOL   C17137899   3.673   4.771   3.049 -0.5609  0.0145 -0.4404
  145MOL   C17237900   3.784   4.869   3.101  0.4686  0.8434  0.5700
  145MOL   C17337901   3.773   4.938   3.238 -0.2152 -0.0496  0.9939
  145MOL   C17437902   3.888   4.844   3.212  0.3677 -0.7257  0.0676
  145MOL   C17537903   3.569   4.859   2.980  0.2247 -0.4403 -0.1554
  145MOL   H17637904   3.627   4.733   3.140 -0.3450 -0.5402 -0.5570
  145MOL   H17737905   3.828   4.928   3.021  0.2839  0.9472  0.5439
  145MOL   H17837906   3.775   5.047   3.237 -2.5804  0.0183  0.4661
  145MOL   H17937907   3.692   4.898   3.298 -1.6200  0.9101 -0.2194
  145MOL   H18037908   3.884   4.741   3.246  0.7430 -1.8867 -3.2489
  145MOL   H18137909   3.985   4.887   3.189  0.8825 -0.9322  1.8154
  145MOL   H18237910   3.602   4.909   2.888  0.0027 -1.0536 -0.5739
  145MOL   H18337911   3.552   4.942   3.048  0.7668 -0.0092 -0.5384
  145MOL   C18437912   3.431   4.785   2.944  0.1028 -0.0725 -0.1441
  145MOL   C18537913   3.324   4.891   2.907  0.4525 -0.1163 -0.3133
  145MOL   C18637914   3.232   4.868   2.787  0.2372  0.1164 -0.1509
  145MOL   C18737915   3.336   4.975   2.789  0.4190  1.1472  0.5800
  145MOL   C18837916   3.378   4.697   3.062  0.6716 -0.4438  0.4537
  145MOL   H18937917   3.451   4.726   2.855  0.5213 -2.1886  1.3036
  145MOL   H19037918   3.284   4.939   2.996  1.5678  1.1636 -0.4896
  145MOL   H19137919   3.132   4.913   2.783 -0.1544 -0.6325  0.9764
  145MOL   H19237920   3.255   4.783   2.724 -1.4504  0.0258 -0.6664
  145MOL   H19337921   3.296   5.076   2.778  1.1933  1.6254  2.0030
  145MOL   H19437922   3.428   4.973   2.731 -0.6365 -0.0191 -1.0846
  145MOL   H19537923   3.347   4.765   3.141  0.2564  1.0217 -0.9419
  145MOL   H19637924   3.451   4.634   3.112 -0.7120 -1.7890  0.8213
  145MOL   C19737925   3.264   4.609   3.014  0.2582 -0.2658 -0.7856
  145MOL   C19837926   3.205   4.552   3.136 -0.2184 -0.5413 -0.4034
  145MOL   C19937927   3.058   4.536   3.146 -0.0417 -0.7349 -0.1984
  145MOL   C20037928   3.116   4.640   3.230  0.6244  0.1603  0.7638
  145MOL   C20137929   3.303   4.494   2.914 -0.7278  0.4180  0.4571
  145MOL   H20237930   3.199   4.685   2.971  0.6397 -0.0210 -0.9270
  145MOL   H20337931   3.273   4.494   3.198  1.8842  1.2600 -0.9810
  145MOL   H20437932   2.990   4.579   3.072  0.5728 -0.9205 -0.8752
  145MOL   H20537933   3.011   4.452   3.197 -0.8865 -0.8978 -1.2389
  145MOL   H20637934   3.120   4.745   3.199 -1.2479 -0.0092 -0.0988
  145MOL   H20737935   3.129   4.638   3.338 -0.3456  1.5712  0.9150
  145MOL   H20837936   3.377   4.533   2.844 -1.4931  1.1196  0.0366
  145MOL   H20937937   3.360   4.423   2.975  2.6919  2.0886 -0.6678
  145MOL   C21037938   3.197   4.422   2.839  0.3190 -0.1765 -0.1263
  145MOL   C21137939   3.130   4.512   2.736 -0.7248 -0.2854 -0.2587
  145MOL   C21237940   2.996   4.467   2.687  0.3233  0.8220  0.2643
  145MOL   C21337941   3.004   4.600   2.759 -0.3600  0.2212  0.0550
  145MOL   C21437942   3.241   4.298   2.768 -0.0970  0.6757  0.0759
  145MOL   H21537943   3.123   4.392   2.913 -0.2699  1.1970 -0.1426
  145MOL   H21637944   3.199   4.543   2.658 -0.9342 -1.5136 -0.9577
  145MOL   H21737945   2.961   4.489   2.586  1.9125 -2.2058 -1.0174
  145MOL   H21837946   2.936   4.392   2.738  1.0506  0.9958  1.3864
  145MOL   H21937947   2.994   4.685   2.691  0.8000  0.9873  0.8304
  145MOL   H22037948   2.953   4.598   2.855 -0.6882  1.8773 -0.0551
  145MOL   H22137949   3.262   4.318   2.663  0.4701  0.9356  0.2347
  145MOL   H22237950   3.341   4.277   2.805 -0.7482  0.0990  1.5491
  145MOL   C22337951   3.147   4.176   2.777 -0.1523 -0.2826  0.5860
  145MOL   C22437952   3.140   4.124   2.920 -0.1693 -0.4038  0.0552
  145MOL   C22537953   3.038   4.160   3.023 -0.6635 -0.2545 -0.3262
  145MOL   C22637954   3.038   4.018   2.967  0.0542  0.0630 -0.2048
  145MOL   C22737955   3.199   4.069   2.685 -0.0428  0.2655  0.1733
  145MOL   H22837956   3.047   4.211   2.751 -0.3687 -0.9870  0.4749
  145MOL   H22937957   3.241   4.103   2.953 -1.4380 -4.9871  1.4008
  145MOL   H23037958   2.961   4.232   2.998  0.8309  1.9140  1.1890
  145MOL   H23137959   3.083   4.173   3.121 -2.8710 -1.3506  0.8651
  145MOL   H23237960   3.075   3.946   3.040  1.6524  0.5057 -0.5554
  145MOL   H23337961   2.955   3.982   2.907 -0.4060 -0.2350  0.6026
  145MOL   H23437962   3.268   4.108   2.609  1.5902 -1.1717  0.9054
  145MOL   H23537963   3.268   4.003   2.736 -1.7257 -1.2060  0.5737
  145MOL   C23637964   3.091   3.988   2.607 -0.1384 -0.3655 -1.2386
  145MOL   C23737965   3.158   3.887   2.521 -0.2777 -0.0859 -0.4354
  145MOL   C23837966   3.183   3.741   2.578 -0.6407 -0.5540  0.1026
  145MOL   C23937967   3.086   3.769   2.463  0.0227 -0.6224 -0.1122
  145MOL   C24037968   3.004   4.078   2.514  0.4168  0.1329 -0.1902
  145MOL   H24137969   3.027   3.936   2.678  2.1894 -0.0765  1.1845
  145MOL   H24237970   3.233   3.936   2.459  0.4099  0.5194  0.8461
  145MOL   H24337971   3.287   3.711   2.567 -1.0043 -1.8402  0.2089
  145MOL   H24437972   3.143   3.740   2.679 -2.0468 -1.2219 -0.4582
  145MOL   H24537973   2.979   3.761   2.480  0.2712 -0.8173  1.5158
  145MOL   H24637974   3.119   3.710   2.378  0.7790  0.3966 -0.5345
  145MOL   H24737975   2.994   4.183   2.544  1.7123 -0.6308  3.0529
  145MOL   H24837976   3.043   4.079   2.412 -1.5856 -3.2423 -1.0812
  145MOL   C24937977   2.852   4.047   2.495 -1.3419 -0.0259 -0.5780
  145MOL   C25037978   2.791   4.144   2.400 -0.1456 -0.2408 -0.3708
  145MOL   C25137979   2.788   4.125   2.251 -0.2227  0.4595 -1.0527
  145MOL   C25237980   2.659   4.129   2.334  0.1865  0.3329  0.0180
  145MOL   C25337981   2.766   4.058   2.626  0.7135 -1.2059 -0.6804
  145MOL   H25437982   2.837   3.948   2.453 -2.6736 -0.4704  0.8517
  145MOL   H25537983   2.790   4.245   2.438 -1.7036  0.6541 -2.6556
  145MOL   H25637984   2.823   4.211   2.194  0.9947 -0.2388 -1.3870
  145MOL   H25737985   2.817   4.023   2.227  0.8295  0.5304 -0.1222
  145MOL   H25837986   2.598   4.219   2.327  0.9900  0.9350  0.6334
  145MOL   H25937987   2.612   4.032   2.348  1.4849 -0.3793 -0.4783
  145MOL   H26037988   2.781   4.163   2.648 -1.9132 -1.2801  1.7478
  145MOL   H26137989   2.798   3.991   2.707  0.1430  1.3074  1.6842
  145MOL   H26237990   2.659   4.041   2.615  0.7471 -2.9477  1.2123
  146MOL     C137991   3.158   5.318   1.939 -0.0663 -0.7652  0.4677
  146MOL     C237992   3.034   5.404   1.937  0.2264 -0.5588  0.3040
  146MOL     C337993   2.923   5.357   1.848  0.1584 -0.3736 -0.0410
  146MOL     C437994   2.987   5.491   1.818  0.3331  0.3437 -0.4430
  146MOL     C537995   3.276   5.383   2.012 -0.0088  0.7334  0.0802
  146MOL     H637996   3.127   5.229   1.992  0.8837 -2.1703 -1.2805
  146MOL     H737997   3.001   5.438   2.035 -0.3354  0.8192 -0.3503
  146MOL     H837998   2.952   5.275   1.782 -1.1712 -1.8780  1.2047
  146MOL     H937999   2.817   5.371   1.868  0.2490  0.9817 -0.4393
  146MOL    H1038000   2.918   5.574   1.826  0.1684  0.2749 -1.1094
  146MOL    H1138001   3.054   5.496   1.733  1.5580 -0.1108  0.4735
  146MOL    H1238002   3.254   5.398   2.118  0.0107  0.1272  0.1762
  146MOL    H1338003   3.294   5.485   1.978  1.7975  1.0129  1.7873
  146MOL    H1438004   3.185   5.304   1.834 -0.4924  1.6090  0.0120
  146MOL    C1538005   3.405   5.300   2.005  0.0322 -0.1239  0.7731
  146MOL    C1638006   3.456   5.301   1.856 -0.4680  0.0783  0.4971
  146MOL    C1738007   3.395   5.196   1.762 -0.2490 -0.2363  1.1482
  146MOL    C1838008   3.544   5.191   1.792  0.6735 -0.0995 -0.0594
  146MOL    C1938009   3.515   5.348   2.099 -0.0341  0.4317 -0.2081
  146MOL    H2038010   3.378   5.195   2.020 -1.4693  0.5010  2.5946
  146MOL    H2138011   3.483   5.402   1.826  1.2426 -0.9402 -1.5329
  146MOL    H2238012   3.370   5.211   1.657  0.7745  0.6965  1.0214
  146MOL    H2338013   3.327   5.122   1.803 -1.5655 -0.0804 -0.6888
  146MOL    H2438014   3.587   5.108   1.848  0.5309  0.0800  0.3184
  146MOL    H2538015   3.620   5.229   1.725 -0.6311  2.6173 -0.0655
  146MOL    H2638016   3.468   5.379   2.193 -2.1250 -0.4623 -0.9193
  146MOL    H2738017   3.544   5.441   2.051  1.2001  0.0486 -0.2279
  146MOL    C2838018   3.626   5.243   2.129 -0.1847  0.6319  0.2535
  146MOL    C2938019   3.588   5.135   2.230 -0.6609  0.0217  0.0855
  146MOL    C3038020   3.542   5.164   2.378  0.7545 -1.1361  0.5881
  146MOL    C3138021   3.450   5.103   2.287  0.1345  0.2708  0.2606
  146MOL    C3238022   3.755   5.328   2.169 -0.9352  0.2157 -0.7318
  146MOL    H3338023   3.657   5.199   2.033  2.6338  0.3179  1.2426
  146MOL    H3438024   3.654   5.048   2.219 -0.9779 -0.4303  1.5471
  146MOL    H3538025   3.535   5.271   2.396 -0.3472 -0.9747 -0.6598
  146MOL    H3638026   3.590   5.117   2.463  2.3900  0.4498  0.5691
  146MOL    H3738027   3.373   5.168   2.245  0.1006  0.5271  0.7138
  146MOL    H3838028   3.421   5.000   2.306  1.7367  0.0301  1.4833
  146MOL    H3938029   3.729   5.372   2.266 -0.8935  0.6587 -0.9222
  146MOL    H4038030   3.784   5.406   2.099  0.5065 -1.2793 -1.8442
  146MOL    C4138031   3.886   5.243   2.183 -0.3026 -0.1023 -0.3593
  146MOL    C4238032   3.986   5.321   2.264  0.1489  0.5672  0.3573
  146MOL    C4338033   4.086   5.257   2.354 -0.1525  0.5959 -0.0658
  146MOL    C4438034   3.969   5.325   2.417 -0.2847  0.3483 -0.0068
  146MOL    C4538035   3.942   5.213   2.044 -0.6278  0.0439 -0.1693
  146MOL    H4638036   3.865   5.153   2.241 -1.4617  0.2626 -0.1894
  146MOL    H4738037   4.019   5.417   2.223  1.1973  0.0552 -0.0141
  146MOL    H4838038   4.089   5.148   2.353  0.8597  0.6280 -1.3939
  146MOL    H4938039   4.180   5.308   2.375  1.3670 -1.1674 -2.2701
  146MOL    H5038040   3.992   5.420   2.464 -0.1239 -0.3197  1.2899
  146MOL    H5138041   3.892   5.262   2.460  0.1904  0.1205  0.5151
  146MOL    H5238042   4.000   5.299   2.010  1.6412  0.0235  3.4122
  146MOL    H5338043   3.859   5.194   1.977 -2.3347  2.1443  1.2767
  146MOL    C5438044   4.041   5.092   2.044 -0.1416 -0.2708 -0.3742
  146MOL    C5538045   3.969   4.965   2.084  0.2451  0.0497  0.1254
  146MOL    C5638046   4.002   4.890   2.213  1.1109 -0.4641 -0.4637
  146MOL    C5738047   4.043   4.834   2.082  0.4656  0.3866 -0.1080
  146MOL    C5838048   4.102   5.081   1.899 -0.0165 -0.3722 -0.1493
  146MOL    H5938049   4.118   5.116   2.118 -0.9345 -2.8355  1.3396
  146MOL    H6038050   3.866   4.953   2.053  1.5950 -4.6658 -3.1195
  146MOL    H6138051   4.077   4.931   2.281  0.1316 -1.3959  1.2065
  146MOL    H6238052   3.922   4.836   2.263  0.9017  1.1806  1.0530
  146MOL    H6338053   3.982   4.750   2.051  2.1262 -0.4607 -1.1476
  146MOL    H6438054   4.150   4.828   2.065  0.4892  0.1554  0.1208
  146MOL    H6538055   4.142   4.981   1.888 -2.2324 -1.3893  0.7519
  146MOL    H6638056   4.017   5.089   1.832  0.0035 -2.6972 -0.4778
  146MOL    C6738057   4.213   5.186   1.864 -0.4937 -0.1613  0.4269
  146MOL    C6838058   4.340   5.173   1.950 -0.2170  0.2091  0.1702
  146MOL    C6938059   4.435   5.297   1.967 -0.3136  0.2265  0.3471
  146MOL    C7038060   4.353   5.242   2.082 -0.5560  0.2658  0.2411
  146MOL    C7138061   4.252   5.163   1.710 -0.0428 -0.2044  0.4813
  146MOL    H7238062   4.176   5.286   1.887  0.2354  0.1674  0.1856
  146MOL    H7338063   4.378   5.071   1.956 -1.6309 -0.3252  0.1837
  146MOL    H7438064   4.541   5.281   1.982 -0.3014 -0.1963 -0.1535
  146MOL    H7538065   4.409   5.386   1.910  1.1764  0.2931 -0.2458
  146MOL    H7638066   4.260   5.293   2.106 -1.0981 -0.1622 -0.9082
  146MOL    H7738067   4.403   5.184   2.159 -1.2624 -0.5030  0.1327
  146MOL    H7838068   4.296   5.065   1.694  0.4933  0.0612  0.3337
  146MOL    H7938069   4.331   5.232   1.681 -2.1075  0.9711 -2.6078
  146MOL    C8038070   4.130   5.195   1.611  0.3243  0.1682  0.5518
  146MOL    C8138071   4.112   5.071   1.519 -0.3154 -0.3092  0.2594
  146MOL    C8238072   3.990   5.044   1.447  0.4866  0.0703 -0.1424
  146MOL    C8338073   4.041   4.951   1.560 -0.7682  0.3259 -0.2271
  146MOL    C8438074   4.161   5.314   1.524  0.3246  0.3094  0.3202
  146MOL    H8538075   4.030   5.204   1.654 -0.6809 -0.7815 -1.5007
  146MOL    H8638076   4.208   5.051   1.471 -0.1430  0.9256  0.0845
  146MOL    H8738077   4.011   5.020   1.343 -0.6576  0.9522 -0.5912
  146MOL    H8838078   3.896   5.096   1.466  1.7659  2.1812  0.4438
  146MOL    H8938079   3.985   4.949   1.653 -0.5532 -1.1011 -0.1142
  146MOL    H9038080   4.083   4.854   1.534 -1.5018 -0.5945  1.9025
  146MOL    H9138081   4.263   5.303   1.487  0.5585  0.7600  0.8307
  146MOL    H9238082   4.093   5.314   1.438 -0.8624  0.2928  1.2534
  146MOL    C9338083   4.155   5.448   1.603 -0.7164 -0.3820  0.5127
  146MOL    C9438084   4.197   5.556   1.507  0.0139  0.0502  1.1762
  146MOL    C9538085   4.303   5.666   1.539 -0.2040 -0.1372  0.0177
  146MOL    C9638086   4.324   5.553   1.430  0.0756 -0.0475  0.2840
  146MOL    C9738087   4.027   5.480   1.673  0.3115 -0.2322  0.6848
  146MOL    H9838088   4.243   5.444   1.667  1.4336  1.2853 -2.1985
  146MOL    H9938089   4.116   5.593   1.444 -1.4743 -2.9383  1.2413
  146MOL   H10038090   4.283   5.768   1.506  1.8965  0.1945 -0.2741
  146MOL   H10138091   4.383   5.653   1.612  0.4732  0.8751 -0.5200
  146MOL   H10238092   4.334   5.587   1.327  1.0810 -1.0261  0.0470
  146MOL   H10338093   4.404   5.481   1.446  2.5386  2.5777 -0.0362
  146MOL   H10438094   4.019   5.416   1.761 -0.0391 -0.6116  0.3793
  146MOL   H10538095   3.953   5.440   1.603  1.7606 -0.8954 -0.4928
  146MOL   C10638096   4.000   5.622   1.740 -0.1112 -0.0082 -0.2132
  146MOL   C10738097   3.856   5.634   1.785 -0.4675  0.3215 -0.5134
  146MOL   C10838098   3.743   5.564   1.721  0.0732  0.2977  0.3456
  146MOL   C10938099   3.776   5.528   1.857  0.3613 -0.0256 -0.2248
  146MOL   C11038100   4.100   5.645   1.859 -0.1871  0.4285 -0.0595
  146MOL   H11138101   4.020   5.693   1.660  0.2288 -0.3728 -0.4555
  146MOL   H11238102   3.830   5.735   1.812 -0.8997 -0.3462  1.6770
  146MOL   H11338103   3.650   5.616   1.698  0.2752  0.5902  0.1814
  146MOL   H11438104   3.759   5.479   1.656 -2.1659 -0.0713  0.2453
  146MOL   H11538105   3.813   5.426   1.868  4.9211  1.6112  0.4336
  146MOL   H11638106   3.694   5.548   1.926  0.7810 -1.4563  0.7093
  146MOL   H11738107   4.090   5.565   1.932 -2.2773  0.1651 -0.6154
  146MOL   H11838108   4.200   5.631   1.819 -0.1611  1.4007 -0.3608
  146MOL   C11938109   4.098   5.786   1.921 -0.2864  0.1307  0.0077
  146MOL   C12038110   4.113   5.905   1.825 -0.8958 -0.0695 -0.2705
  146MOL   C12138111   4.253   5.939   1.768 -0.1954  0.5908  0.2502
  146MOL   C12238112   4.184   6.032   1.864  0.4553  0.2930  0.3185
  146MOL   C12338113   3.985   5.803   2.023  0.1153 -0.2070 -0.0033
  146MOL   H12438114   4.185   5.779   1.987 -1.0528 -0.1661  1.0123
  146MOL   H12538115   4.033   5.921   1.752 -0.3060  0.8397 -0.7377
  146MOL   H12638116   4.252   5.971   1.664  0.6660 -0.6165 -0.1244
  146MOL   H12738117   4.338   5.881   1.802 -1.5341 -0.5616  1.6924
  146MOL   H12838118   4.219   6.047   1.966  0.6701  0.4700  0.2194
  146MOL   H12938119   4.144   6.125   1.823 -0.0643 -0.5726 -1.1613
  146MOL   H13038120   3.919   5.875   1.974 -0.3240  1.5937  3.1106
  146MOL   H13138121   3.932   5.710   2.043 -0.9129  0.6208  1.1711
  146MOL   C13238122   4.022   5.848   2.169  0.4169 -0.8139  0.7593
  146MOL   C13338123   4.134   5.771   2.231  0.2452  0.2403  0.1155
  146MOL   C13438124   4.210   5.806   2.367 -0.0850 -0.3751  0.2682
  146MOL   C13538125   4.274   5.820   2.235 -0.5115  0.4708  0.1231
  146MOL   C13638126   3.891   5.821   2.249  1.3453 -0.7842 -0.6148
  146MOL   H13738127   4.053   5.951   2.156  0.7963 -0.9100  0.8901
  146MOL   H13838128   4.118   5.667   2.205  2.1324 -0.0239 -0.0540
  146MOL   H13938129   4.183   5.901   2.413  2.0436  0.1791  0.3994
  146MOL   H14038130   4.221   5.721   2.433  2.0425  0.1437  0.6316
  146MOL   H14138131   4.294   5.919   2.194 -0.1701 -1.0080 -3.5609
  146MOL   H14238132   4.349   5.743   2.217 -1.0550 -0.7092  2.6825
  146MOL   H14338133   3.874   5.717   2.277  0.3051  0.0902  2.1953
  146MOL   H14438134   3.919   5.859   2.348  1.4917 -2.1115 -0.1468
  146MOL   C14538135   3.756   5.892   2.209  0.1434  0.4183 -0.2905
  146MOL   C14638136   3.782   6.038   2.188  0.4322  0.1384 -0.0182
  146MOL   C14738137   3.682   6.151   2.234  0.5138  0.9631 -0.0861
  146MOL   C14838138   3.811   6.126   2.309 -0.3140 -0.6042  0.5280
  146MOL   C14938139   3.669   5.815   2.107  0.4129  0.0687  0.6714
  146MOL   H15038140   3.694   5.885   2.298 -2.0036  0.9832 -1.7046
  146MOL   H15138141   3.852   6.060   2.107 -0.3681  0.7388 -0.5450
  146MOL   H15238142   3.663   6.227   2.159 -0.2460 -1.1647 -2.0875
  146MOL   H15338143   3.589   6.124   2.284  1.3352  1.5035  1.8203
  146MOL   H15438144   3.811   6.083   2.408 -0.4511  0.7884  1.1430
  146MOL   H15538145   3.884   6.204   2.288 -0.6559 -0.6967 -1.1485
  146MOL   H15638146   3.705   5.824   2.004 -0.4314  0.6138  0.4225
  146MOL   H15738147   3.682   5.708   2.125 -1.1608 -0.1354  0.6017
  146MOL   C15838148   3.520   5.848   2.104 -0.5482  0.5358  0.1751
  146MOL   C15938149   3.440   5.770   2.210  0.0758 -0.0634 -0.0812
  146MOL   C16038150   3.406   5.808   2.358 -0.1319  0.3480  0.4074
  146MOL   C16138151   3.298   5.811   2.252  0.7407  0.2336 -0.1397
  146MOL   C16238152   3.448   5.813   1.962 -0.3671  0.4500  0.2259
  146MOL   H16338153   3.501   5.954   2.115 -1.4405  0.3472  0.4834
  146MOL   H16438154   3.452   5.664   2.190 -1.6071 -0.1949 -0.4313
  146MOL   H16538155   3.442   5.902   2.401 -0.0362  0.7705 -0.5861
  146MOL   H16638156   3.413   5.728   2.431 -0.9250 -0.7910 -0.7519
  146MOL   H16738157   3.217   5.741   2.269  0.5024  0.7587  0.9029
  146MOL   H16838158   3.263   5.911   2.226  0.0129 -0.6403 -2.6631
  146MOL   H16938159   3.341   5.824   1.977  0.0834  4.1342  1.3517
  146MOL   H17038160   3.470   5.710   1.937  0.0053  0.1069  1.8904
  146MOL   C17138161   3.470   5.897   1.834 -0.0333  0.0974  0.7918
  146MOL   C17238162   3.361   5.869   1.735 -0.0140  0.2879  0.5167
  146MOL   C17338163   3.384   5.873   1.587 -0.0437 -0.6842  0.2725
  146MOL   C17438164   3.359   5.735   1.656  0.5714  0.6602 -0.3213
  146MOL   C17538165   3.488   6.049   1.863 -0.4586  0.0857 -0.2127
  146MOL   H17638166   3.565   5.856   1.797 -0.3347 -0.6309  0.8075
  146MOL   H17738167   3.264   5.902   1.773 -0.7423 -0.5210 -0.6329
  146MOL   H17838168   3.308   5.938   1.544  0.5079  0.5857  1.2046
  146MOL   H17938169   3.483   5.882   1.543 -0.6535  1.0378 -0.7798
  146MOL   H18038170   3.432   5.663   1.692  0.0363  0.3818  0.2274
  146MOL   H18138171   3.258   5.695   1.648  0.4678  1.5324 -4.0139
  146MOL   H18238172   3.544   6.082   1.951 -2.1280  0.0473  0.9008
  146MOL   H18338173   3.389   6.089   1.884  0.3817  1.8637  0.4361
  146MOL   C18438174   3.556   6.118   1.738  0.4635 -0.6028 -1.0472
  146MOL   C18538175   3.697   6.160   1.781 -0.1649  0.3700  0.3066
  146MOL   C18638176   3.808   6.183   1.682  0.7054 -0.3167 -0.1616
  146MOL   C18738177   3.817   6.069   1.783 -0.0682  0.2027  0.7427
  146MOL   C18838178   3.479   6.239   1.688 -0.1767  0.4708  0.1582
  146MOL   H18938179   3.564   6.038   1.665 -1.9023 -0.3129 -1.6298
  146MOL   H19038180   3.686   6.234   1.860  1.4368 -0.4532  1.3306
  146MOL   H19138181   3.862   6.276   1.696 -3.3160  2.0875  0.3585
  146MOL   H19238182   3.806   6.144   1.580  0.2366 -1.4198  0.2622
  146MOL   H19338183   3.889   6.073   1.865  2.1858  0.3228 -1.1715
  146MOL   H19438184   3.804   5.968   1.745  0.4748 -0.6042  2.6435
  146MOL   H19538185   3.504   6.328   1.746 -1.5088  0.7628  0.2905
  146MOL   H19638186   3.371   6.227   1.690 -0.1896  0.4673 -0.3717
  146MOL   C19738187   3.511   6.274   1.538  0.2593 -1.1519  0.2978
  146MOL   C19838188   3.478   6.418   1.514  0.1598 -0.1304 -0.2156
  146MOL   C19938189   3.556   6.519   1.428  0.5961  0.7329  0.8928
  146MOL   C20038190   3.551   6.525   1.579 -0.4363 -0.0545  0.4609
  146MOL   C20138191   3.446   6.185   1.436  0.3392  0.2462 -0.0753
  146MOL   H20238192   3.619   6.272   1.524  0.5459  2.5401  1.5482
  146MOL   H20338193   3.371   6.435   1.523  0.0966 -0.8799  0.4662
  146MOL   H20438194   3.655   6.494   1.392 -0.3924 -3.0773  0.5460
  146MOL   H20538195   3.484   6.573   1.366 -0.3871  0.0701  1.4258
  146MOL   H20638196   3.646   6.506   1.630  0.2876  0.7831 -0.5683
  146MOL   H20738197   3.494   6.608   1.620  0.4440  0.7511  0.0712
  146MOL   H20838198   3.469   6.081   1.456  0.7269  0.2756 -0.3414
  146MOL   H20938199   3.339   6.205   1.435  0.5872  1.9319 -3.8171
  146MOL   C21038200   3.486   6.206   1.289 -0.3903 -0.5859  0.0173
  146MOL   C21138201   3.606   6.124   1.253  0.0241 -0.1802  0.0388
  146MOL   C21238202   3.677   6.161   1.123  0.8058  0.0391  0.3960
  146MOL   C21338203   3.746   6.169   1.258  0.3068 -0.2132  0.5994
  146MOL   C21438204   3.368   6.170   1.201  0.8204  0.5672  0.3310
  146MOL   H21538205   3.510   6.309   1.262  1.7784 -1.4430 -1.5413
  146MOL   H21638206   3.590   6.017   1.265 -0.5153 -0.2175 -0.9283
  146MOL   H21738207   3.695   6.079   1.054 -0.1121  0.6535 -0.6062
  146MOL   H21838208   3.645   6.248   1.065  1.4006 -1.0288 -1.5522
  146MOL   H21938209   3.831   6.107   1.286  1.1001  0.8069  0.4985
  146MOL   H22038210   3.756   6.266   1.306  1.0185 -0.5052  1.0559
  146MOL   H22138211   3.387   6.145   1.097  1.7470 -2.1712  1.1218
  146MOL   H22238212   3.320   6.083   1.244 -1.2908  1.6097  0.1444
  146MOL   C22338213   3.248   6.274   1.201 -0.2378  0.5230  0.4549
  146MOL   C22438214   3.123   6.207   1.133 -0.8130 -0.5353  0.2340
  146MOL   C22538215   3.017   6.118   1.192 -0.0482  0.1792  0.5125
  146MOL   C22638216   2.981   6.265   1.165 -0.1767  0.2524  0.4507
  146MOL   C22738217   3.292   6.407   1.133 -0.1175  0.4667 -0.2192
  146MOL   H22838218   3.219   6.305   1.302 -2.6155  0.4512 -0.1956
  146MOL   H22938219   3.146   6.184   1.029 -4.8014  2.2811 -1.4054
  146MOL   H23038220   3.019   6.101   1.299  2.0843 -1.1375  0.2964
  146MOL   H23138221   2.971   6.042   1.129  0.5224  0.1709  0.0996
  146MOL   H23238222   2.918   6.293   1.081 -1.1424 -1.9619  0.3790
  146MOL   H23338223   2.968   6.321   1.258 -0.3255  3.2185 -1.3049
  146MOL   H23438224   3.354   6.455   1.208 -0.5965 -1.1901  1.2967
  146MOL   H23538225   3.358   6.392   1.048  0.4115 -1.2099  0.4630
  146MOL   C23638226   3.186   6.510   1.097 -0.2585 -0.4329 -0.2658
  146MOL   C23738227   3.247   6.599   0.990  0.9369  0.0893 -0.0072
  146MOL   C23838228   3.258   6.545   0.846 -0.1098  0.4159 -0.3934
  146MOL   C23938229   3.160   6.656   0.880 -1.0303 -0.4857  0.9292
  146MOL   C24038230   3.146   6.604   1.208  0.4608  0.3578 -0.0761
  146MOL   H24138231   3.098   6.461   1.055 -0.9290  0.6698 -0.1410
  146MOL   H24238232   3.336   6.651   1.025  0.9163  0.8408 -1.0593
  146MOL   H24338233   3.355   6.582   0.814  0.0348  1.9071  1.7027
  146MOL   H24438234   3.228   6.441   0.831 -0.8076  0.6061 -0.3079
  146MOL   H24538235   3.054   6.633   0.879 -0.9375 -0.9147  0.3488
  146MOL   H24638236   3.192   6.753   0.843  0.7740 -0.8932  1.3362
  146MOL   H24738237   3.139   6.541   1.297  1.9545  0.5918  0.2126
  146MOL   H24838238   3.221   6.681   1.224  1.4918 -0.1753 -2.1658
  146MOL   C24938239   3.015   6.677   1.190 -0.6702  0.0944  0.2155
  146MOL   C25038240   2.993   6.779   1.293 -0.0767  0.2632 -0.8740
  146MOL   C25138241   3.041   6.921   1.265 -0.1207 -0.1687 -0.5790
  146MOL   C25238242   2.889   6.893   1.275  0.2902  0.9767  0.7494
  146MOL   C25338243   2.888   6.587   1.167 -0.2035 -0.6953  0.3269
  146MOL   H25438244   3.027   6.731   1.096 -0.0161 -0.6309 -0.1235
  146MOL   H25538245   3.016   6.735   1.390  1.0691  0.1536 -1.1903
  146MOL   H25638246   3.076   6.981   1.349 -0.1103 -1.1213  0.1069
  146MOL   H25738247   3.086   6.948   1.170  2.6096  0.0334  0.7139
  146MOL   H25838248   2.836   6.919   1.366  0.3793  0.7779  0.8593
  146MOL   H25938249   2.837   6.911   1.182 -0.6011  1.8648  1.4047
  146MOL   H26038250   2.890   6.525   1.078  0.2917 -2.1537  1.3246
  146MOL   H26138251   2.789   6.633   1.174 -0.8818 -2.2508  1.5348
  146MOL   H26238252   2.875   6.508   1.242  1.4802  0.8035  2.2346
  147MOL     C138253   3.728   5.034   4.419 -0.0299  0.8320 -0.9199
  147MOL     C238254   3.815   4.957   4.516  0.3448  0.3653  0.6175
  147MOL     C338255   3.840   5.014   4.655 -0.0588  0.0666 -0.0024
  147MOL     C438256   3.953   4.999   4.553  0.4559  0.4663  0.4324
  147MOL     C538257   3.773   5.043   4.272  0.0397  0.7142  0.2447
  147MOL     H638258   3.629   4.988   4.420  0.0849  0.5701 -1.1822
  147MOL     H738259   3.808   4.849   4.506 -2.3163  0.5251  0.3207
  147MOL     H838260   3.799   5.112   4.682 -0.6131 -0.1413 -0.0808
  147MOL     H938261   3.827   4.947   4.740 -0.6683  1.3074  0.9046
  147MOL    H1038262   4.030   4.922   4.541  0.7295  1.0471 -1.7373
  147MOL    H1138263   3.987   5.095   4.515 -2.1249  1.3200  0.2193
  147MOL    H1238264   3.802   4.942   4.244 -0.4238  0.1012  1.8887
  147MOL    H1338265   3.856   5.112   4.260  0.2549  0.3959 -0.1150
  147MOL    H1438266   3.721   5.139   4.446 -0.0190  0.1155  2.0249
  147MOL    C1538267   3.669   5.094   4.172  0.4053  0.1081 -0.3865
  147MOL    C1638268   3.616   5.231   4.209  0.0079 -0.5839 -0.3819
  147MOL    C1738269   3.494   5.240   4.296 -0.5009  0.4941  0.3223
  147MOL    C1838270   3.495   5.277   4.143 -0.2795 -0.6713  0.2990
  147MOL    C1938271   3.726   5.101   4.030  0.0672 -0.0307  0.0239
  147MOL    H2038272   3.585   5.024   4.178 -1.9068  2.6679 -1.8007
  147MOL    H2138273   3.688   5.311   4.226  0.9796 -1.3322 -0.9381
  147MOL    H2238274   3.455   5.323   4.354 -0.0170  1.3699 -0.5986
  147MOL    H2338275   3.433   5.153   4.319  1.5077 -1.3425 -1.1573
  147MOL    H2438276   3.448   5.202   4.080 -1.2280  0.1091  0.0447
  147MOL    H2538277   3.479   5.378   4.105 -0.8671 -0.3923  1.2593
  147MOL    H2638278   3.792   5.188   4.026  1.5182 -1.0531  1.0401
  147MOL    H2738279   3.646   5.127   3.960 -0.7994 -1.6877  0.3881
  147MOL    C2838280   3.797   4.984   3.960  0.0924 -0.7035 -0.1441
  147MOL    C2938281   3.844   5.032   3.821 -0.1100  0.2126 -0.1835
  147MOL    C3038282   3.962   5.125   3.813 -0.3566 -0.4228  0.2075
  147MOL    C3138283   3.970   4.982   3.754  0.0519 -0.0892 -0.3070
  147MOL    C3238284   3.702   4.867   3.947  0.2372  0.2822 -0.1318
  147MOL    H3338285   3.893   4.965   4.008  0.7761 -0.1889 -1.3031
  147MOL    H3438286   3.764   5.075   3.760  2.2967  0.5665 -3.2275
  147MOL    H3538287   4.005   5.147   3.910 -2.5939 -0.8089  1.3252
  147MOL    H3638288   3.945   5.204   3.740 -1.4163  0.2298  1.1343
  147MOL    H3738289   4.023   4.903   3.807 -1.8927  0.3018  2.3177
  147MOL    H3838290   3.961   4.964   3.647 -2.3615  2.1649 -0.5396
  147MOL    H3938291   3.638   4.883   3.861 -0.9198 -0.1442  0.6332
  147MOL    H4038292   3.637   4.855   4.034  0.4368  0.9851  0.1164
  147MOL    C4138293   3.777   4.734   3.928 -0.7969  0.1137 -0.1392
  147MOL    C4238294   3.678   4.636   3.870  0.4254  0.6355  0.4979
  147MOL    C4338295   3.708   4.535   3.762 -0.2722 -0.1771 -0.2247
  147MOL    C4438296   3.630   4.655   3.735  0.0246 -0.5173  0.5554
  147MOL    C4538297   3.824   4.676   4.065  0.0258  0.1040 -0.0581
  147MOL    H4638298   3.866   4.740   3.865 -3.0645  1.4541 -3.3535
  147MOL    H4738299   3.602   4.601   3.940  2.5037  1.0594  3.0514
  147MOL    H4838300   3.810   4.530   3.725  0.3158  0.7189  1.2157
  147MOL    H4938301   3.658   4.440   3.778  0.5025 -1.1624 -3.3539
  147MOL    H5038302   3.522   4.644   3.729 -0.4170  2.5409  1.5767
  147MOL    H5138303   3.674   4.732   3.671 -0.2266  0.4013  1.4852
  147MOL    H5238304   3.740   4.624   4.110  0.6426 -0.7527  0.1027
  147MOL    H5338305   3.850   4.761   4.128 -0.0937  0.5591 -0.6170
  147MOL    C5438306   3.953   4.579   4.046  0.2979 -0.1401  0.1758
  147MOL    C5538307   4.077   4.657   3.998  0.4351  0.9089 -0.2366
  147MOL    C5638308   4.144   4.613   3.869 -0.0340  0.0320  0.4251
  147MOL    C5738309   4.215   4.585   4.000  0.8605  0.9438 -0.8275
  147MOL    C5838310   3.982   4.523   4.186  0.2223 -0.7139  0.4915
  147MOL    H5938311   3.919   4.507   3.971  1.3552  0.6801 -1.1059
  147MOL    H6038312   4.085   4.755   4.044 -0.0315  0.7376  0.2173
  147MOL    H6138313   4.104   4.529   3.814  0.5199 -0.4949  0.8210
  147MOL    H6238314   4.193   4.688   3.806  0.9705 -0.8706  0.1175
  147MOL    H6338315   4.304   4.647   4.014  1.5137 -0.0147 -0.6669
  147MOL    H6438316   4.218   4.479   4.025 -1.7895  0.6642 -1.5945
  147MOL    H6538317   4.089   4.511   4.205  0.4654 -1.0147 -1.0028
  147MOL    H6638318   3.946   4.595   4.260  1.2234 -1.0987  1.3682
  147MOL    C6738319   3.929   4.377   4.210  0.3316 -0.5398  0.9133
  147MOL    C6838320   3.983   4.281   4.102 -0.1764 -0.2329  0.6442
  147MOL    C6938321   3.919   4.145   4.081 -0.4386 -0.8167 -0.1573
  147MOL    C7038322   3.901   4.251   3.971  0.1438  0.7572 -0.4610
  147MOL    C7138323   3.968   4.313   4.344  0.1327  0.7769 -0.3487
  147MOL    H7238324   3.821   4.383   4.202  0.4331  2.0248  1.1420
  147MOL    H7338325   4.092   4.283   4.092  0.1636 -0.8781  3.5738
  147MOL    H7438326   3.969   4.051   4.058  0.3929 -0.7059  1.1545
  147MOL    H7538327   3.831   4.125   4.143 -0.1885  0.8672  0.7676
  147MOL    H7638328   3.802   4.295   3.967 -0.9477 -1.2203  2.5779
  147MOL    H7738329   3.943   4.213   3.878 -1.2861  1.3280 -1.3572
  147MOL    H7838330   4.077   4.313   4.356  0.3121  2.1448 -1.7433
  147MOL    H7938331   3.941   4.208   4.352  2.0255  0.3071  0.3099
  147MOL    C8038332   3.892   4.389   4.462  0.0841 -0.0480  0.2711
  147MOL    C8138333   3.990   4.470   4.553 -0.1846 -0.0465  0.2118
  147MOL    C8238334   3.942   4.586   4.634  0.2274  0.2964  0.1166
  147MOL    C8338335   4.037   4.610   4.512  0.3395  0.1938  0.1203
  147MOL    C8438336   3.813   4.293   4.558  0.0601  1.3643 -0.5215
  147MOL    H8538337   3.819   4.455   4.415  1.0335 -0.6151 -2.0653
  147MOL    H8638338   4.064   4.412   4.608 -0.6520  0.2437  1.1490
  147MOL    H8738339   3.991   4.607   4.729  1.1945 -0.5443 -0.1791
  147MOL    H8838340   3.842   4.625   4.621  0.4927  0.6804 -0.8462
  147MOL    H8938341   3.993   4.672   4.435  4.4135  1.0083 -1.7199
  147MOL    H9038342   4.142   4.628   4.535 -0.3859  0.4375  3.5087
  147MOL    H9138343   3.885   4.218   4.590 -0.2771  0.6499 -1.3989
  147MOL    H9238344   3.784   4.346   4.648  2.5378 -0.6788  1.5418
  147MOL    C9338345   3.694   4.222   4.492  0.1316  1.0329  0.3010
  147MOL    C9438346   3.639   4.102   4.579 -0.5796 -0.1934 -0.2164
  147MOL    C9538347   3.564   3.983   4.508  0.6853  0.1439 -0.2901
  147MOL    C9638348   3.696   3.966   4.583 -0.2647 -0.5418  0.2194
  147MOL    C9738349   3.580   4.313   4.440 -0.5854  0.0366 -0.2493
  147MOL    H9838350   3.733   4.165   4.408 -0.2569  0.6932  0.3460
  147MOL    H9938351   3.583   4.142   4.664  0.8866  0.1871  0.5792
  147MOL   H10038352   3.482   3.937   4.561  0.9593 -0.3223 -0.2659
  147MOL   H10138353   3.576   3.958   4.403  2.3317 -0.0517 -0.0695
  147MOL   H10238354   3.701   3.930   4.686  1.2706  0.0071  0.3477
  147MOL   H10338355   3.790   3.954   4.529 -0.1681  1.6236 -0.1647
  147MOL   H10438356   3.494   4.249   4.417 -0.7037  0.5484 -1.2197
  147MOL   H10538357   3.617   4.342   4.342  2.0451 -0.9721  0.3888
  147MOL   C10638358   3.535   4.444   4.519  0.0224  0.4027 -0.0933
  147MOL   C10738359   3.457   4.527   4.423  0.2762 -0.0631  0.4893
  147MOL   C10838360   3.467   4.678   4.418 -0.0878 -0.0728  0.0471
  147MOL   C10938361   3.516   4.598   4.298 -0.0915 -0.3964  0.3843
  147MOL   C11038362   3.471   4.420   4.663 -0.5394 -0.7309  0.2735
  147MOL   H11138363   3.625   4.501   4.542  1.4101 -1.5936 -0.4322
  147MOL   H11238364   3.354   4.494   4.412  0.4788  0.1756 -2.4009
  147MOL   H11338365   3.384   4.746   4.402  0.2176  0.5174  0.9060
  147MOL   H11438366   3.550   4.716   4.477  0.1319 -2.6428  1.4332
  147MOL   H11538367   3.624   4.588   4.286  0.1616  1.8464  0.5321
  147MOL   H11638368   3.448   4.598   4.213  0.8140 -2.3866 -0.3502
  147MOL   H11738369   3.398   4.340   4.652  0.3748 -1.3967 -0.9813
  147MOL   H11838370   3.543   4.373   4.730 -0.8907 -0.6876  0.6896
  147MOL   C11938371   3.407   4.539   4.734 -0.4273 -0.0730  0.1380
  147MOL   C12038372   3.317   4.483   4.848  0.3595 -0.2115  0.1411
  147MOL   C12138373   3.180   4.421   4.827 -0.3774  0.0586  0.6387
  147MOL   C12238374   3.194   4.557   4.891  0.1273 -0.1431  0.1634
  147MOL   C12338375   3.524   4.622   4.800  0.0351 -0.2304 -0.4542
  147MOL   H12438376   3.352   4.602   4.664 -1.2359 -0.0679  0.7764
  147MOL   H12538377   3.374   4.445   4.933  1.4106 -1.8647 -1.2724
  147MOL   H12638378   3.137   4.343   4.891 -2.4111  0.6514  0.0422
  147MOL   H12738379   3.154   4.406   4.722 -1.3007  2.1423  0.5492
  147MOL   H12838380   3.176   4.652   4.839 -1.0368  0.6350  1.9638
  147MOL   H12938381   3.169   4.560   4.996 -1.5398 -1.6742 -0.1730
  147MOL   H13038382   3.560   4.562   4.883 -2.4402 -1.8973 -0.5340
  147MOL   H13138383   3.606   4.612   4.729  0.2654 -2.3484  0.0889
  147MOL   C13238384   3.504   4.767   4.859 -0.3186  0.7149 -0.1945
  147MOL   C13338385   3.491   4.863   4.746 -0.0405 -0.1416 -0.5830
  147MOL   C13438386   3.466   5.011   4.762  0.4135 -0.3702  0.7972
  147MOL   C13538387   3.357   4.930   4.712 -0.3925 -0.5506 -0.0551
  147MOL   C13638388   3.623   4.807   4.960  0.7429 -0.6893 -0.0811
  147MOL   H13738389   3.411   4.765   4.916  0.6055 -1.5880  1.2743
  147MOL   H13838390   3.548   4.843   4.655 -0.4456  0.8468 -1.0637
  147MOL   H13938391   3.454   5.053   4.861  1.5148  0.0165  0.7798
  147MOL   H14038392   3.497   5.090   4.693  1.6242  0.7895  2.6264
  147MOL   H14138393   3.268   4.923   4.774 -1.7461  0.8094 -1.8113
  147MOL   H14238394   3.342   4.939   4.605 -0.3165  2.8522  0.1766
  147MOL   H14338395   3.721   4.805   4.912  1.1024 -0.4996  0.6253
  147MOL   H14438396   3.618   4.913   4.984 -1.9744 -0.9418  0.6762
  147MOL   C14538397   3.620   4.737   5.092 -0.6767  0.7638  0.8065
  147MOL   C14638398   3.750   4.762   5.165  0.7679 -0.5135  0.6843
  147MOL   C14738399   3.840   4.649   5.210 -0.1356 -0.0876  0.1355
  147MOL   C14838400   3.887   4.742   5.111 -0.3303 -0.1456  0.4904
  147MOL   C14938401   3.494   4.788   5.185 -0.0797 -0.1618 -0.5375
  147MOL   H15038402   3.608   4.628   5.087 -0.6423  0.7606  0.7938
  147MOL   H15138403   3.736   4.844   5.234  1.8795  0.6975 -0.4870
  147MOL   H15238404   3.880   4.658   5.311 -3.3260 -1.7203  1.5987
  147MOL   H15338405   3.805   4.550   5.183  0.7191  0.0500 -1.4871
  147MOL   H15438406   3.884   4.710   5.007 -1.9543 -0.8434  0.7269
  147MOL   H15538407   3.958   4.816   5.149 -1.9490  0.8526  1.6704
  147MOL   H15638408   3.522   4.859   5.263  1.6163 -1.3398 -0.0339
  147MOL   H15738409   3.429   4.844   5.118  2.2316 -0.0024 -2.7251
  147MOL   C15838410   3.424   4.670   5.261  0.1901 -0.2987 -0.3381
  147MOL   C15938411   3.284   4.716   5.322 -0.5304 -0.5939 -0.4939
  147MOL   C16038412   3.172   4.768   5.235  0.0782  0.0525  0.4123
  147MOL   C16138413   3.162   4.634   5.298  0.2799 -0.0430  0.9597
  147MOL   C16238414   3.515   4.608   5.372 -0.2086 -0.6868 -0.2254
  147MOL   H16338415   3.392   4.595   5.188  0.3558  0.1608 -0.8891
  147MOL   H16438416   3.292   4.760   5.422 -2.1365  2.2404 -1.5633
  147MOL   H16538417   3.192   4.770   5.128 -4.3983 -1.8535 -0.5665
  147MOL   H16638418   3.113   4.851   5.273 -1.4667  0.5228 -2.8776
  147MOL   H16738419   3.093   4.612   5.379  0.4273 -0.9611  0.8437
  147MOL   H16838420   3.161   4.552   5.227  2.0347 -1.7741  2.8414
  147MOL   H16938421   3.515   4.681   5.452  0.2088  0.9060 -1.6505
  147MOL   H17038422   3.616   4.598   5.333  0.7656  3.1636  1.1431
  147MOL   C17138423   3.458   4.473   5.422  0.1436 -0.2553  0.3429
  147MOL   C17238424   3.481   4.364   5.310 -0.6400  0.5604 -0.7408
  147MOL   C17338425   3.433   4.227   5.333  0.0348 -0.3662 -0.0893
  147MOL   C17438426   3.369   4.312   5.225 -0.2257  1.0574 -0.0185
  147MOL   C17538427   3.516   4.433   5.556 -0.1767  0.5329 -0.9906
  147MOL   H17638428   3.351   4.489   5.432  0.4193  0.5210  2.2299
  147MOL   H17738429   3.580   4.363   5.264  0.2340 -0.1695  1.1228
  147MOL   H17838430   3.502   4.151   5.297 -0.0181 -0.4366 -0.0450
  147MOL   H17938431   3.361   4.193   5.408 -1.0078  0.7200 -0.5761
  147MOL   H18038432   3.274   4.361   5.242 -0.9946  0.6240 -2.7161
  147MOL   H18138433   3.385   4.281   5.122 -0.1375 -0.1470  0.3497
  147MOL   H18238434   3.623   4.451   5.542 -0.0957 -0.7998 -2.1812
  147MOL   H18338435   3.516   4.327   5.579 -0.3518  0.7458  0.0149
  147MOL   C18438436   3.481   4.522   5.676 -0.5977  0.6333  0.2797
  147MOL   C18538437   3.573   4.471   5.795  0.3744  0.4134 -0.4836
  147MOL   C18638438   3.607   4.561   5.912 -0.4857  0.7317 -0.4313
  147MOL   C18738439   3.715   4.529   5.814  0.1188  0.3019 -0.7398
  147MOL   C18838440   3.330   4.504   5.713 -0.0225 -0.2022 -0.1532
  147MOL   H18938441   3.512   4.626   5.667 -0.7835  0.7722  1.2012
  147MOL   H19038442   3.578   4.365   5.820 -0.9982  0.7153  1.1843
  147MOL   H19138443   3.590   4.508   6.006  2.2718  1.6573  0.6418
  147MOL   H19238444   3.554   4.656   5.909 -3.5249 -0.9773 -2.7162
  147MOL   H19338445   3.796   4.463   5.844 -1.1507 -0.0211  2.1242
  147MOL   H19438446   3.741   4.611   5.747 -1.6347  0.4122 -1.2981
  147MOL   H19538447   3.326   4.405   5.758  1.0645 -0.4724 -0.6329
  147MOL   H19638448   3.265   4.484   5.627  2.1824  4.3877 -3.0877
  147MOL   C19738449   3.258   4.601   5.808 -0.4151 -0.2656 -0.0655
  147MOL   C19838450   3.119   4.552   5.851 -0.3664  0.1671  0.3763
  147MOL   C19938451   3.081   4.539   6.002 -0.2475 -0.3601  1.2172
  147MOL   C20038452   3.105   4.416   5.908  0.0292  0.7657  0.3198
  147MOL   C20138453   3.263   4.738   5.742  0.2702 -0.1474 -0.4783
  147MOL   H20238454   3.316   4.599   5.901  1.7121 -2.1292 -1.3953
  147MOL   H20338455   3.037   4.579   5.785 -0.0746  0.0053 -0.0531
  147MOL   H20438456   3.156   4.552   6.079  1.9623 -0.5464 -0.8471
  147MOL   H20538457   2.978   4.565   6.026 -0.6956 -1.7885  0.8811
  147MOL   H20638458   3.198   4.364   5.927 -0.9846 -1.1575  0.1542
  147MOL   H20738459   3.018   4.353   5.893  0.6386  0.1732 -0.7979
  147MOL   H20838460   3.358   4.771   5.700  0.9790 -0.2096  1.0655
  147MOL   H20938461   3.192   4.720   5.661 -2.5775 -2.5637  2.4026
  147MOL   C21038462   3.221   4.864   5.821 -0.4058  0.0590 -0.0934
  147MOL   C21138463   3.338   4.897   5.918  0.4335 -0.1773 -0.2895
  147MOL   C21238464   3.314   4.984   6.038 -0.3424  0.6600 -0.0153
  147MOL   C21338465   3.343   4.830   6.053  0.5560  0.3554  0.8045
  147MOL   C21438466   3.190   4.983   5.723 -0.6147 -0.2362  0.6052
  147MOL   H21538467   3.138   4.850   5.891  0.5478 -1.4707  0.7795
  147MOL   H21638468   3.436   4.901   5.873  0.1682  1.1282 -0.7672
  147MOL   H21738469   3.396   5.042   6.082  0.3213  0.4519 -0.9589
  147MOL   H21838470   3.213   5.022   6.052 -0.5270  0.0242  0.4019
  147MOL   H21938471   3.438   4.801   6.097 -0.1191 -0.6440  1.6197
  147MOL   H22038472   3.259   4.769   6.084  0.7072 -1.5622 -2.4326
  147MOL   H22138473   3.284   5.014   5.676 -1.6236  1.8534 -0.0915
  147MOL   H22238474   3.142   4.939   5.636  1.6236 -0.3089 -0.6307
  147MOL   C22338475   3.112   5.109   5.786  0.1038 -0.2941  0.0523
  147MOL   C22438476   2.976   5.054   5.820 -0.3933 -0.3115  0.0306
  147MOL   C22538477   2.857   5.136   5.863  0.3261 -0.2284 -0.3011
  147MOL   C22638478   2.862   5.068   5.727  0.0984 -0.2126 -0.1291
  147MOL   C22738479   3.116   5.222   5.689  0.5280  0.5069  0.2726
  147MOL   H22838480   3.160   5.141   5.879 -1.1653 -4.7062  2.4056
  147MOL   H22938481   2.980   4.959   5.874 -1.1431  0.5601  1.6550
  147MOL   H23038482   2.868   5.244   5.853 -1.6800  0.1866  1.5861
  147MOL   H23138483   2.781   5.101   5.932  0.0205 -0.8472 -0.9485
  147MOL   H23238484   2.807   4.974   5.730  0.5322 -0.4094  2.2610
  147MOL   H23338485   2.882   5.118   5.632  0.6194  0.2991  0.2428
  147MOL   H23438486   3.103   5.175   5.591  0.6022 -0.7982  0.8814
  147MOL   H23538487   3.025   5.280   5.703  0.9592  1.3152 -0.2317
  147MOL   C23638488   3.246   5.304   5.687 -0.4542 -0.0618 -0.1157
  147MOL   C23738489   3.268   5.370   5.823  0.6970  0.8023 -0.2624
  147MOL   C23838490   3.351   5.318   5.932 -0.5198 -0.4302  0.1750
  147MOL   C23938491   3.392   5.446   5.863 -0.0760 -0.0563 -0.0130
  147MOL   C24038492   3.248   5.409   5.572  0.7630 -0.3596 -0.2180
  147MOL   H24138493   3.328   5.233   5.672  0.1559 -0.0992  3.0512
  147MOL   H24238494   3.182   5.429   5.855  3.0410  1.6009  5.1502
  147MOL   H24338495   3.317   5.325   6.036  1.2938 -2.8706  0.9802
  147MOL   H24438496   3.406   5.227   5.910 -1.9486 -1.1060 -0.6507
  147MOL   H24538497   3.483   5.441   5.803  0.4787 -0.6199  0.8677
  147MOL   H24638498   3.388   5.545   5.907  1.2772  0.7518 -1.6718
  147MOL   H24738499   3.157   5.466   5.591 -0.0289 -1.7120  0.0759
  147MOL   H24838500   3.332   5.473   5.598 -0.7769  1.0039  1.5374
  147MOL   C24938501   3.249   5.365   5.422 -0.3506  0.3472  0.5592
  147MOL   C25038502   3.372   5.274   5.386  0.0515 -0.0403  0.2626
  147MOL   C25138503   3.361   5.124   5.392 -0.2742  0.4858  0.0769
  147MOL   C25238504   3.377   5.192   5.258  0.8471 -0.0142  0.5293
  147MOL   C25338505   3.238   5.479   5.324  0.0144 -0.0851 -0.1478
  147MOL   H25438506   3.158   5.308   5.402 -0.0412  0.4332 -1.1365
  147MOL   H25538507   3.466   5.317   5.420 -1.3080  1.3918  2.3505
  147MOL   H25638508   3.449   5.067   5.419  0.3650  1.2709 -0.3209
  147MOL   H25738509   3.269   5.078   5.429 -1.1872  2.3701  0.2115
  147MOL   H25838510   3.474   5.184   5.210  1.3461 -0.8472  1.6459
  147MOL   H25938511   3.282   5.190   5.207  0.1057  2.3860  1.7183
  147MOL   H26038512   3.227   5.435   5.224 -2.2079  0.6452 -0.2631
  147MOL   H26138513   3.332   5.533   5.312  0.2086 -0.5105 -0.5598
  147MOL   H26238514   3.163   5.555   5.347  0.2354 -0.1649  0.8645
  148MOL     C138515   6.271   6.393   0.733  0.3904 -0.2046 -0.1597
  148MOL     C238516   6.164   6.315   0.809 -0.0455 -0.3140  0.0201
  148MOL     C338517   6.075   6.217   0.734  0.3157 -0.7164  0.1330
  148MOL     C438518   6.017   6.345   0.778 -1.3470 -0.4792 -0.0198
  148MOL     C538519   6.395   6.307   0.698  0.0736 -0.3540  0.2697
  148MOL     H638520   6.237   6.435   0.639  2.6290 -0.8032 -1.2721
  148MOL     H738521   6.177   6.295   0.916 -0.4891  1.5186  0.4421
  148MOL     H838522   6.103   6.208   0.629 -0.7240  1.1697 -0.3343
  148MOL     H938523   6.037   6.124   0.777  0.4165 -0.8968 -0.1636
  148MOL    H1038524   5.941   6.344   0.855 -3.0202 -2.0426 -1.6444
  148MOL    H1138525   5.985   6.399   0.689 -0.7046 -0.1886 -0.0823
  148MOL    H1238526   6.374   6.202   0.677 -2.3761  0.3448 -0.9073
  148MOL    H1338527   6.436   6.269   0.792  0.3901 -1.7936 -0.4279
  148MOL    H1438528   6.308   6.477   0.792 -1.5058  0.3561  0.2705
  148MOL    C1538529   6.502   6.362   0.606  0.7435 -0.0313  0.0071
  148MOL    C1638530   6.448   6.399   0.463  0.0505 -0.9272  0.2994
  148MOL    C1738531   6.405   6.284   0.367 -0.9254 -0.0464  0.4155
  148MOL    C1838532   6.534   6.365   0.341 -0.1544 -0.1684 -0.6457
  148MOL    C1938533   6.566   6.489   0.665 -0.0799  0.6905 -0.0983
  148MOL    H2038534   6.572   6.281   0.589  0.5974 -0.2971  0.6507
  148MOL    H2138535   6.393   6.493   0.460 -1.0463 -1.4483  2.8745
  148MOL    H2238536   6.320   6.298   0.301  0.1152 -1.6612 -1.2825
  148MOL    H2338537   6.411   6.185   0.412 -0.5203  0.3335  1.2098
  148MOL    H2438538   6.627   6.310   0.350  1.5339  2.6212 -0.5912
  148MOL    H2538539   6.534   6.428   0.252 -0.1672 -0.7134 -1.0392
  148MOL    H2638540   6.587   6.456   0.766  0.8180 -2.3821 -1.2210
  148MOL    H2738541   6.501   6.576   0.673 -1.8225 -0.6566  0.8775
  148MOL    C2838542   6.696   6.527   0.596 -0.2413 -0.0015 -0.9364
  148MOL    C2938543   6.816   6.559   0.697 -0.1797  0.5543 -0.3532
  148MOL    C3038544   6.883   6.452   0.771 -0.5669  0.4014  0.2911
  148MOL    C3138545   6.960   6.523   0.660 -0.4128 -0.2166 -0.0429
  148MOL    C3238546   6.667   6.644   0.499  0.7733 -0.1064  0.5339
  148MOL    H3338547   6.724   6.436   0.543  0.3941 -0.2608 -0.1758
  148MOL    H3438548   6.794   6.645   0.760 -1.6070 -1.5298  2.1421
  148MOL    H3538549   6.847   6.351   0.750  0.1452 -0.1449  1.6041
  148MOL    H3638550   6.925   6.476   0.869  2.3474  0.7455 -0.9798
  148MOL    H3738551   6.974   6.485   0.559  1.7715  0.5392 -0.0386
  148MOL    H3838552   7.041   6.590   0.686 -1.0839  0.0785  1.3218
  148MOL    H3938553   6.639   6.725   0.566 -2.6493  0.5096 -1.5346
  148MOL    H4038554   6.589   6.618   0.428  3.2012  0.9535 -2.6588
  148MOL    C4138555   6.781   6.703   0.413  0.4210 -0.0333 -0.8852
  148MOL    C4238556   6.743   6.841   0.364 -0.1180 -0.4243  0.1920
  148MOL    C4338557   6.837   6.950   0.360 -0.1737  0.3954  0.3629
  148MOL    C4438558   6.727   6.967   0.456  0.0339  0.3476  0.1632
  148MOL    C4538559   6.810   6.612   0.296  0.0190 -0.0414  0.8496
  148MOL    H4638560   6.869   6.709   0.477 -0.9752  0.6611  1.0147
  148MOL    H4738561   6.680   6.833   0.276  1.4536  0.8785 -1.0814
  148MOL    H4838562   6.928   6.944   0.420  0.3946 -0.8613 -0.6024
  148MOL    H4938563   6.836   7.020   0.277 -0.0827  0.4619  0.4180
  148MOL    H5038564   6.655   7.042   0.425  0.7812 -0.4765 -3.7915
  148MOL    H5138565   6.747   6.951   0.562  1.6203 -1.7108 -0.4060
  148MOL    H5238566   6.720   6.602   0.236  0.6680  0.1216 -0.1525
  148MOL    H5338567   6.813   6.511   0.336  1.3635 -0.9977 -1.6184
  148MOL    C5438568   6.936   6.649   0.213 -0.0669 -0.3288 -0.2902
  148MOL    C5538569   7.055   6.600   0.290  0.1848  0.0399  0.0695
  148MOL    C5638570   7.120   6.684   0.394 -0.4565  0.2714  0.6084
  148MOL    C5738571   7.191   6.670   0.261 -0.4016  0.2862  0.0986
  148MOL    C5838572   6.934   6.580   0.075  0.1852 -0.1445 -0.9634
  148MOL    H5938573   6.954   6.756   0.210 -1.2699 -0.1637 -3.7347
  148MOL    H6038574   7.049   6.496   0.323  0.6052 -0.1863 -0.5567
  148MOL    H6138575   7.090   6.784   0.424  3.3074  2.3377 -2.1689
  148MOL    H6238576   7.164   6.627   0.476  0.5888  1.0356  0.5825
  148MOL    H6338577   7.284   6.615   0.255 -1.4446 -1.2188 -2.8036
  148MOL    H6438578   7.201   6.762   0.204 -1.5880 -0.3546 -1.1636
  148MOL    H6538579   7.037   6.575   0.039 -0.7269  0.2767 -3.7212
  148MOL    H6638580   6.896   6.478   0.078 -0.6272  0.1780  0.5501
  148MOL    C6738581   6.850   6.653   7.808 -0.0566 -0.2206 -0.5074
  148MOL    C6838582   6.895   6.802   7.799  0.3273 -0.3995  0.0397
  148MOL    C6938583   6.809   6.893   7.715  0.5028 -0.5074 -0.2125
  148MOL    C7038584   6.823   6.915   0.021  0.2627  0.0486 -0.0827
  148MOL    C7138585   6.865   6.580   7.663  0.3068 -0.0802 -0.3987
  148MOL    H7238586   6.746   6.650   0.002  0.1713  0.4566  0.2807
  148MOL    H7338587   7.002   6.818   7.795  0.1850  0.3071 -1.4989
  148MOL    H7438588   6.866   6.957   7.649  0.0133 -1.1576 -1.3026
  148MOL    H7538589   6.715   6.856   7.673  1.0550  0.8703 -2.8012
  148MOL    H7638590   6.738   6.885   0.084  1.2432  0.8657  1.6800
  148MOL    H7738591   6.873   7.006   0.053 -1.0755  0.7218  0.1496
  148MOL    H7838592   6.969   6.583   7.632  0.7751  2.8880  1.2476
  148MOL    H7938593   6.811   6.639   7.589 -2.1420 -0.8617  0.6946
  148MOL    C8038594   6.793   6.447   7.654  0.4009 -0.7029 -0.3934
  148MOL    C8138595   6.845   6.397   7.521  0.2194 -0.5817  0.2170
  148MOL    C8238596   6.864   6.251   7.476  0.6278 -0.6685 -0.1197
  148MOL    C8338597   6.977   6.333   7.513 -0.4637 -0.1475 -1.1242
  148MOL    C8438598   6.637   6.461   7.665  0.2758 -0.2906 -0.3401
  148MOL    H8538599   6.826   6.375   7.729  1.5262 -0.6940 -0.8712
  148MOL    H8638600   6.845   6.473   7.443  1.3759  1.7406  2.4139
  148MOL    H8738601   6.863   6.239   7.367  0.4751  2.4924 -0.4977
  148MOL    H8838602   6.852   6.163   7.539  1.6546 -0.0242  0.9760
  148MOL    H8938603   7.025   6.295   7.602 -0.8986  1.5201 -0.1521
  148MOL    H9038604   7.043   6.373   7.437 -0.0626  2.3729  0.4949
  148MOL    H9138605   6.611   6.509   7.759 -0.2829  0.4671 -0.8747
  148MOL    H9238606   6.615   6.534   7.588  1.4049 -0.7589 -1.1157
  148MOL    C9338607   6.562   6.326   7.647  0.1777 -0.4032 -0.1026
  148MOL    C9438608   6.557   6.259   7.782  0.2363 -0.3197 -0.5690
  148MOL    C9538609   6.537   6.103   7.788 -0.4213 -0.4603  0.5447
  148MOL    C9638610   6.668   6.164   7.829  0.3576 -0.2053 -0.3055
  148MOL    C9738611   6.421   6.361   7.587  0.1552 -0.6213 -0.6244
  148MOL    H9838612   6.627   6.267   7.581  1.2809  0.7929 -0.1093
  148MOL    H9938613   6.505   6.311   0.022  0.4755  1.7496 -1.7481
  148MOL   H10038614   6.486   6.058   0.034 -0.2793  0.0638  0.9171
  148MOL   H10138615   6.549   6.039   7.702 -1.1413  0.7182 -0.4510
  148MOL   H10238616   6.680   6.179   0.097 -1.2043  0.1023 -0.1549
  148MOL   H10338617   6.756   6.158   7.765 -0.2482  0.4201 -1.2173
  148MOL   H10438618   6.434   6.421   7.497  1.1031  1.3341  0.7861
  148MOL   H10538619   6.367   6.420   7.661  4.1016  0.3415  1.6471
  148MOL   C10638620   6.338   6.236   7.553 -0.1380  0.1320  0.1823
  148MOL   C10738621   6.196   6.272   7.515  0.2930 -0.5394  0.8392
  148MOL   C10838622   6.086   6.184   7.538 -0.4927  0.5484  0.2913
  148MOL   C10938623   6.097   6.315   7.615  0.7988  0.0351  0.2816
  148MOL   C11038624   6.412   6.160   7.437 -0.5666 -0.4685  0.5290
  148MOL   H11138625   6.332   6.182   7.648 -0.1495  0.1672  0.2009
  148MOL   H11238626   6.190   6.327   7.421 -1.1577 -1.9570  0.0782
  148MOL   H11338627   6.015   6.171   7.456 -0.1594  1.4087 -0.1380
  148MOL   H11438628   6.105   6.091   7.591 -0.6363  1.1992  1.4931
  148MOL   H11538629   6.119   6.313   7.721 -1.1662  2.4330  0.7911
  148MOL   H11638630   6.026   6.391   7.582 -0.4283 -1.6088 -0.9535
  148MOL   H11738631   6.424   6.239   7.363 -1.5992 -1.5872 -0.8501
  148MOL   H11838632   6.509   6.119   7.464 -0.3662 -2.1584 -2.5674
  148MOL   C11938633   6.340   6.039   7.371  0.4082  0.6879  0.2925
  148MOL   C12038634   6.420   5.997   7.249  0.5167 -0.1113 -0.3025
  148MOL   C12138635   6.427   6.087   7.131 -0.4984  0.2916 -0.6901
  148MOL   C12238636   6.339   5.965   7.124  0.3382  0.1193 -0.9640
  148MOL   C12338637   6.328   5.920   7.471  0.3290 -0.0238  0.3956
  148MOL   H12438638   6.239   6.070   7.343  0.3903 -0.0255 -0.4602
  148MOL   H12538639   6.501   5.928   7.268  0.6224  0.4618  1.3900
  148MOL   H12638640   6.508   6.093   7.059  0.7035 -0.9467  0.5515
  148MOL   H12738641   6.376   6.183   7.143 -0.6320  0.0081  1.0653
  148MOL   H12838642   6.232   5.987   7.130  0.5124  0.5812  0.8205
  148MOL   H12938643   6.364   5.865   7.088 -0.6820 -1.2203  1.8781
  148MOL   H13038644   6.431   5.890   7.491 -0.3522 -0.9978  2.6546
  148MOL   H13138645   6.287   5.954   7.566 -0.9677  2.4222 -0.9941
  148MOL   C13238646   6.235   5.802   7.425 -0.5636  0.3028  0.0630
  148MOL   C13338647   6.091   5.808   7.487  0.2833  0.2393  0.0611
  148MOL   C13438648   5.994   5.706   7.423  0.2007  0.0597  0.5978
  148MOL   C13538649   5.965   5.859   7.417 -0.1302  0.3583 -0.0591
  148MOL   C13638650   6.297   5.658   7.430 -0.5846  0.0372  0.4067
  148MOL   H13738651   6.212   5.826   7.321  1.6766  1.7268 -0.1286
  148MOL   H13838652   6.084   5.823   7.594  0.9566  1.1936 -0.0183
  148MOL   H13938653   6.013   5.662   7.325 -1.5473  0.9408 -0.1658
  148MOL   H14038654   5.942   5.642   7.494  3.5269 -2.4113  0.9336
  148MOL   H14138655   5.978   5.913   7.324 -0.3273  0.1509 -0.2080
  148MOL   H14238656   5.902   5.919   7.482 -1.0692  1.0973 -1.6401
  148MOL   H14338657   6.224   5.582   7.404  0.4891 -0.6351 -0.6937
  148MOL   H14438658   6.380   5.658   7.359 -1.1768 -2.1106 -0.3166
  148MOL   C14538659   6.362   5.606   7.556  0.6145  0.2489 -0.1499
  148MOL   C14638660   6.259   5.580   7.669 -0.3071  0.4172 -0.8152
  148MOL   C14738661   6.292   5.556   7.816  0.3197  0.0553  0.5609
  148MOL   C14838662   6.250   5.693   7.770 -0.0211 -0.6067  0.0747
  148MOL   C14938663   6.441   5.473   7.530 -0.1611  0.2744 -0.6813
  148MOL   H15038664   6.417   5.689   7.600 -0.0732  0.9885 -0.6764
  148MOL   H15138665   6.163   5.542   7.633 -0.8754  2.2700 -1.3274
  148MOL   H15238666   6.215   5.504   0.032 -0.1134  0.4492  0.3381
  148MOL   H15338667   6.395   5.544   0.008  0.9152  0.7135 -1.0718
  148MOL   H15438668   6.323   5.773   7.778  0.7231 -0.9271 -2.8898
  148MOL   H15538669   6.152   5.727   7.804  0.4118  0.6762  0.0691
  148MOL   H15638670   6.478   5.416   7.615  1.0591  0.7882 -0.8623
  148MOL   H15738671   6.378   5.402   7.476  1.5523 -1.8514  0.0567
  148MOL   C15838672   6.577   5.486   7.458 -1.1092 -0.7137  0.8836
  148MOL   C15938673   6.620   5.356   7.399  0.4656 -0.1715  0.7901
  148MOL   C16038674   6.547   5.287   7.289  0.5459  0.6300 -0.6542
  148MOL   C16138675   6.684   5.338   7.270 -0.3665 -0.1748 -0.1112
  148MOL   C16238676   6.680   5.543   7.556 -0.8711 -0.2886  0.3382
  148MOL   H16338677   6.564   5.560   7.379 -0.4323 -0.2479  1.1970
  148MOL   H16438678   6.629   5.276   7.472 -2.3568  1.1871  2.7731
  148MOL   H16538679   6.465   5.347   7.252 -1.8071 -1.6482  0.7224
  148MOL   H16638680   6.536   5.179   7.277  0.8880  0.4147  0.8554
  148MOL   H16738681   6.775   5.278   7.278  1.1245  2.1533  0.9119
  148MOL   H16838682   6.712   5.421   7.205 -0.5115  0.2126  0.3246
  148MOL   H16938683   6.720   5.453   7.602 -3.4362 -0.6025  2.0857
  148MOL   H17038684   6.634   5.606   7.632  1.5646  0.6465  1.0874
  148MOL   C17138685   6.804   5.604   7.487  0.2419  0.4488  0.7168
  148MOL   C17238686   6.768   5.726   7.407  0.2661 -0.8972 -0.2748
  148MOL   C17338687   6.856   5.801   7.313 -0.1255  0.3268  0.0792
  148MOL   C17438688   6.750   5.713   7.255 -0.3300 -0.5662 -0.2868
  148MOL   C17538689   6.922   5.645   7.578  0.2513  0.3448 -0.1748
  148MOL   H17638690   6.846   5.523   7.426 -0.3150  0.1174  0.7712
  148MOL   H17738691   6.683   5.780   7.449 -0.1186 -0.4858 -1.5671
  148MOL   H17838692   6.832   5.906   7.296 -0.1487  0.2637 -0.2664
  148MOL   H17938693   6.960   5.772   7.302 -0.6086 -1.2099 -0.4744
  148MOL   H18038694   6.789   5.619   7.215 -2.0847 -1.6811  0.5796
  148MOL   H18138695   6.660   5.759   7.214  0.5893  1.3835 -0.1918
  148MOL   H18238696   6.883   5.719   7.648 -0.1726 -0.8450  0.8734
  148MOL   H18338697   6.992   5.693   7.510 -1.2309  0.8026 -1.4171
  148MOL   C18438698   6.997   5.529   7.649 -0.3467  0.0722  0.5572
  148MOL   C18538699   7.101   5.588   7.748  0.2124  0.1499 -0.0636
  148MOL   C18638700   7.123   5.540   0.049 -0.3827  0.0901 -0.6426
  148MOL   C18738701   7.079   5.681   0.019  0.3192  0.3120  0.7619
  148MOL   C18838702   7.058   5.425   7.557 -0.0311  0.2087 -0.1849
  148MOL   H18938703   6.933   5.471   7.715  0.3813 -1.4679 -0.0566
  148MOL   H19038704   7.194   5.591   7.692 -1.0340 -1.9853 -2.3623
  148MOL   H19138705   7.224   5.532   0.089 -0.9621 -0.7518  0.7048
  148MOL   H19238706   7.043   5.485   0.098  0.9088 -1.4089 -0.1780
  148MOL   H19338707   7.154   5.760   0.023  1.1807 -0.4815  0.6454
  148MOL   H19438708   6.979   5.714   0.044 -0.1582  0.1403 -0.8719
  148MOL   H19538709   7.158   5.463   7.534  0.3642 -0.5912  0.2086
  148MOL   H19638710   7.018   5.408   7.457 -1.0125  0.4895  0.1542
  148MOL   C19738711   7.063   5.290   7.623  0.6942 -0.0390 -0.3977
  148MOL   C19838712   7.186   5.213   7.580 -0.1556  0.4450 -0.8636
  148MOL   C19938713   7.255   5.124   7.669 -0.0205 -0.1122 -0.3134
  148MOL   C20038714   7.318   5.259   7.650  0.7466 -0.4941  0.3400
  148MOL   C20138715   6.933   5.215   7.588  0.4528 -0.4443  0.1730
  148MOL   H20238716   7.063   5.306   7.731  1.7648  0.2670 -0.4402
  148MOL   H20338717   7.206   5.194   7.475 -1.7965 -2.1857 -0.7667
  148MOL   H20438718   7.224   5.120   7.774  0.8909 -1.5616 -0.0758
  148MOL   H20538719   7.305   5.032   7.639 -3.8136 -1.8726 -1.6895
  148MOL   H20638720   7.310   5.336   7.727 -0.2372 -0.9134  0.6634
  148MOL   H20738721   7.400   5.275   7.580 -0.5273  0.1974 -1.0405
  148MOL   H20838722   6.849   5.275   7.553 -1.2896 -2.5883  0.5705
  148MOL   H20938723   6.944   5.166   7.491  1.6020  0.0457  0.0452
  148MOL   C21038724   6.879   5.110   7.688  0.6035 -0.1987  0.0075
  148MOL   C21138725   6.842   5.171   7.819  0.4025 -0.1782 -0.0863
  148MOL   C21238726   6.838   5.076   0.106 -0.4271 -0.1560 -0.1382
  148MOL   C21338727   6.942   5.187   0.089 -0.1776  0.5089 -0.1308
  148MOL   C21438728   6.759   5.024   7.634 -0.5042  0.1363 -0.3189
  148MOL   H21538729   6.961   5.040   7.703  1.5489  0.6045 -1.3832
  148MOL   H21638730   6.759   5.240   7.806  1.5609  0.8134 -2.5134
  148MOL   H21738731   6.752   5.097   0.169  0.1796 -2.0033  1.3542
  148MOL   H21838732   6.858   4.970   0.091  1.9559  0.3233 -0.6331
  148MOL   H21938733   6.934   5.268   0.161  0.2034 -1.4761  2.2152
  148MOL   H22038734   7.039   5.139   0.077 -0.1546  0.2615  0.9978
  148MOL   H22138735   6.671   5.041   7.694  0.7946 -1.1603  2.0266
  148MOL   H22238736   6.731   5.057   7.534 -1.0000 -2.2575 -1.0014
  148MOL   C22338737   6.778   4.871   7.622 -0.5029  0.3530 -0.0895
  148MOL   C22438738   6.860   4.833   7.498  0.1011 -0.0576  0.2835
  148MOL   C22538739   7.014   4.831   7.503 -0.5547 -0.6653 -0.2946
  148MOL   C22638740   6.939   4.701   7.509  0.9442  0.3809 -0.3960
  148MOL   C22738741   6.644   4.793   7.636  0.8825  0.7466  0.3453
  148MOL   H22838742   6.845   4.849   7.705 -0.6158  2.3713  0.5687
  148MOL   H22938743   6.804   4.852   7.408 -2.1204  0.7030  1.7918
  148MOL   H23038744   7.065   4.866   7.593  1.2941 -0.5478 -1.3552
  148MOL   H23138745   7.077   4.825   7.415  1.6240  0.5233  1.1174
  148MOL   H23238746   6.931   4.645   7.416  0.5637 -2.2223  1.1523
  148MOL   H23338747   6.925   4.629   7.590 -0.6329 -0.3906 -1.3208
  148MOL   H23438748   6.651   4.685   7.622 -0.4872  0.5137  1.3143
  148MOL   H23538749   6.609   4.803   7.739  0.2346 -0.6686  0.2697
  148MOL   C23638750   6.525   4.847   7.545 -0.7193  0.1466 -0.1676
  148MOL   C23738751   6.385   4.827   7.603 -0.4731 -0.1875  0.3507
  148MOL   C23838752   6.344   4.912   7.716 -0.5125 -0.2200  0.0367
  148MOL   C23938753   6.279   4.940   7.583 -0.0086  0.5966  0.6294
  148MOL   C24038754   6.541   4.771   7.408 -0.3663  0.1376  0.2231
  148MOL   H24138755   6.540   4.953   7.526  1.0817 -0.3638 -1.6873
  148MOL   H24238756   6.362   4.721   7.597  0.6309 -0.3467 -1.4083
  148MOL   H24338757   6.305   4.858   7.802  0.7786  1.6072  1.8211
  148MOL   H24438758   6.406   4.996   7.746  0.7682 -1.1403 -0.0327
  148MOL   H24538759   6.320   5.017   7.518  2.3852  0.2509  1.6834
  148MOL   H24638760   6.178   4.907   7.562 -0.5322  0.6736  2.8406
  148MOL   H24738761   6.614   4.813   7.339 -0.0320  0.9030  1.0270
  148MOL   H24838762   6.576   4.670   7.426 -2.3299 -0.2686  1.9068
  148MOL   C24938763   6.416   4.771   7.312  0.4568 -0.2663  1.1017
  148MOL   C25038764   6.440   4.673   7.202  0.3586 -0.2399  0.6071
  148MOL   C25138765   6.334   4.561   7.196 -0.5905  0.2364 -0.0368
  148MOL   C25238766   6.342   4.651   7.086  0.7413  0.2655  0.1145
  148MOL   C25338767   6.400   4.906   7.240 -0.5327 -0.9448  0.3038
  148MOL   H25438768   6.337   4.730   7.374 -0.7308  0.3547  0.0081
  148MOL   H25538769   6.538   4.626   7.203  0.8818  0.8200 -0.2491
  148MOL   H25638770   6.373   4.460   7.190  0.4491  0.6106  0.2817
  148MOL   H25738771   6.249   4.566   7.263 -0.3634  0.0887  0.2664
  148MOL   H25838772   6.388   4.616   6.994 -0.6068 -0.8564 -0.1546
  148MOL   H25938773   6.269   4.730   7.072 -0.9364 -1.1226  0.8379
  148MOL   H26038774   6.479   4.924   7.167  0.6316  0.0623  1.7677
  148MOL   H26138775   6.390   4.999   7.296 -0.1550 -0.8636  0.2360
  148MOL   H26238776   6.307   4.904   7.184  0.4000 -0.2644 -1.2993
  149MOL     C138777   3.213   4.966   0.679 -0.2569  0.4403 -0.0418
  149MOL     C238778   3.315   4.861   0.707  0.0590  1.1575  0.2090
  149MOL     C338779   3.276   4.733   0.775 -0.3306 -0.1726 -0.4169
  149MOL     C438780   3.359   4.842   0.847  0.0255 -0.3039  0.2193
  149MOL     C538781   3.113   4.930   0.568 -0.2206 -0.2005  0.1581
  149MOL     H638782   3.157   4.976   0.772 -1.2221  0.0714 -0.5719
  149MOL     H738783   3.392   4.851   0.630  0.0590  0.8939  0.2411
  149MOL     H838784   3.173   4.726   0.811 -0.2064  0.5938  0.1087
  149MOL     H938785   3.323   4.638   0.752 -0.5493 -0.4886  0.4339
  149MOL    H1038786   3.461   4.809   0.862 -0.1980 -0.3236  1.7154
  149MOL    H1138787   3.306   4.899   0.922  0.8351 -0.8054  1.1810
  149MOL    H1238788   3.071   4.835   0.599 -3.6078  1.9202  2.3949
  149MOL    H1338789   3.166   4.922   0.473 -1.0182  0.5573 -0.3563
  149MOL    H1438790   3.268   5.056   0.652 -0.8886  0.5364 -1.0304
  149MOL    C1538791   3.005   5.036   0.540  0.2158  0.5068 -0.8261
  149MOL    C1638792   3.072   5.158   0.477 -0.5743  0.6459 -0.5122
  149MOL    C1738793   3.136   5.260   0.563  0.3617 -0.0329 -0.0517
  149MOL    C1838794   3.019   5.295   0.475 -0.3161  0.4278 -0.4438
  149MOL    C1938795   2.894   4.993   0.450  0.6504  0.1140  0.3076
  149MOL    H2038796   2.966   5.059   0.639  0.8664 -2.3852  0.1357
  149MOL    H2138797   3.119   5.137   0.382 -0.5644  2.0798 -0.8387
  149MOL    H2238798   3.229   5.298   0.521 -0.2263  0.5276 -0.8584
  149MOL    H2338799   3.124   5.258   0.671 -0.7383 -1.6669 -0.1809
  149MOL    H2438800   2.921   5.309   0.521 -0.9427 -2.1390 -0.9193
  149MOL    H2538801   3.032   5.345   0.379  0.0109 -0.8829 -1.0902
  149MOL    H2638802   2.961   4.968   0.368 -0.4137  0.0137 -0.5408
  149MOL    H2738803   2.827   5.070   0.411 -0.4022 -0.8302  0.2116
  149MOL    C2838804   2.798   4.878   0.490 -0.7371 -0.1567 -1.1539
  149MOL    C2938805   2.718   4.819   0.371  0.7043  0.4488 -0.0282
  149MOL    C3038806   2.785   4.779   0.238 -0.2196  0.0496 -0.5610
  149MOL    C3138807   2.722   4.670   0.322  0.2810  0.2479  0.4762
  149MOL    C3238808   2.705   4.907   0.603 -0.1907 -0.6356 -0.4106
  149MOL    H3338809   2.871   4.805   0.525 -1.4667 -0.2287  0.2290
  149MOL    H3438810   2.623   4.870   0.358  1.8060  1.7491 -3.6744
  149MOL    H3538811   2.892   4.797   0.246 -0.3031  0.3500 -0.0994
  149MOL    H3638812   2.730   4.806   0.149 -2.4183 -0.1025  0.7139
  149MOL    H3738813   2.792   4.598   0.363  2.2621  2.3344  0.9212
  149MOL    H3838814   2.631   4.625   0.284  0.7285  0.6013 -1.0481
  149MOL    H3938815   2.655   5.000   0.576  2.2790  0.8020 -0.2371
  149MOL    H4038816   2.765   4.941   0.689 -0.1703 -0.0439 -0.6560
  149MOL    C4138817   2.609   4.801   0.656 -0.3247  0.7025  0.9517
  149MOL    C4238818   2.497   4.880   0.735  0.6163  0.2582  0.2408
  149MOL    C4338819   2.349   4.839   0.761 -0.5486 -0.1552 -0.3129
  149MOL    C4438820   2.381   4.944   0.657  0.5285  0.0392  0.4542
  149MOL    C4538821   2.678   4.704   0.750  0.3013  0.3171 -0.4528
  149MOL    H4638822   2.555   4.740   0.583  2.3328 -0.6405  0.0434
  149MOL    H4738823   2.536   4.957   0.801 -0.8406  0.4974  0.8410
  149MOL    H4838824   2.324   4.742   0.720 -0.3441 -0.2376 -0.2449
  149MOL    H4938825   2.307   4.862   0.859  0.6015  2.7014 -0.4426
  149MOL    H5038826   2.349   5.045   0.683  0.8420  0.1534  0.3913
  149MOL    H5138827   2.370   4.926   0.551 -0.5019 -3.8056  1.1103
  149MOL    H5238828   2.693   4.741   0.852 -0.2733 -0.0834 -0.2223
  149MOL    H5338829   2.780   4.687   0.716  0.0747 -0.4137 -0.7653
  149MOL    C5438830   2.600   4.574   0.768  0.1701  0.0457  0.3721
  149MOL    C5538831   2.620   4.481   0.657 -0.4624 -0.0746 -0.2160
  149MOL    C5638832   2.520   4.470   0.549  0.1584 -0.6269  0.2625
  149MOL    C5738833   2.533   4.350   0.636 -0.3213 -0.3854 -0.3816
  149MOL    C5838834   2.620   4.505   0.908  0.4178 -0.3011  0.0130
  149MOL    H5938835   2.497   4.610   0.765  0.8581  1.9612 -1.5135
  149MOL    H6038836   2.723   4.446   0.647 -1.7279 -4.6071  1.4786
  149MOL    H6138837   2.422   4.517   0.544  1.0127  1.2941  1.0913
  149MOL    H6238838   2.564   4.454   0.451  3.2512 -1.2805  1.6744
  149MOL    H6338839   2.594   4.270   0.595 -0.4968 -0.9209  0.4080
  149MOL    H6438840   2.452   4.325   0.705  0.1218 -0.1149  0.2396
  149MOL    H6538841   2.586   4.578   0.982  1.1109  0.1945 -0.1544
  149MOL    H6638842   2.565   4.415   0.934  2.1155 -0.8929  1.6730
  149MOL    C6738843   2.764   4.475   0.938  0.1303  0.4216  0.0367
  149MOL    C6838844   2.804   4.526   1.076 -0.4585 -0.1795 -0.1875
  149MOL    C6938845   2.940   4.599   1.097 -0.1714  0.6871 -0.1247
  149MOL    C7038846   2.802   4.676   1.105 -0.1267  0.5174  0.6475
  149MOL    C7138847   2.790   4.320   0.918  0.1011 -0.2027  0.4182
  149MOL    H7238848   2.825   4.537   0.872  1.1277  1.8907  2.2560
  149MOL    H7338849   2.770   4.466   1.161 -1.3978 -0.5045 -0.7868
  149MOL    H7438850   2.994   4.576   1.188  0.1637  1.7750 -0.0467
  149MOL    H7538851   3.013   4.613   1.018  2.1128  1.8680  2.1524
  149MOL    H7638852   2.791   4.751   1.027 -0.4127  1.8190  1.9125
  149MOL    H7738853   2.767   4.714   1.201 -1.0022 -1.6345  1.2146
  149MOL    H7838854   2.741   4.280   0.829  1.4127 -0.9793  0.0283
  149MOL    H7938855   2.744   4.261   0.997 -1.7261  1.2107  0.4406
  149MOL    C8038856   2.939   4.279   0.907 -0.0403  0.7316 -0.3925
  149MOL    C8138857   3.006   4.316   0.776 -0.6670 -0.0528  0.0802
  149MOL    C8238858   3.160   4.308   0.767 -0.2276 -0.5671 -0.4068
  149MOL    C8338859   3.085   4.440   0.766  0.9024  0.2910  1.0223
  149MOL    C8438860   2.961   4.131   0.941 -0.7236  0.1476 -0.4003
  149MOL    H8538861   2.983   4.342   0.984 -0.0504  0.2991 -0.0274
  149MOL    H8638862   2.964   4.275   0.684 -0.8068  0.0891  0.0804
  149MOL    H8738863   3.209   4.298   0.671 -1.7203 -3.8161 -0.9134
  149MOL    H8838864   3.222   4.313   0.856 -2.8125  1.9510  1.3505
  149MOL    H8938865   3.086   4.507   0.852 -0.1308  1.0588  0.4393
  149MOL    H9038866   3.077   4.483   0.667  0.6649 -1.6406  0.1861
  149MOL    H9138867   2.897   4.081   0.868  0.2197 -1.2847 -0.2435
  149MOL    H9238868   3.054   4.094   0.899 -1.4270 -1.8445 -0.2437
  149MOL    C9338869   2.945   4.077   1.079  0.4201 -0.1614  0.2195
  149MOL    C9438870   2.941   3.927   1.075 -0.1948  0.8887 -0.3171
  149MOL    C9538871   2.854   3.843   1.172 -0.6158  0.0206 -0.2902
  149MOL    C9638872   2.818   3.858   1.030  0.0080  0.5987  0.5279
  149MOL    C9738873   3.048   4.128   1.188  0.1497 -0.4387 -0.2341
  149MOL    H9838874   2.844   4.108   1.106  1.3296  1.6617  1.6185
  149MOL    H9938875   3.028   3.872   1.042 -0.4912  0.3944 -0.2733
  149MOL   H10038876   2.887   3.744   1.202  1.3026  0.6367 -0.2601
  149MOL   H10138877   2.804   3.899   1.251 -0.6235  0.1928 -0.4154
  149MOL   H10238878   2.841   3.780   0.957  1.2295 -1.3620  2.9145
  149MOL   H10338879   2.731   3.917   1.005 -0.6536 -0.6760 -0.2613
  149MOL   H10438880   3.097   4.212   1.138  0.3640 -0.1105  0.5256
  149MOL   H10538881   3.120   4.046   1.190  0.6908 -0.0557 -2.5405
  149MOL   C10638882   2.991   4.152   1.328  0.5300  0.7547  0.0334
  149MOL   C10738883   3.106   4.146   1.428 -0.2229  0.0404  0.2651
  149MOL   C10838884   3.103   4.054   1.554 -0.6715 -0.2306 -0.0256
  149MOL   C10938885   3.194   4.019   1.433  1.0850 -0.5163 -0.7563
  149MOL   C11038886   2.904   4.289   1.337  0.1984  0.1436  0.5282
  149MOL   H11138887   2.929   4.066   1.354 -0.4407  1.2027 -0.7263
  149MOL   H11238888   3.160   4.238   1.447  2.3785 -0.9401 -1.9968
  149MOL   H11338889   3.161   4.086   1.640 -0.2872  0.3178 -0.4852
  149MOL   H11438890   3.015   3.994   1.575 -0.8682 -0.1244 -0.5295
  149MOL   H11538891   3.159   3.929   1.383  0.4248 -0.6175 -0.1273
  149MOL   H11638892   3.300   4.032   1.451  0.5566  2.3942  0.5643
  149MOL   H11738893   2.971   4.370   1.307 -1.3888  1.3698  0.2521
  149MOL   H11838894   2.821   4.291   1.267 -0.7447 -1.3842  1.5699
  149MOL   C11938895   2.843   4.303   1.479 -1.1290 -0.3047 -0.7755
  149MOL   C12038896   2.822   4.451   1.500 -0.9781 -0.5212  0.4512
  149MOL   C12138897   2.923   4.565   1.515  0.2864  0.1722  0.4789
  149MOL   C12238898   2.838   4.515   1.636 -0.3521 -0.3595  0.6584
  149MOL   C12338899   2.704   4.219   1.500  0.4752 -0.2083 -0.4272
  149MOL   H12438900   2.916   4.270   1.554 -0.3755  1.3620 -0.7560
  149MOL   H12538901   2.736   4.489   1.444 -0.4285  0.2401  0.1170
  149MOL   H12638902   2.899   4.669   1.493 -3.3362 -0.9067 -1.0837
  149MOL   H12738903   3.029   4.542   1.510 -0.4313 -3.0394 -1.1585
  149MOL   H12838904   2.888   4.456   1.712 -0.3218 -0.4194  0.5928
  149MOL   H12938905   2.747   4.570   1.661 -1.1669 -1.7612  0.8415
  149MOL   H13038906   2.631   4.268   1.437 -0.4523  0.9197  1.4726
  149MOL   H13138907   2.706   4.120   1.456  0.0666 -0.2187 -0.4201
  149MOL   C13238908   2.646   4.213   1.638  0.5139 -0.3872 -0.0937
  149MOL   C13338909   2.736   4.145   1.739 -0.2452 -0.1246  0.3104
  149MOL   C13438910   2.705   4.134   1.883  0.1402 -0.9260  0.0043
  149MOL   C13538911   2.830   4.209   1.840  1.2114  0.3936 -0.3304
  149MOL   C13638912   2.510   4.165   1.644  0.0103 -0.4366 -0.0605
  149MOL   H13738913   2.640   4.316   1.674  0.6661 -0.3736 -0.1096
  149MOL   H13838914   2.785   4.056   1.700  2.1543 -0.1774  3.3070
  149MOL   H13938915   2.628   4.201   1.920  0.8823 -0.4017  0.6078
  149MOL   H14038916   2.715   4.034   1.925  0.5467 -1.3849 -1.1627
  149MOL   H14138917   2.825   4.315   1.863 -1.6350 -0.3439  2.8543
  149MOL   H14238918   2.925   4.158   1.858  0.9987  0.1505  0.1216
  149MOL   H14338919   2.482   4.096   1.563 -0.8139 -0.4889  0.2562
  149MOL   H14438920   2.505   4.102   1.733  0.1702 -0.8248 -0.3261
  149MOL   C14538921   2.394   4.268   1.670  0.3762 -0.3683 -0.1462
  149MOL   C14638922   2.389   4.359   1.551 -0.9418 -0.1355  0.1238
  149MOL   C14738923   2.317   4.494   1.553 -0.3457 -0.8687  0.8191
  149MOL   C14838924   2.464   4.490   1.538  0.0695 -0.3344 -0.1050
  149MOL   C14938925   2.265   4.186   1.672  0.0168 -0.0439 -0.0882
  149MOL   H15038926   2.416   4.328   1.759  1.1592  0.4584 -0.8814
  149MOL   H15138927   2.384   4.298   1.462  1.1040  1.4926 -1.1719
  149MOL   H15238928   2.278   4.536   1.461 -2.1228 -0.0374  1.9183
  149MOL   H15338929   2.284   4.539   1.646 -0.0796  0.9572  0.0532
  149MOL   H15438930   2.529   4.523   1.619  2.2730 -3.1737 -0.6519
  149MOL   H15538931   2.505   4.523   1.443  0.6997  1.6291  0.8278
  149MOL   H15638932   2.184   4.258   1.678 -0.8698 -1.1411  1.3859
  149MOL   H15738933   2.259   4.133   1.578  0.3147 -0.0115 -0.1285
  149MOL   C15838934   2.224   4.090   1.793 -0.5675 -0.4603  0.3902
  149MOL   C15938935   2.117   3.989   1.740 -0.2079  0.3059  0.1523
  149MOL   C16038936   2.143   3.897   1.625 -0.1330  0.2221 -0.3470
  149MOL   C16138937   2.124   3.841   1.767  0.1049  0.3189 -0.4906
  149MOL   C16238938   2.164   4.170   1.907  0.0663  0.5694 -1.0633
  149MOL   H16338939   2.308   4.027   1.822  0.7546  1.7933  1.5717
  149MOL   H16438940   2.014   4.026   1.742 -0.4873 -0.4332 -0.2142
  149MOL   H16538941   2.243   3.885   1.583 -0.0341 -2.1001  0.4949
  149MOL   H16638942   2.057   3.874   1.563 -0.0645  0.6984 -0.6182
  149MOL   H16738943   2.045   3.768   1.778  2.6669 -2.2639  1.6901
  149MOL   H16838944   2.215   3.803   1.813 -0.5633  0.0242  0.6016
  149MOL   H16938945   2.074   4.220   1.870 -0.0257  0.0361 -1.5490
  149MOL   H17038946   2.220   4.261   1.930 -0.1709  0.5085 -0.2211
  149MOL   C17138947   2.149   4.089   2.041  0.3291  1.0543 -0.0642
  149MOL   C17238948   2.280   4.107   2.123 -0.3763  0.5728  0.1290
  149MOL   C17338949   2.322   4.008   2.225 -0.3384 -0.3437  0.0453
  149MOL   C17438950   2.409   4.037   2.100 -0.4690 -0.2576  0.0465
  149MOL   C17538951   2.035   4.141   2.123  0.2488  0.1499 -0.8538
  149MOL   H17638952   2.143   3.980   2.036  0.4040  1.0138  0.6661
  149MOL   H17738953   2.288   4.212   2.150  1.0837 -0.0307  2.1599
  149MOL   H17838954   2.353   4.048   2.321 -1.9406  4.4620 -1.2822
  149MOL   H17938955   2.256   3.921   2.228 -1.5885  0.5668 -0.5009
  149MOL   H18038956   2.409   3.955   2.028 -0.1668  0.6865 -1.0487
  149MOL   H18138957   2.509   4.069   2.126 -1.2307  2.0937  0.2287
  149MOL   H18238958   2.030   4.250   2.118 -0.1296  0.2421  1.2905
  149MOL   H18338959   2.052   4.133   2.230 -0.7102  1.7767 -0.5617
  149MOL   C18438960   1.897   4.084   2.090 -1.1689 -0.4237 -0.3370
  149MOL   C18538961   1.783   4.188   2.118  0.1203 -0.0391  0.4552
  149MOL   C18638962   1.654   4.198   2.042 -0.0581 -0.4182 -0.2617
  149MOL   C18738963   1.750   4.311   2.035 -0.3454 -0.1701  0.0716
  149MOL   C18838964   1.873   3.947   2.151  0.2081 -0.3338 -0.0718
  149MOL   H18938965   1.898   4.065   1.983  1.8301 -0.4452 -0.3490
  149MOL   H19038966   1.764   4.196   2.225  2.6631  2.1043  0.8035
  149MOL   H19138967   1.564   4.200   2.103  0.5448 -0.2181  0.6313
  149MOL   H19238968   1.654   4.149   1.945  0.2625  0.6845 -0.8268
  149MOL   H19338969   1.713   4.406   2.072 -0.7862 -0.6573  0.8873
  149MOL   H19438970   1.791   4.335   1.937  0.9617 -0.6978  0.4791
  149MOL   H19538971   1.869   3.973   2.257 -2.6029  2.1493 -0.7187
  149MOL   H19638972   1.960   3.883   2.135 -0.2304 -2.2090  4.4265
  149MOL   C19738973   1.745   3.874   2.106 -0.2722  0.2484  0.3538
  149MOL   C19838974   1.668   3.811   2.217 -0.3037 -0.8762  0.5596
  149MOL   C19938975   1.519   3.831   2.233 -0.8637  0.3103 -0.2475
  149MOL   C20038976   1.609   3.902   2.318 -0.0959  0.0575 -0.0371
  149MOL   C20138977   1.766   3.792   1.978 -0.2861 -0.5150  0.0757
  149MOL   H20238978   1.678   3.953   2.072  0.1766  1.0024  1.1970
  149MOL   H20338979   1.706   3.716   2.254  0.5522 -0.6447  0.2932
  149MOL   H20438980   1.464   3.893   2.163 -0.1579 -1.7221 -2.6744
  149MOL   H20538981   1.457   3.753   2.277 -2.7854  1.2652 -1.2343
  149MOL   H20638982   1.617   4.009   2.297  1.2225 -0.2704 -1.3698
  149MOL   H20738983   1.608   3.871   2.422  1.7943  0.0743  0.0007
  149MOL   H20838984   1.840   3.829   1.907  0.8712  0.3341  1.6928
  149MOL   H20938985   1.816   3.699   2.006  0.4805 -0.0726  0.1952
  149MOL   C21038986   1.638   3.763   1.894 -0.2830 -0.0341 -0.0208
  149MOL   C21138987   1.587   3.892   1.822 -0.7086  0.3178 -0.3393
  149MOL   C21238988   1.457   3.873   1.744  0.5249 -0.0801 -0.9729
  149MOL   C21338989   1.467   3.974   1.866  0.0151 -0.1325 -0.0696
  149MOL   C21438990   1.647   3.637   1.796 -0.1893  0.5836  0.1746
  149MOL   H21538991   1.565   3.735   1.969  0.9851 -1.5987  0.6516
  149MOL   H21638992   1.664   3.937   1.760 -1.7856  0.6050 -1.4811
  149MOL   H21738993   1.446   3.927   1.650  0.3664  1.6262 -0.0088
  149MOL   H21838994   1.384   3.798   1.773 -0.7445  1.4577 -0.1090
  149MOL   H21938995   1.463   4.079   1.839  0.6927 -0.4699 -1.5039
  149MOL   H22038996   1.411   3.937   1.952 -1.1523 -0.6325 -1.0149
  149MOL   H22138997   1.567   3.645   1.722 -0.1514  1.2853  0.2070
  149MOL   H22238998   1.738   3.640   1.737 -0.1648 -0.1064  0.1827
  149MOL   C22338999   1.632   3.498   1.871 -0.3673  0.3931 -0.1899
  149MOL   C22439000   1.672   3.389   1.774 -0.2252 -1.2634  0.1366
  149MOL   C22539001   1.820   3.367   1.750  0.6233 -0.1995  0.6286
  149MOL   C22639002   1.729   3.260   1.814  0.2105  0.1120  0.1940
  149MOL   C22739003   1.486   3.477   1.919  0.6058 -0.2202  0.0474
  149MOL   H22839004   1.702   3.495   1.954 -1.1464  1.7738  0.5435
  149MOL   H22939005   1.591   3.386   1.701  1.3732 -1.4743 -1.6703
  149MOL   H23039006   1.902   3.399   1.814 -0.8498  1.9472  1.4971
  149MOL   H23139007   1.856   3.359   1.647  0.1789 -2.5017  0.6369
  149MOL   H23239008   1.682   3.180   1.758  0.2979  1.8766 -2.4540
  149MOL   H23339009   1.737   3.235   1.920 -2.3103  0.3413  0.4730
  149MOL   H23439010   1.437   3.562   1.967  0.5435 -0.0571 -0.3081
  149MOL   H23539011   1.431   3.434   1.835  2.1131  0.9540 -1.5780
  149MOL   C23639012   1.480   3.375   2.037  0.2785 -0.0771  0.4174
  149MOL   C23739013   1.335   3.365   2.075 -0.0320 -0.8438 -0.3118
  149MOL   C23839014   1.243   3.274   1.993 -0.4793  0.2494  0.1398
  149MOL   C23939015   1.275   3.242   2.143  0.0300  0.2814 -0.1187
  149MOL   C24039016   1.566   3.430   2.161  0.0094  0.8802  0.1810
  149MOL   H24139017   1.524   3.281   2.004 -0.6071 -0.0886 -0.7682
  149MOL   H24239018   1.297   3.464   2.100  0.4811 -1.2715  2.3639
  149MOL   H24339019   1.157   3.327   1.952 -0.6469 -1.2182 -1.4928
  149MOL   H24439020   1.284   3.210   1.915 -2.3128 -0.7620 -0.0282
  149MOL   H24539021   1.336   3.155   2.163 -1.8049 -0.7284  1.2103
  149MOL   H24639022   1.184   3.242   2.204  0.3955 -1.3456  0.4359
  149MOL   H24739023   1.674   3.426   2.147 -0.0840 -0.9877 -0.0606
  149MOL   H24839024   1.556   3.537   2.180 -2.6668  0.4893  1.2315
  149MOL   C24939025   1.542   3.357   2.294 -0.3823 -0.2238 -1.1233
  149MOL   C25039026   1.595   3.444   2.408 -0.9253  0.1759 -0.3247
  149MOL   C25139027   1.520   3.554   2.479 -0.0508  0.7164  0.6983
  149MOL   C25239028   1.558   3.426   2.554  1.3667  0.1243  0.5087
  149MOL   C25339029   1.620   3.218   2.288 -0.2035  0.5749 -1.0017
  149MOL   H25439030   1.437   3.342   2.320 -0.3310 -0.4102 -1.0184
  149MOL   H25539031   1.700   3.467   2.391 -1.2397  0.7075 -1.6307
  149MOL   H25639032   1.567   3.649   2.505  0.1202  0.8173  0.0222
  149MOL   H25739033   1.420   3.566   2.438  0.4297  0.7520 -0.4836
  149MOL   H25839034   1.630   3.429   2.635  0.5434 -1.0924  1.2958
  149MOL   H25939035   1.479   3.353   2.572  1.4227 -0.0281  0.1334
  149MOL   H26039036   1.726   3.236   2.269 -0.2874  1.6801 -0.4212
  149MOL   H26139037   1.572   3.159   2.210 -0.9586  1.2811 -1.0813
  149MOL   H26239038   1.611   3.161   2.381  2.2747 -1.5053 -1.9750
  150MOL     C139039   4.356   0.265   3.062 -0.4597  0.2029 -0.3527
  150MOL     C239040   4.415   0.142   3.136  0.8673 -0.8711  0.0660
  150MOL     C339041   4.519   0.062   3.067 -1.2979  0.1949 -0.8723
  150MOL     C439042   4.386   7.838   3.094  0.0849 -0.2360  0.6067
  150MOL     C539043   4.455   0.382   3.058 -0.4126  0.2981  0.2264
  150MOL     H639044   4.336   0.231   2.961 -0.3308 -2.1555  0.3806
  150MOL     H739045   4.431   0.165   3.241  1.9007 -2.2061  0.2206
  150MOL     H839046   4.549   0.101   2.971 -0.5810 -0.0656 -0.7565
  150MOL     H939047   4.597   0.010   3.123 -2.2785 -2.5987 -1.9808
  150MOL    H1039048   4.372   7.768   3.176  1.2899 -2.0283 -0.6865
  150MOL    H1139049   4.327   7.818   3.005 -0.1023 -0.9844  0.8951
  150MOL    H1239050   4.538   0.354   2.993  0.1294 -0.4250  1.2140
  150MOL    H1339051   4.507   0.389   3.153  1.5285 -0.4898 -0.7446
  150MOL    H1439052   4.263   0.291   3.112 -0.7060 -1.2249 -0.0342
  150MOL    C1539053   4.390   0.514   3.003 -0.3929  0.1721  0.5333
  150MOL    C1639054   4.268   0.563   3.078 -0.4819 -0.8172 -0.2477
  150MOL    C1739055   4.125   0.513   3.055 -0.1148 -0.1136 -0.0279
  150MOL    C1839056   4.163   0.646   2.998 -0.0311  0.7918 -0.1606
  150MOL    C1939057   4.491   0.628   2.993  0.0396  0.0979  0.1425
  150MOL    H2039058   4.356   0.487   2.903 -0.0149 -1.6884  0.8839
  150MOL    H2139059   4.292   0.614   3.171  2.5181 -2.4826 -0.0416
  150MOL    H2239060   4.054   0.509   3.137 -0.4343  0.5672 -0.2685
  150MOL    H2339061   4.120   0.421   2.996 -2.3650  0.2724 -0.4995
  150MOL    H2439062   4.186   0.659   2.892  1.2278 -0.9714 -0.1317
  150MOL    H2539063   4.118   0.733   3.044  1.3444  2.4326 -1.8419
  150MOL    H2639064   4.549   0.629   3.085 -0.9673  2.2384  0.7810
  150MOL    H2739065   4.444   0.724   2.973 -1.8998 -1.4127 -2.9164
  150MOL    C2839066   4.612   0.616   2.890  0.1596  0.2412 -0.3805
  150MOL    C2939067   4.718   0.724   2.904  0.6792 -0.6427  0.8636
  150MOL    C3039068   4.800   0.746   3.036 -0.4203  0.5692 -0.0039
  150MOL    C3139069   4.864   0.686   2.909 -0.0740 -0.7909  0.6209
  150MOL    C3239070   4.558   0.615   2.744 -0.8633  0.3236  0.4277
  150MOL    H3339071   4.659   0.524   2.923 -0.8816  0.1022  0.7377
  150MOL    H3439072   4.688   0.823   2.870  0.4211 -0.6081  1.1964
  150MOL    H3539073   4.783   0.676   3.118  1.4818  0.6450  0.4804
  150MOL    H3639074   4.823   0.850   3.056 -1.4538  0.7591  0.2262
  150MOL    H3739075   4.897   0.582   2.905  2.0799 -0.0805 -1.3678
  150MOL    H3839076   4.941   0.748   2.863  2.3287 -3.8549  0.3110
  150MOL    H3939077   4.584   0.715   2.712 -0.9189 -0.0521 -0.8315
  150MOL    H4039078   4.449   0.621   2.746 -0.7482  2.6072  0.4725
  150MOL    C4139079   4.611   0.508   2.642  0.2650  0.3534  0.0939
  150MOL    C4239080   4.598   0.549   2.503  0.1441  0.2397  0.0364
  150MOL    C4339081   4.679   0.497   2.390 -0.3980  0.1404 -0.1967
  150MOL    C4439082   4.701   0.639   2.447  0.1928  0.4958  0.3194
  150MOL    C4539083   4.532   0.372   2.650 -0.1798  0.0462 -0.2827
  150MOL    H4639084   4.718   0.499   2.659  0.0774  0.5999  1.4140
  150MOL    H4739085   4.497   0.580   2.476 -0.6128 -1.6362  0.6099
  150MOL    H4839086   4.761   0.429   2.411 -3.1256 -3.2016  0.0811
  150MOL    H4939087   4.635   0.484   2.292  2.6947 -0.0263 -1.6326
  150MOL    H5039088   4.690   0.707   2.363  0.1215 -0.2792 -0.3128
  150MOL    H5139089   4.797   0.648   2.496 -0.5640  0.4048  1.8488
  150MOL    H5239090   4.456   0.370   2.572 -1.1601  3.4090  0.5146
  150MOL    H5339091   4.469   0.360   2.737  1.1758 -0.1400  0.6869
  150MOL    C5439092   4.615   0.249   2.644  0.3019  0.0946  0.5834
  150MOL    C5539093   4.717   0.233   2.758  0.2476 -0.5521 -0.2403
  150MOL    C5639094   4.855   0.292   2.757 -0.3108  0.2296  0.4759
  150MOL    C5739095   4.838   0.149   2.736 -0.1035 -0.1908 -0.0932
  150MOL    C5839096   4.529   0.122   2.627  0.0469  1.1924 -0.5587
  150MOL    H5939097   4.679   0.266   2.557  0.5034 -1.1586  0.4690
  150MOL    H6039098   4.677   0.235   2.859  0.0500  1.2567 -0.3536
  150MOL    H6139099   4.903   0.338   2.670  1.6183  1.3152  2.0576
  150MOL    H6239100   4.908   0.310   2.851  0.8290 -2.1326  0.3216
  150MOL    H6339101   4.859   0.071   2.810  1.2207 -0.2360 -0.4929
  150MOL    H6439102   4.860   0.124   2.633  0.4183  3.3410 -0.8966
  150MOL    H6539103   4.581   0.040   2.676 -1.4151  0.3188 -0.4405
  150MOL    H6639104   4.437   0.130   2.685  1.1391 -1.6046  1.6505
  150MOL    C6739105   4.488   0.096   2.476 -0.3805  0.1083 -0.3439
  150MOL    C6839106   4.598   0.024   2.402  0.3754  0.1350 -0.0625
  150MOL    C6939107   4.589   0.037   2.250 -0.3075 -0.2837  0.0315
  150MOL    C7039108   4.709   0.104   2.326  0.0976  0.1294 -0.0110
  150MOL    C7139109   4.344   0.034   2.466 -0.8651  0.3901  1.0203
  150MOL    H7239110   4.496   0.195   2.431 -0.6918  0.4097  0.2674
  150MOL    H7339111   4.626   7.763   2.434 -1.3826 -0.8228 -1.4213
  150MOL    H7439112   4.588   7.779   2.202  4.1997  0.8815 -2.7528
  150MOL    H7539113   4.522   0.113   2.209  0.3187 -0.2059 -0.8761
  150MOL    H7639114   4.697   0.211   2.340 -0.1823 -0.0998  1.7002
  150MOL    H7739115   4.808   0.062   2.309  0.3468 -0.2026  2.1035
  150MOL    H7839116   4.325   7.805   2.549 -1.8211 -2.4807 -1.4732
  150MOL    H7939117   4.347   7.817   2.373  0.1814  2.7464 -0.4370
  150MOL    C8039118   4.229   0.134   2.464 -0.2105  0.7590  0.0404
  150MOL    C8139119   4.103   0.048   2.483 -0.3837 -0.1484 -0.4614
  150MOL    C8239120   3.981   0.100   2.547  0.2046 -0.0254  0.5997
  150MOL    C8339121   4.063   7.832   2.616  0.5634 -0.5228  0.4397
  150MOL    C8439122   4.216   0.207   2.330  1.0986  0.5236 -0.4753
  150MOL    H8539123   4.245   0.203   2.547 -0.6171  2.7792 -1.5052
  150MOL    H8639124   4.085   7.825   2.396 -1.0160 -1.3468  0.5164
  150MOL    H8739125   3.883   0.060   2.522  0.7239  0.3880 -2.2338
  150MOL    H8839126   3.987   0.207   2.566 -0.6438  0.1702 -0.2006
  150MOL    H8939127   4.128   0.022   2.698  0.3732 -0.5764  0.6108
  150MOL    H9039128   4.045   7.724   2.608  0.2925 -0.3480 -1.7149
  150MOL    H9139129   4.314   0.216   2.284  1.7708 -0.2467  0.7655
  150MOL    H9239130   4.164   0.141   2.261  1.1612 -0.2324  0.1950
  150MOL    C9339131   4.148   0.349   2.338 -0.2087  0.0949  0.6285
  150MOL    C9439132   4.235   0.450   2.421 -0.1212  0.4736  0.4391
  150MOL    C9539133   4.168   0.575   2.468  0.6128  0.0973 -1.4352
  150MOL    C9639134   4.205   0.468   2.572 -0.2575  0.3546 -0.4927
  150MOL    C9739135   4.125   0.410   2.199  1.3068  0.0271  0.5626
  150MOL    H9839136   4.053   0.338   2.390 -0.3383  0.0920  0.3899
  150MOL    H9939137   4.340   0.447   2.394  0.1069 -1.0627  1.3917
  150MOL   H10039138   4.235   0.661   2.475 -0.0588  0.4271  1.6548
  150MOL   H10139139   4.068   0.594   2.431  0.4141  3.0040  0.4236
  150MOL   H10239140   4.281   0.501   2.643 -1.1905 -0.9943  1.1435
  150MOL   H10339141   4.139   0.390   2.608  1.2385 -0.6001  0.2040
  150MOL   H10439142   4.204   0.408   2.124  0.9431  0.4287  0.1622
  150MOL   H10539143   4.117   0.518   2.214  0.6128  0.0141  0.2943
  150MOL   C10639144   4.001   0.367   2.117  0.6814  0.4903 -0.8575
  150MOL   C10739145   3.872   0.402   2.178 -0.0111  0.2087 -0.3163
  150MOL   C10839146   3.741   0.321   2.158  0.5235  0.2125 -0.0136
  150MOL   C10939147   3.812   0.315   2.286 -0.3297 -0.1439 -0.4135
  150MOL   C11039148   4.016   0.419   1.969 -0.6981  0.5410  0.2355
  150MOL   H11139149   4.013   0.260   2.099 -0.5478  0.1721  0.1584
  150MOL   H11239150   3.860   0.509   2.186  0.0710  0.0828  2.0254
  150MOL   H11339151   3.648   0.378   2.150  0.4911  0.2177  0.3849
  150MOL   H11439152   3.749   0.247   2.079 -0.2541  1.6158 -1.4282
  150MOL   H11539153   3.849   0.218   2.318 -3.2585 -1.7354 -1.6588
  150MOL   H11639154   3.773   0.376   2.367 -1.7928 -1.0861 -0.3849
  150MOL   H11739155   4.061   0.519   1.966 -1.1188  0.7260 -0.0359
  150MOL   H11839156   4.097   0.368   1.917 -2.7464  0.3998 -2.9321
  150MOL   C11939157   3.890   0.410   1.872  0.0175  0.0436 -0.1176
  150MOL   C12039158   3.917   0.506   1.749  0.1509 -0.6258 -0.0950
  150MOL   C12139159   3.876   0.654   1.761  0.5113  0.3055 -0.0573
  150MOL   C12239160   3.802   0.565   1.667 -0.8029 -0.4418  0.0878
  150MOL   C12339161   3.890   0.268   1.823 -1.0712  0.5306  0.1161
  150MOL   H12439162   3.795   0.433   1.920 -0.1056  1.3764 -0.9432
  150MOL   H12539163   4.000   0.471   1.688 -0.3803 -1.9792 -0.0643
  150MOL   H12639164   3.944   0.725   1.715  0.9941  1.6893  2.6912
  150MOL   H12739165   3.835   0.681   1.858  0.8811 -0.6296  0.3706
  150MOL   H12839166   3.701   0.535   1.695 -1.2150  1.7205  1.0564
  150MOL   H12939167   3.822   0.571   1.560 -0.4080  0.9148  0.2284
  150MOL   H13039168   3.975   0.246   1.759 -0.4636 -1.6084  1.5896
  150MOL   H13139169   3.924   0.195   1.897 -0.9465  0.0499 -0.4109
  150MOL   C13239170   3.772   0.198   1.758  0.3655 -0.1807 -0.1567
  150MOL   C13339171   3.650   0.188   1.842  0.4693 -0.0304 -0.4210
  150MOL   C13439172   3.510   0.198   1.782  0.5828  0.1167 -0.2712
  150MOL   C13539173   3.560   0.307   1.874  0.3000 -0.1293 -0.6795
  150MOL   C13639174   3.806   0.049   1.711  0.2571 -0.2844 -0.0503
  150MOL   H13739175   3.743   0.251   1.667  0.5786  0.1380 -0.0392
  150MOL   H13839176   3.657   0.118   1.925 -2.5775 -1.0573 -0.9784
  150MOL   H13939177   3.495   0.224   1.677 -0.1397  0.4999 -0.0758
  150MOL   H14039178   3.446   0.120   1.823  0.3993  0.0505 -0.6816
  150MOL   H14139179   3.564   0.400   1.817  1.9633 -0.1631 -0.6654
  150MOL   H14239180   3.525   0.295   1.976  1.6633 -1.2294 -0.3139
  150MOL   H14339181   3.836   7.824   1.793 -0.5082 -0.1669  0.3200
  150MOL   H14439182   3.714   7.836   1.686 -0.2292 -0.3663  1.8980
  150MOL   C14539183   3.907   0.033   1.588 -0.0617 -0.1638  0.8283
  150MOL   C14639184   3.848   0.113   1.466  0.0211 -0.5807  0.9806
  150MOL   C14739185   3.881   0.255   1.430 -0.2057  0.2993 -0.1320
  150MOL   C14839186   3.928   0.145   1.343  0.4840  0.4135 -0.3784
  150MOL   C14939187   4.057   0.049   1.618  0.1254 -0.2774  0.8138
  150MOL   H15039188   3.888   7.771   1.552  1.0139 -0.3479  0.7656
  150MOL   H15139189   3.745   0.087   1.441 -0.3416  1.5815  0.1455
  150MOL   H15239190   3.806   0.319   1.384 -0.9654 -1.0528 -0.8408
  150MOL   H15339191   3.954   0.299   1.497  1.1838  0.5728 -1.7786
  150MOL   H15439192   4.036   0.131   1.348  0.1829 -1.7364  0.7620
  150MOL   H15539193   3.887   0.141   1.243 -0.9130  1.7967  0.1178
  150MOL   H15639194   4.114   7.838   1.540  1.1870 -0.0621  1.4491
  150MOL   H15739195   4.084   0.154   1.615  1.4980 -0.5805  1.9609
  150MOL   C15839196   4.114   7.820   1.746 -0.9643  0.6746 -1.0365
  150MOL   C15939197   4.261   0.006   1.775 -0.3281 -0.1477  0.6411
  150MOL   C16039198   4.326   0.150   1.788  0.5666  0.1235  0.1052
  150MOL   C16139199   4.305   0.061   1.907  0.0570 -0.8642  0.2792
  150MOL   C16239200   4.086   7.664   1.731 -0.0233  0.1158 -0.9525
  150MOL   H16339201   4.054   0.020   1.828 -0.6940 -0.0177 -0.5064
  150MOL   H16439202   4.324   7.777   1.717 -0.6380 -0.6138  0.8468
  150MOL   H16539203   4.269   0.243   1.792  0.7401  0.2399 -0.0951
  150MOL   H16639204   4.421   0.168   1.738  0.9249  2.0077  1.4017
  150MOL   H16739205   4.385   7.839   1.948 -0.0315 -1.2719 -0.1520
  150MOL   H16839206   4.235   0.105   1.978 -0.0500  1.2538 -1.1271
  150MOL   H16939207   4.156   7.634   1.653 -1.1134 -3.0764 -0.7693
  150MOL   H17039208   3.989   7.638   1.689 -0.2923  0.4262 -0.5303
  150MOL   C17139209   4.100   7.580   1.856 -0.7747  0.6719  0.3397
  150MOL   C17239210   4.006   7.613   1.970  0.5373  0.6102 -0.3992
  150MOL   C17339211   4.033   7.586   2.118 -0.3767 -1.0829 -0.1120
  150MOL   C17439212   4.030   7.724   2.061 -0.5001 -0.6867  0.1393
  150MOL   C17539213   4.073   7.428   1.811  0.3228 -0.2271  0.0332
  150MOL   H17639214   4.206   7.596   1.880  0.0169  0.9329 -3.0778
  150MOL   H17739215   3.902   7.600   1.940 -0.7759  0.5966  3.8706
  150MOL   H17839216   3.953   7.579   2.192  0.7479  0.8645  1.3493
  150MOL   H17939217   4.125   7.536   2.146  1.2509  2.0206  0.3505
  150MOL   H18039218   4.123   7.779   2.054 -0.6908 -0.3596  0.1474
  150MOL   H18139219   3.942   7.782   2.086 -1.1060 -1.4628 -0.1423
  150MOL   H18239220   4.129   7.411   1.719 -1.4553  0.2810 -1.1645
  150MOL   H18339221   3.967   7.418   1.789  0.4443 -1.8884  0.1504
  150MOL   C18439222   4.115   7.323   1.909  0.1497 -0.6051  0.1108
  150MOL   C18539223   4.266   7.311   1.922  0.4296 -0.3530 -0.4063
  150MOL   C18639224   4.332   7.266   2.052  0.0011  0.3457 -0.7075
  150MOL   C18739225   4.367   7.404   1.997 -0.3457 -0.1949  0.1208
  150MOL   C18839226   4.050   7.185   1.878 -0.7232  0.4907  0.0998
  150MOL   H18939227   4.072   7.349   2.005 -3.1015 -0.4660 -1.2874
  150MOL   H19039228   4.315   7.268   1.835  0.0300 -0.9228 -0.3536
  150MOL   H19139229   4.423   7.207   2.059 -0.2885 -0.0977 -0.6687
  150MOL   H19239230   4.273   7.276   2.143  1.2084  0.7191  0.0491
  150MOL   H19339231   4.469   7.420   1.964 -0.0315  0.3195  1.3223
  150MOL   H19439232   4.328   7.497   2.037  1.0685  1.6691 -2.7018
  150MOL   H19539233   4.089   7.140   1.786  0.3519 -0.3259  0.9480
  150MOL   H19639234   3.944   7.206   1.861 -0.7217 -1.1889 -2.3577
  150MOL   C19739235   4.055   7.082   1.986  0.1125  0.1475 -0.8566
  150MOL   C19839236   4.042   6.940   1.941 -0.3015 -0.7972 -0.0356
  150MOL   C19939237   4.070   6.884   1.804  0.2226 -0.2683 -0.6264
  150MOL   C20039238   3.927   6.901   1.856  0.4577  0.1702 -0.6369
  150MOL   C20139239   3.945   7.108   2.088  0.4160  0.5610 -0.1780
  150MOL   H20239240   4.148   7.095   2.042 -1.7932  0.5478  2.3306
  150MOL   H20339241   4.072   6.868   2.016 -2.0338 -1.8571 -0.3363
  150MOL   H20439242   4.114   6.947   1.726  1.4251 -1.5686 -1.0140
  150MOL   H20539243   4.103   6.781   1.796  1.3552 -0.0088  0.6025
  150MOL   H20639244   3.864   6.977   1.811  1.0618  1.4856  0.6725
  150MOL   H20739245   3.865   6.818   1.888 -1.3950  2.5755  2.2759
  150MOL   H20839246   3.952   7.211   2.123  0.6172 -0.3415  2.5661
  150MOL   H20939247   3.847   7.104   2.042  0.5587  1.7791 -0.5911
  150MOL   C21039248   3.955   7.030   2.226 -0.0665  0.1501  0.4215
  150MOL   C21139249   4.077   7.069   2.303  0.1862  0.0801 -0.0508
  150MOL   C21239250   4.130   6.981   2.413  0.4505 -0.4196  0.7302
  150MOL   C21339251   4.201   6.991   2.284 -0.1543 -0.1990 -0.2406
  150MOL   C21439252   3.820   7.041   2.309  0.0927  0.5361 -0.3727
  150MOL   H21539253   3.964   6.922   2.212  0.0900  0.4547 -2.1722
  150MOL   H21639254   4.093   7.176   2.316  1.3015 -0.2512  1.4818
  150MOL   H21739255   4.171   7.039   2.496 -0.6907  1.4010  0.0640
  150MOL   H21839256   4.077   6.892   2.445 -0.4672 -0.4929 -0.9532
  150MOL   H21939257   4.299   7.037   2.292  0.3897 -1.5368  0.9195
  150MOL   H22039258   4.196   6.909   2.213 -3.6587  0.5650 -0.9464
  150MOL   H22139259   3.742   6.984   2.258 -1.3321 -0.1507  2.4957
  150MOL   H22239260   3.828   6.969   2.390 -1.6851 -0.8395 -1.3794
  150MOL   C22339261   3.779   7.185   2.358 -0.1159 -0.5623 -0.8263
  150MOL   C22439262   3.777   7.186   2.510 -0.3419  0.8268  0.0456
  150MOL   C22539263   3.899   7.193   2.587 -0.7281  0.5224 -0.6736
  150MOL   C22639264   3.809   7.316   2.574 -0.4102  0.0498  0.1448
  150MOL   C22739265   3.635   7.201   2.310 -0.2818  0.1304  0.3912
  150MOL   H22839266   3.849   7.262   2.325 -1.1539 -0.4687 -2.8929
  150MOL   H22939267   3.693   7.130   2.551 -1.3409  0.2565 -2.6238
  150MOL   H23039268   3.998   7.202   2.543  0.1884 -1.2609  0.9607
  150MOL   H23139269   3.889   7.140   2.682 -0.2992  0.3581 -0.7184
  150MOL   H23239270   3.735   7.358   2.641 -2.3476 -1.3782 -1.0393
  150MOL   H23339271   3.853   7.395   2.513 -2.4457  1.7793  0.8515
  150MOL   H23439272   3.631   7.185   2.203 -0.0236 -0.7557  0.5083
  150MOL   H23539273   3.569   7.120   2.344 -0.5940 -0.6847 -2.0956
  150MOL   C23639274   3.563   7.336   2.332  0.3374 -0.9237 -0.2980
  150MOL   C23739275   3.406   7.333   2.329 -0.2954  0.3789 -0.0333
  150MOL   C23839276   3.327   7.272   2.443  0.1347  0.4538  0.2087
  150MOL   C23939277   3.316   7.418   2.402  0.3743 -0.4198 -0.6835
  150MOL   C24039278   3.623   7.442   2.248 -0.0714  0.1690 -0.0284
  150MOL   H24139279   3.593   7.370   2.431  1.4794  0.2110 -1.0260
  150MOL   H24239280   3.365   7.292   2.237  2.5321 -2.6138 -0.0530
  150MOL   H24339281   3.250   7.202   2.414 -0.3478  1.5402 -1.1882
  150MOL   H24439282   3.382   7.254   2.535  2.3653  1.1640 -0.9336
  150MOL   H24539283   3.360   7.483   2.478  0.4873 -0.1732 -0.9610
  150MOL   H24639284   3.219   7.460   2.379 -0.1909  0.7420  3.4108
  150MOL   H24739285   3.731   7.438   2.262 -0.0175 -0.5498 -0.6344
  150MOL   H24839286   3.607   7.416   2.143  0.5238  2.1901 -0.6426
  150MOL   C24939287   3.584   7.591   2.282  0.3016 -0.1866 -0.0951
  150MOL   C25039288   3.652   7.675   2.174 -0.5186 -0.7008 -0.5388
  150MOL   C25139289   3.564   7.734   2.067 -0.1101 -0.1897  0.1590
  150MOL   C25239290   3.630   7.826   2.167 -0.1422 -0.1175 -0.4046
  150MOL   C25339291   3.647   7.624   2.418 -0.6735  0.0352  0.4633
  150MOL   H25439292   3.478   7.616   2.289  0.4581 -0.1580  2.6833
  150MOL   H25539293   3.752   7.646   2.143  0.0557 -0.4164  1.0073
  150MOL   H25639294   3.604   7.729   1.965  1.2199  0.9900  0.6122
  150MOL   H25739295   3.458   7.714   2.081 -0.1116 -1.8449 -1.9683
  150MOL   H25839296   3.715   0.047   2.137  1.1049 -1.1974  0.8771
  150MOL   H25939297   3.566   0.030   2.244  2.2583 -0.8930  2.1069
  150MOL   H26039298   3.606   7.587   2.512  1.7938 -1.2181  1.0751
  150MOL   H26139299   3.647   7.732   2.435  1.4762  0.1198  0.0399
  150MOL   H26239300   3.753   7.600   2.425  0.0780  2.7371 -0.9766
  151MOL     C139301   4.314   7.275   5.378 -0.4889  0.0828 -0.1687
  151MOL     C239302   4.423   7.376   5.372  0.1438 -0.4788 -0.0211
  151MOL     C339303   4.449   7.460   5.493  0.3873 -0.6997  0.9943
  151MOL     C439304   4.389   7.526   5.368 -0.2962  0.2600 -0.4856
  151MOL     C539305   4.356   7.139   5.436 -0.7095  0.6679 -1.2196
  151MOL     H639306   4.235   7.318   5.440 -0.9014  1.9734 -1.9808
  151MOL     H739307   4.521   7.342   5.339  0.2479  0.1283 -0.3396
  151MOL     H839308   4.386   7.457   5.581 -0.3572  1.0439  0.5544
  151MOL     H939309   4.553   7.487   5.514  0.2936 -0.1581  0.7886
  151MOL    H1039310   4.460   7.591   5.318  1.8933 -2.5505 -1.1356
  151MOL    H1139311   4.287   7.563   5.379 -0.8165 -1.7644  2.1499
  151MOL    H1239312   4.418   7.152   5.525 -0.6254 -0.9669 -1.0207
  151MOL    H1339313   4.435   7.105   5.368 -0.5090  0.3325 -0.8231
  151MOL    H1439314   4.275   7.270   5.277 -0.5703 -0.9177 -0.0888
  151MOL    C1539315   4.252   7.031   5.462 -0.4571 -0.2315  0.4128
  151MOL    C1639316   4.153   7.077   5.573  0.1709  0.3503  0.0535
  151MOL    C1739317   4.174   7.056   5.717 -0.4783  0.8325 -0.6316
  151MOL    C1839318   4.070   6.971   5.647  0.9768  0.2379 -0.0641
  151MOL    C1939319   4.176   6.983   5.341 -0.5664 -0.1053 -0.3615
  151MOL    H2039320   4.307   6.952   5.514 -0.0484  0.0781  0.4511
  151MOL    H2139321   4.105   7.170   5.544 -0.4087 -0.3945 -1.4885
  151MOL    H2239322   4.124   7.119   5.790 -1.5081 -2.3271  1.4856
  151MOL    H2339323   4.255   6.997   5.759  0.4270  1.5240 -1.3612
  151MOL    H2439324   4.096   6.869   5.619  3.1511  0.3032  1.5781
  151MOL    H2539325   3.963   6.990   5.642  0.6619 -0.6479  2.3811
  151MOL    H2639326   4.106   7.058   5.302  0.6288  0.8885 -0.6138
  151MOL    H2739327   4.125   6.896   5.383  1.0889  0.4729  3.0342
  151MOL    C2839328   4.259   6.943   5.220  0.2536  0.2880  0.8557
  151MOL    C2939329   4.162   6.890   5.111 -0.1503  0.1879 -0.1613
  151MOL    C3039330   4.065   6.987   5.038 -0.2598 -0.2758 -0.2613
  151MOL    C3139331   4.183   6.915   4.967  0.1505 -0.5562 -0.1159
  151MOL    C3239332   4.357   6.830   5.257 -0.1987 -0.0856 -0.0345
  151MOL    H3339333   4.315   7.028   5.183 -0.9318  1.3971  1.5297
  151MOL    H3439334   4.110   6.799   5.140  0.7233 -1.8338 -4.4461
  151MOL    H3539335   4.070   7.091   5.068  0.0276 -0.8744  1.8330
  151MOL    H3639336   3.965   6.954   5.012  0.2410 -0.3882 -2.1633
  151MOL    H3739337   4.257   6.990   4.939 -1.0294  0.3585 -0.8638
  151MOL    H3839338   4.167   6.829   4.902 -1.1118  0.3050 -0.9805
  151MOL    H3939339   4.292   6.756   5.304 -0.9339  0.2868 -0.4552
  151MOL    H4039340   4.425   6.870   5.332  0.0472 -1.2951  0.4007
  151MOL    C4139341   4.426   6.745   5.148 -0.3077  0.0488  0.1044
  151MOL    C4239342   4.521   6.643   5.215  0.2909 -0.4562 -0.3911
  151MOL    C4339343   4.500   6.592   5.359  0.7430  0.6072 -0.1532
  151MOL    C4439344   4.616   6.676   5.325 -0.3966  0.2655 -0.5781
  151MOL    C4539345   4.497   6.830   5.048 -0.6331  0.0600  0.6375
  151MOL    H4639346   4.350   6.688   5.094  0.9102 -0.4754 -1.0570
  151MOL    H4739347   4.570   6.578   5.142 -0.0364 -1.2865  0.1216
  151MOL    H4839348   4.416   6.629   5.418  0.0115  1.3949 -1.6879
  151MOL    H4939349   4.502   6.485   5.378 -2.9916  0.3748 -0.6557
  151MOL    H5039350   4.720   6.646   5.316  0.2400  1.9573  0.8206
  151MOL    H5139351   4.618   6.780   5.357 -0.2531  0.3035 -0.7160
  151MOL    H5239352   4.575   6.888   5.098 -0.2748 -0.7628  1.0405
  151MOL    H5339353   4.425   6.908   5.023  0.3897  1.0262  0.6302
  151MOL    C5439354   4.550   6.762   4.926  0.0953 -0.1256 -1.1881
  151MOL    C5539355   4.439   6.716   4.832  0.5934  0.0509 -0.0548
  151MOL    C5639356   4.358   6.588   4.857  0.5647  0.0242 -0.0450
  151MOL    C5739357   4.457   6.597   4.740  0.1352 -0.0530 -0.9085
  151MOL    C5839358   4.644   6.857   4.858 -0.2222  0.1393 -1.0754
  151MOL    H5939359   4.616   6.678   4.948  0.9173  0.5639 -0.9598
  151MOL    H6039360   4.379   6.793   4.784 -2.1930 -1.4214  0.9119
  151MOL    H6139361   4.382   6.516   4.935  0.1212 -0.0326  0.0421
  151MOL    H6239362   4.252   6.585   4.833  0.3185  1.0396  0.8794
  151MOL    H6339363   4.410   6.605   4.642  1.4668 -1.6358 -1.7033
  151MOL    H6439364   4.545   6.534   4.747  0.0575 -0.0530  0.0875
  151MOL    H6539365   4.656   6.823   4.755 -0.5244 -0.3869 -0.9360
  151MOL    H6639366   4.608   6.960   4.854 -0.3946  0.0315 -2.9120
  151MOL    C6739367   4.792   6.863   4.907 -0.2566 -0.1594  0.5287
  151MOL    C6839368   4.869   6.736   4.853 -0.1257 -0.5241  0.2239
  151MOL    C6939369   5.009   6.703   4.912  0.2286 -0.1761 -0.4093
  151MOL    C7039370   4.882   6.619   4.944 -0.2463  0.1780 -0.2339
  151MOL    C7139371   4.865   6.994   4.867  0.1789  0.2015 -0.4321
  151MOL    H7239372   4.802   6.850   5.015 -1.2736  3.0265  1.0622
  151MOL    H7339373   4.865   6.721   4.745 -0.7606 -2.0428  0.4552
  151MOL    H7439374   5.083   6.661   4.845  1.2196 -0.0110  0.5711
  151MOL    H7539375   5.057   6.775   4.978  1.0196 -1.2548  0.2007
  151MOL    H7639376   4.843   6.633   5.045  1.0948  1.5481  0.1022
  151MOL    H7739377   4.869   6.518   4.905 -2.1016 -0.2525  1.3674
  151MOL    H7839378   4.805   7.020   4.780 -2.1262 -2.1730  0.3950
  151MOL    H7939379   4.965   6.978   4.825  0.6276 -1.7207  1.2714
  151MOL    C8039380   4.880   7.100   4.982 -0.4611  0.4588 -0.0886
  151MOL    C8139381   4.892   7.239   4.925  0.4733 -0.4758  0.0924
  151MOL    C8239382   4.837   7.361   4.982  0.1000  0.4529  0.4498
  151MOL    C8339383   4.764   7.291   4.867  0.1737  0.9083  0.4886
  151MOL    C8439384   5.008   7.076   5.065 -0.2524  1.3857  0.4561
  151MOL    H8539385   4.792   7.086   5.045  0.8067 -1.8850  1.2179
  151MOL    H8639386   4.981   7.247   4.863  0.0443 -1.3939 -0.6658
  151MOL    H8739387   4.871   7.462   4.958  1.1447  0.0526  0.2428
  151MOL    H8839388   4.799   7.352   5.084 -0.3272 -3.7822 -0.0088
  151MOL    H8939389   4.678   7.225   4.878  1.6374 -1.5046 -1.8463
  151MOL    H9039390   4.788   7.332   4.769  2.6264 -3.1303 -0.7223
  151MOL    H9139391   5.028   6.970   5.081 -0.8662  1.3032  0.6974
  151MOL    H9239392   5.099   7.115   5.019  0.6100 -0.0101  0.9319
  151MOL    C9339393   4.994   7.139   5.209 -0.2461 -0.2432  0.3895
  151MOL    C9439394   4.887   7.065   5.294 -0.0720  0.7004 -0.1167
  151MOL    C9539395   4.825   7.129   5.420  0.1498 -0.3940 -0.0748
  151MOL    C9639396   4.739   7.102   5.297  0.1617 -0.1516 -0.2926
  151MOL    C9739397   5.134   7.143   5.285 -0.4391  0.1335 -0.2222
  151MOL    H9839398   4.962   7.241   5.191 -0.0187 -0.1673  0.4088
  151MOL    H9939399   4.912   6.960   5.286  1.8177  1.0538  0.8693
  151MOL   H10039400   4.822   7.063   5.506 -1.6673  0.7717  0.7926
  151MOL   H10139401   4.850   7.234   5.435 -2.7451  0.5973 -1.6250
  151MOL   H10239402   4.663   7.025   5.290  0.8762 -0.8916  0.0609
  151MOL   H10339403   4.725   7.194   5.241  0.0401  1.0844  1.7275
  151MOL   H10439404   5.189   7.049   5.269  0.7042  0.6087  0.8604
  151MOL   H10539405   5.110   7.149   5.391  0.7587 -0.0316  0.0650
  151MOL   C10639406   5.232   7.255   5.247 -0.3890 -0.5934 -0.3799
  151MOL   C10739407   5.171   7.396   5.242  0.2476 -0.0715 -0.6264
  151MOL   C10839408   5.241   7.508   5.175  0.7057 -0.3807  0.2007
  151MOL   C10939409   5.106   7.461   5.118 -0.5961 -0.8159 -0.1853
  151MOL   C11039410   5.348   7.250   5.347  0.1514  0.5221 -0.7188
  151MOL   H11139411   5.265   7.234   5.145 -0.7101 -3.6779  0.1036
  151MOL   H11239412   5.140   7.422   5.343 -1.9369  0.2490 -1.3697
  151MOL   H11339413   5.239   7.598   5.236  1.7288 -0.9120  1.0380
  151MOL   H11439414   5.332   7.479   5.123  0.8804 -1.9259  1.3381
  151MOL   H11539415   5.115   7.419   5.018  0.4734 -0.9833 -0.0278
  151MOL   H11639416   5.021   7.527   5.130  1.0066  1.1260  0.9054
  151MOL   H11739417   5.403   7.344   5.346  0.3418  0.4175 -0.3637
  151MOL   H11839418   5.305   7.253   5.447  1.8442 -0.7405  0.0871
  151MOL   C11939419   5.454   7.131   5.352 -0.4677  0.0432  0.2447
  151MOL   C12039420   5.533   7.147   5.224  0.0607 -0.2670 -0.8656
  151MOL   C12139421   5.478   7.097   5.092  0.0237  0.0889 -0.6365
  151MOL   C12239422   5.595   7.027   5.164 -0.1620 -0.0246  0.0639
  151MOL   C12339423   5.539   7.156   5.479 -0.3201  0.2769  0.7162
  151MOL   H12439424   5.398   7.038   5.359 -0.2270  0.0293  2.0002
  151MOL   H12539425   5.585   7.243   5.222 -3.9614  2.1775  2.5758
  151MOL   H12639426   5.502   7.137   4.994  2.8479  2.5151  0.9588
  151MOL   H12739427   5.379   7.051   5.090  1.6115 -3.4643 -2.3763
  151MOL   H12839428   5.580   6.935   5.220 -2.1486  1.0861  1.4350
  151MOL   H12939429   5.697   7.044   5.132  0.4520 -1.2780  1.3022
  151MOL   H13039430   5.596   7.248   5.462 -0.0862  0.1413  0.7773
  151MOL   H13139431   5.472   7.180   5.561 -1.4377 -0.2208 -0.0379
  151MOL   C13239432   5.633   7.039   5.520  0.0057 -0.4026  0.0930
  151MOL   C13339433   5.555   6.909   5.563 -0.5951 -0.4175 -0.1131
  151MOL   C13439434   5.408   6.907   5.599  0.7215 -0.6650 -0.3017
  151MOL   C13539435   5.504   6.899   5.711 -0.6198 -0.2525  0.1250
  151MOL   C13639436   5.744   7.081   5.623 -0.4839 -0.9048 -0.2404
  151MOL   H13739437   5.689   7.016   5.429  1.6662 -1.8406  1.4480
  151MOL   H13839438   5.596   6.821   5.513 -0.6052 -0.2111 -0.4905
  151MOL   H13939439   5.339   6.991   5.590  0.6597 -0.4456  1.8285
  151MOL   H14039440   5.353   6.819   5.569 -1.5729 -0.4361  2.9970
  151MOL   H14139441   5.521   6.990   5.766  3.8034  0.8269 -2.7505
  151MOL   H14239442   5.504   6.799   5.755 -1.0975 -0.2764  0.0688
  151MOL   H14339443   5.692   7.146   5.693  0.1298  0.1142 -0.7050
  151MOL   H14439444   5.784   6.992   5.671 -0.7782 -1.3944 -0.9058
  151MOL   C14539445   5.856   7.170   5.565  0.2513 -0.1657  0.5287
  151MOL   C14639446   5.901   7.265   5.672 -0.0192 -0.1704 -0.3788
  151MOL   C14739447   5.917   7.411   5.655 -0.5617  0.2762 -0.5640
  151MOL   C14839448   5.802   7.361   5.742  0.2861 -0.1632  0.1613
  151MOL   C14939449   5.972   7.093   5.501 -0.5979  0.3159  0.6604
  151MOL   H15039450   5.811   7.231   5.487  4.4154  1.1779 -0.9625
  151MOL   H15139451   5.961   7.215   5.747 -1.9459 -2.4474 -0.3256
  151MOL   H15239452   5.997   7.457   5.712 -0.6902 -0.9140  0.5946
  151MOL   H15339453   5.920   7.431   5.548 -3.1350 -1.4745 -1.0329
  151MOL   H15439454   5.703   7.377   5.701 -0.4493 -0.1084  1.9454
  151MOL   H15539455   5.822   7.378   5.848  2.7573 -0.8179 -0.1724
  151MOL   H15639456   6.036   7.057   5.581 -0.0206 -0.6039 -0.2063
  151MOL   H15739457   5.936   7.006   5.446  0.4011  1.5470 -2.0447
  151MOL   C15839458   6.060   7.180   5.405  1.0063  0.4201  0.5824
  151MOL   C15939459   5.979   7.222   5.281 -0.5256 -0.2780 -0.1131
  151MOL   C16039460   5.899   7.348   5.271 -0.3694  0.7186 -0.8380
  151MOL   C16139461   6.024   7.334   5.185  0.6500  0.4497 -0.0085
  151MOL   C16239462   6.203   7.122   5.371 -0.2979 -0.3534  0.2048
  151MOL   H16339463   6.088   7.271   5.459  1.9590 -0.6628  1.9484
  151MOL   H16439464   5.939   7.138   5.225 -1.1734  0.6190 -1.0101
  151MOL   H16539465   5.887   7.408   5.361  1.3949 -1.1287  0.6555
  151MOL   H16639466   5.798   7.336   5.231 -1.2219  1.0050  1.1438
  151MOL   H16739467   5.995   7.325   5.080 -1.1779 -0.6151  0.5648
  151MOL   H16839468   6.113   7.394   5.206  0.6082  0.2241  0.7979
  151MOL   H16939469   6.259   7.200   5.320 -1.0679  0.8292  1.1233
  151MOL   H17039470   6.182   7.043   5.299 -0.0440  0.1167 -0.3872
  151MOL   C17139471   6.288   7.066   5.486 -0.6531  0.1545 -0.2246
  151MOL   C17239472   6.420   7.006   5.448 -0.3872  0.4924  0.3623
  151MOL   C17339473   6.454   6.989   5.305 -0.8035 -0.0488 -0.3476
  151MOL   C17439474   6.531   7.091   5.385  0.6625 -0.1757  0.5902
  151MOL   C17539475   6.299   7.169   5.606 -0.5293 -0.0371 -0.3532
  151MOL   H17639476   6.223   6.988   5.528 -0.0301 -0.8167 -1.0434
  151MOL   H17739477   6.453   6.928   5.517  0.2666 -0.2405 -0.7769
  151MOL   H17839478   6.519   6.910   5.267  0.1927  1.3610 -1.6069
  151MOL   H17939479   6.386   7.029   5.230 -0.5830 -0.4805 -0.7806
  151MOL   H18039480   6.509   7.195   5.361 -1.7340 -0.9970 -0.8881
  151MOL   H18139481   6.632   7.070   5.418  0.9429 -0.3905 -0.4067
  151MOL   H18239482   6.198   7.205   5.622  0.0231  1.3081  0.2063
  151MOL   H18339483   6.358   7.254   5.571 -2.0468  0.2962 -2.1845
  151MOL   C18439484   6.363   7.125   5.739  0.4275  0.3493  0.9406
  151MOL   C18539485   6.511   7.093   5.731 -0.5911 -0.3622 -0.0518
  151MOL   C18639486   6.609   7.154   5.834  0.2253 -0.0523 -0.3558
  151MOL   C18739487   6.612   7.203   5.688 -0.1729  0.9030 -0.9194
  151MOL   C18839488   6.282   7.011   5.808  0.4264  0.0122 -0.0860
  151MOL   H18939489   6.341   7.211   5.802  1.4098  0.2800  1.3802
  151MOL   H19039490   6.528   6.992   5.696 -0.2124  0.5099 -2.4287
  151MOL   H19139491   6.695   7.093   5.860  0.6309  1.0751  0.9481
  151MOL   H19239492   6.568   7.229   5.901 -0.0798  1.6500 -2.4041
  151MOL   H19339493   6.689   7.163   5.623  1.4234  0.1872  1.3791
  151MOL   H19439494   6.572   7.298   5.654  1.3127  1.8273 -0.1344
  151MOL   H19539495   6.296   6.917   5.753  1.1156  0.5979 -0.9413
  151MOL   H19639496   6.175   7.029   5.798  0.3435  0.3781  1.3541
  151MOL   C19739497   6.332   6.985   5.954 -0.4401  0.2353 -0.0561
  151MOL   C19839498   6.269   6.848   5.995  0.6626  0.5930  0.6901
  151MOL   C19939499   6.335   6.774   6.110 -0.0950 -0.1591 -0.8536
  151MOL   C20039500   6.334   6.711   5.979  0.2507  0.4738 -0.0834
  151MOL   C20139501   6.322   7.096   6.066 -0.3007  0.1764  0.3528
  151MOL   H20239502   6.439   6.963   5.948 -0.6582 -0.9563  0.3276
  151MOL   H20339503   6.161   6.840   6.002  0.8572 -2.1872  0.9030
  151MOL   H20439504   6.430   6.813   6.148  0.2594 -0.5460 -1.3503
  151MOL   H20539505   6.276   6.716   6.181 -1.1174  1.0629 -0.6845
  151MOL   H20639506   6.417   6.713   5.909 -0.5781 -1.3987 -1.1577
  151MOL   H20739507   6.264   6.631   5.958  1.3759 -0.6823  0.5270
  151MOL   H20839508   6.353   7.056   6.163  0.9955 -0.0711 -0.1443
  151MOL   H20939509   6.401   7.169   6.051 -2.2186  2.6348  1.8540
  151MOL   C21039510   6.188   7.166   6.082  0.0298  0.3420  0.1194
  151MOL   C21139511   6.064   7.089   6.113 -0.4875 -0.1496  0.3514
  151MOL   C21239512   5.930   7.153   6.110 -0.9533  0.0795 -0.2679
  151MOL   C21339513   5.955   7.038   6.013 -0.5534  0.7849  0.2098
  151MOL   C21439514   6.198   7.276   6.190  0.7185 -0.2054 -0.1668
  151MOL   H21539515   6.167   7.223   5.991 -1.3461 -1.9089 -1.0093
  151MOL   H21639516   6.081   7.024   6.199  1.3279 -1.1623 -0.7580
  151MOL   H21739517   5.864   7.129   6.193  0.4360  0.1688  0.8900
  151MOL   H21839518   5.925   7.252   6.065  2.6683 -1.0911 -3.5238
  151MOL   H21939519   5.895   6.951   6.038  1.1649 -0.2571  0.8013
  151MOL   H22039520   5.988   7.043   5.909 -0.7379 -1.2219  0.0422
  151MOL   H22139521   6.109   7.297   6.250  0.6098 -1.3673  0.0853
  151MOL   H22239522   6.266   7.237   6.265  1.5302 -0.3109 -0.9522
  151MOL   C22339523   6.251   7.415   6.148  0.2478 -0.8387  0.2704
  151MOL   C22439524   6.311   7.486   6.266 -0.8643 -0.0383  0.2866
  151MOL   C22539525   6.456   7.460   6.295 -0.4470  0.3430 -0.0931
  151MOL   C22639526   6.412   7.598   6.249  0.2520  0.5152 -0.6715
  151MOL   C22739527   6.136   7.494   6.083 -0.0103  0.4236 -0.4644
  151MOL   H22839528   6.322   7.408   6.066 -0.0538 -0.0935 -0.0586
  151MOL   H22939529   6.245   7.487   6.352 -1.3698 -3.0425  0.0041
  151MOL   H23039530   6.495   7.386   6.226  1.0860  2.0014 -1.0558
  151MOL   H23139531   6.480   7.435   6.398  1.5981 -2.2179 -1.1402
  151MOL   H23239532   6.404   7.679   6.320  1.4338  0.8141 -0.8676
  151MOL   H23339533   6.435   7.634   6.149 -0.2102  1.9681 -0.2618
  151MOL   H23439534   6.069   7.434   6.022 -1.3636 -0.0797  1.4623
  151MOL   H23539535   6.066   7.531   6.157 -2.3003 -1.6896 -1.4796
  151MOL   C23639536   6.179   7.609   5.989  0.8077  0.0131  0.7102
  151MOL   C23739537   6.055   7.690   5.948 -0.7785 -0.4502 -0.7414
  151MOL   C23839538   5.991   7.778   6.057 -0.8176  0.0913  0.4319
  151MOL   C23939539   6.059   0.002   5.931 -0.3723  0.6612 -0.2359
  151MOL   C24039540   6.257   7.559   5.861 -0.1929  0.2087 -0.5029
  151MOL   H24139541   6.248   7.672   6.046  2.1297  0.4798 -1.3554
  151MOL   H24239542   5.980   7.637   5.891  1.1093 -2.7235 -1.1677
  151MOL   H24339543   5.882   7.777   6.057 -0.8191 -1.6487 -0.1472
  151MOL   H24439544   6.045   7.797   6.150 -0.9878 -2.1337  1.0043
  151MOL   H24539545   6.144   0.067   5.953  0.1298 -0.4776  1.3456
  151MOL   H24639546   5.990   0.046   5.861 -1.1916 -0.8390 -0.3991
  151MOL   H24739547   6.329   7.478   5.877 -1.0716 -1.0908 -2.7592
  151MOL   H24839548   6.190   7.493   5.806  0.3303  0.4769 -1.4841
  151MOL   C24939549   6.321   7.668   5.774  0.0046 -0.2224  0.4084
  151MOL   C25039550   6.355   7.614   5.634  0.2285  0.1505  0.0479
  151MOL   C25139551   6.258   7.587   5.527  0.1885 -0.0316  0.2753
  151MOL   C25239552   6.363   7.691   5.504 -0.1937 -0.6388  0.0788
  151MOL   C25339553   6.443   7.732   5.836  0.1764  0.6598 -0.5970
  151MOL   H25439554   6.251   7.748   5.751 -0.0029 -0.1811  0.5753
  151MOL   H25539555   6.424   7.531   5.642  0.3229 -0.0113 -2.0053
  151MOL   H25639556   6.261   7.491   5.475  0.0983 -0.7286  1.5532
  151MOL   H25739557   6.160   7.629   5.547 -0.3380 -0.6211 -0.9825
  151MOL   H25839558   6.456   7.671   5.452  0.6609  3.1186 -0.0157
  151MOL   H25939559   6.339   7.796   5.521  0.5739 -0.4406 -0.0320
  151MOL   H26039560   6.523   7.665   5.870 -0.7326  0.7191  1.7067
  151MOL   H26139561   6.413   7.783   5.927  0.3487  0.0579 -0.2005
  151MOL   H26239562   6.496   7.806   5.776  4.2940 -1.0751  0.6681
  152MOL     C139563   7.322   2.299   0.007  0.2521 -0.0095  0.2118
  152MOL     C239564   7.188   2.357   7.803  0.3609  0.0846 -0.1850
  152MOL     C339565   7.068   2.323   0.042  1.1452  0.7083 -0.2520
  152MOL     C439566   7.081   2.266   7.751  0.0968  0.2989  0.3918
  152MOL     C539567   7.412   2.281   7.726  0.0318  0.2620 -0.3537
  152MOL     H639568   7.371   2.364   0.080 -0.2122  4.3390 -3.1424
  152MOL     H739569   7.198   2.459   7.768 -1.5064  0.1848 -0.5116
  152MOL     H839570   7.068   2.261   0.131 -2.6985 -1.6094 -1.7409
  152MOL     H939571   7.000   2.407   0.047  1.7352  1.2590 -1.2076
  152MOL    H1039572   7.009   2.301   7.677  2.0419 -0.0066 -1.6843
  152MOL    H1139573   7.121   2.167   7.732 -3.2283 -1.1663  0.6667
  152MOL    H1239574   7.431   2.377   7.678  2.1082  0.0852  0.0451
  152MOL    H1339575   7.368   2.233   7.639 -0.3371  0.2223 -0.1441
  152MOL    H1439576   7.296   2.208   0.061  0.2031  0.4623  0.9922
  152MOL    C1539577   7.540   2.199   7.748 -0.2937  0.6815  1.2635
  152MOL    C1639578   7.633   2.247   0.020 -0.2364  0.5623 -0.1834
  152MOL    C1739579   7.737   2.353   0.003 -0.2591  0.1938  0.1205
  152MOL    C1839580   7.774   2.210   0.021 -0.1897  0.2067 -0.1181
  152MOL    C1939581   7.518   2.047   7.768 -0.2692 -0.0552  0.5677
  152MOL    H2039582   7.603   2.207   7.660 -0.0104  1.5369  1.5395
  152MOL    H2139583   7.583   2.254   0.116 -0.5600  0.7593 -0.3655
  152MOL    H2239584   7.753   2.421   0.085 -2.4116  1.1453 -0.2055
  152MOL    H2339585   7.757   2.402   7.747 -0.8207  0.4323  0.1201
  152MOL    H2439586   7.820   2.169   7.771  0.3699  1.0259 -0.2123
  152MOL    H2539587   7.818   2.172   0.114  0.0098 -0.1973 -0.3771
  152MOL    H2639588   7.433   2.031   7.834 -0.0947  0.8104  1.0156
  152MOL    H2739589   7.608   2.006   7.812  2.0423  0.9516 -3.0027
  152MOL    C2839590   7.467   1.978   7.638 -0.1101 -0.4137  0.0530
  152MOL    C2939591   7.380   1.860   7.668  0.2288  0.1740 -0.3676
  152MOL    C3039592   7.231   1.862   7.682  0.1959 -0.2595 -0.6863
  152MOL    C3139593   7.293   1.800   7.560  0.5414 -0.2753  0.5154
  152MOL    C3239594   7.591   1.929   7.556 -0.1998  0.3336  0.1157
  152MOL    H3339595   7.416   2.049   7.574  0.5978 -0.0861 -0.1602
  152MOL    H3439596   7.432   1.783   7.724 -0.0717  0.3499  0.1633
  152MOL    H3539597   7.199   1.966   7.688  2.1584  0.2157  2.1767
  152MOL    H3639598   7.178   1.796   7.749 -0.9917  0.5147 -0.8442
  152MOL    H3739599   7.282   1.854   7.466 -0.0663  0.2531  0.8884
  152MOL    H3839600   7.291   1.691   7.552  1.2288 -0.2339 -0.3321
  152MOL    H3939601   7.593   1.823   7.578  0.1996  0.2543 -0.2845
  152MOL    H4039602   7.689   1.974   7.575  0.8094 -1.4632 -0.6955
  152MOL    C4139603   7.577   1.945   7.406  0.1595 -0.2890 -0.5387
  152MOL    C4239604   7.680   1.858   7.320  0.4290 -0.8193 -0.2786
  152MOL    C4339605   7.648   1.808   7.180  0.2771  0.1037 -0.2872
  152MOL    C4439606   7.652   1.715   7.301 -0.4380 -0.1298 -0.2207
  152MOL    C4539607   7.593   2.095   7.359  0.2466  0.2592  0.2874
  152MOL    H4639608   7.478   1.916   7.372 -0.5600  1.8279 -0.2758
  152MOL    H4739609   7.785   1.881   7.339 -0.2993  3.8560 -1.4217
  152MOL    H4839610   7.548   1.820   7.139  0.0492  2.3736  0.8716
  152MOL    H4939611   7.722   1.780   7.105 -0.2943 -0.5447 -0.6118
  152MOL    H5039612   7.739   1.652   7.318  0.5365  1.3855  0.5089
  152MOL    H5139613   7.555   1.677   7.332 -1.5484  2.2759 -0.6168
  152MOL    H5239614   7.697   2.125   7.357 -0.0805  1.4188 -0.5183
  152MOL    H5339615   7.569   2.168   7.437  0.3279  2.9510 -2.1004
  152MOL    C5439616   7.513   2.151   7.235 -0.0997 -0.6010 -0.0048
  152MOL    C5539617   7.359   2.152   7.267 -0.2899  0.2094  0.5540
  152MOL    C5639618   7.269   2.032   7.244  0.2881 -0.2676 -0.3194
  152MOL    C5739619   7.255   2.145   7.153 -0.3545 -0.4861 -0.0024
  152MOL    C5839620   7.562   2.295   7.205  0.3041  0.0667  0.0261
  152MOL    H5939621   7.522   2.082   7.150 -0.7052 -1.1310  0.3643
  152MOL    H6039622   7.334   2.202   7.360  1.6474  3.7575 -0.7077
  152MOL    H6139623   7.317   1.938   7.217  0.2883 -0.3018 -0.1997
  152MOL    H6239624   7.199   2.023   7.326  0.7304 -3.0829 -0.2153
  152MOL    H6339625   7.167   2.209   7.155 -0.7120 -0.9775 -0.0684
  152MOL    H6439626   7.309   2.142   7.058  0.1485 -0.2153  0.2735
  152MOL    H6539627   7.482   2.334   7.143  0.4624 -0.9428 -0.8143
  152MOL    H6639628   7.573   2.347   7.300 -1.1516  0.4268  0.0118
  152MOL    C6739629   7.694   2.304   7.133  0.4532 -0.0097  0.8516
  152MOL    C6839630   7.682   2.255   6.986  0.1873 -0.2482 -0.3132
  152MOL    C6939631   7.803   2.231   6.902  0.4155 -0.5063  0.4420
  152MOL    C7039632   7.720   2.113   6.951 -0.3487 -0.3290  1.0381
  152MOL    C7139633   7.754   2.450   7.123  0.0532 -0.0212  0.2617
  152MOL    H7239634   7.770   2.246   7.185  1.1279 -1.2975 -1.5345
  152MOL    H7339635   7.596   2.299   6.936 -0.3825 -0.0734  0.8023
  152MOL    H7439636   7.800   2.257   6.796 -0.3743 -0.6823  0.4156
  152MOL    H7539637   0.057   2.259   6.951  0.5008 -1.2444  0.7051
  152MOL    H7639638   7.772   2.046   7.019  0.5648  0.2048  0.8695
  152MOL    H7739639   7.656   2.061   6.881 -0.4686  1.0811  0.0776
  152MOL    H7839640   7.674   2.522   7.142  1.2884  1.3956  0.1458
  152MOL    H7939641   7.793   2.480   7.026 -1.0384  0.0575 -0.1602
  152MOL    C8039642   0.028   2.486   7.228 -0.1673  0.8882  0.2505
  152MOL    C8139643   7.839   2.455   7.371 -0.6112  0.5159 -0.4997
  152MOL    C8239644   0.112   2.456   7.465 -0.5174 -0.1861  0.5569
  152MOL    C8339645   0.046   2.327   7.439 -0.3338 -0.8651  0.4807
  152MOL    C8439646   0.085   2.629   7.207  0.8119 -0.1562  0.1907
  152MOL    H8539647   0.109   2.420   7.198 -0.5004 -0.0514  1.3972
  152MOL    H8639648   7.743   2.485   7.413  0.3920 -0.1550  2.3528
  152MOL    H8739649   0.108   2.487   7.569 -1.1666 -0.8045  0.7205
  152MOL    H8839650   0.211   2.470   7.422  0.9409 -0.7494  3.6367
  152MOL    H8939651   0.093   2.253   7.375 -2.1755 -1.3305 -0.3782
  152MOL    H9039652   7.810   2.283   7.505 -1.7355  0.2264 -0.3610
  152MOL    H9139653   0.025   2.686   7.135  0.1493 -0.9366  0.1209
  152MOL    H9239654   0.081   2.681   7.302 -0.2754 -1.5802  0.9527
  152MOL    C9339655   0.232   2.636   7.154  0.1357 -0.0679 -0.2869
  152MOL    C9439656   0.238   2.586   7.004 -0.1706  1.3522 -0.3435
  152MOL    C9539657   0.229   2.679   6.889  0.2042 -0.2494 -0.6302
  152MOL    C9639658   0.360   2.595   6.910  0.0290  0.3295 -0.1900
  152MOL    C9739659   0.311   2.762   7.192  0.0976 -0.3608  0.3048
  152MOL    H9839660   0.295   2.564   7.206  0.1880 -0.4020 -0.8077
  152MOL    H9939661   0.198   2.486   6.989 -1.9261  1.8663  0.8330
  152MOL   H10039662   0.148   2.636   6.830 -0.7003 -0.6287  0.8730
  152MOL   H10139663   0.237   2.785   6.912  0.5804 -0.7033  1.3963
  152MOL   H10239664   0.380   2.522   6.832 -0.1212 -0.0227  0.0989
  152MOL   H10339665   0.445   2.651   6.949 -0.1619 -0.7923  1.9041
  152MOL   H10439666   0.250   2.852   7.186  0.8171  0.0698 -0.7547
  152MOL   H10539667   0.391   2.777   7.118  1.7722  0.2895  2.2011
  152MOL   C10639668   0.390   2.768   7.331 -0.0519  0.2479  0.4899
  152MOL   C10739669   0.517   2.693   7.320 -0.1799  0.6480  0.1606
  152MOL   C10839670   0.589   2.630   7.437 -0.2679  0.1650 -0.3208
  152MOL   C10939671   0.527   2.548   7.323 -0.1008  0.4027 -0.2089
  152MOL   C11039672   0.426   2.906   7.372  0.0471  0.5533 -0.2228
  152MOL   H11139673   0.333   2.722   7.412  0.2457  0.9576  1.1133
  152MOL   H11239674   0.579   2.727   7.238  0.0876  0.7473  0.4070
  152MOL   H11339675   0.698   2.632   7.448 -0.2506 -0.5117 -0.3375
  152MOL   H11439676   0.533   2.632   7.530 -0.1132  1.7014 -0.2432
  152MOL   H11539677   0.437   2.489   7.343 -0.2240  0.1094 -1.5568
  152MOL   H11639678   0.588   2.493   7.252 -0.3796 -3.1912  2.2153
  152MOL   H11739679   0.516   2.918   7.432  0.5607  0.6391 -0.9948
  152MOL   H11839680   0.436   2.961   7.278 -3.7579  2.6899  0.5520
  152MOL   C11939681   0.308   2.966   7.460  0.5022  0.2363 -0.3078
  152MOL   C12039682   0.320   2.925   7.604 -0.3084  0.1739  0.4752
  152MOL   C12139683   0.238   2.814   7.665  0.0861 -0.7425 -0.5566
  152MOL   C12239684   0.204   2.957   7.702  0.1384 -0.5889  0.3109
  152MOL   C12339685   0.304   3.123   7.447 -0.3927 -0.3280  0.3597
  152MOL   H12439686   0.215   2.926   7.421 -0.1013 -0.4566  1.8217
  152MOL   H12539687   0.421   2.931   7.644 -0.2384 -0.3714  0.3834
  152MOL   H12639688   0.282   2.742   7.734  2.4358 -0.0642 -1.3146
  152MOL   H12739689   0.182   2.767   7.583  0.7479 -0.1947 -1.3298
  152MOL   H12839690   0.102   2.984   7.679  0.1795  1.1051  1.9835
  152MOL   H12939691   0.243   3.004   7.792 -0.3801 -1.7586  1.1548
  152MOL   H13039692   0.261   3.184   7.526 -0.1034  0.3823 -0.0288
  152MOL   H13139693   0.407   3.156   7.460  0.6305 -2.8086 -1.1429
  152MOL   C13239694   0.257   3.186   7.313  0.4734  0.1249 -0.1066
  152MOL   C13339695   0.276   3.341   7.314 -0.7924  0.2148 -0.2611
  152MOL   C13439696   0.314   3.422   7.194 -0.5052 -0.4388  0.2056
  152MOL   C13539697   0.422   3.384   7.300 -0.5484  0.4583  0.1799
  152MOL   C13639698   0.108   3.151   7.274  0.4045  0.7412  0.0865
  152MOL   H13739699   0.313   3.154   7.226  0.7694  1.8928 -0.5892
  152MOL   H13839700   0.209   3.404   7.372  0.2566  1.2810 -0.1873
  152MOL   H13939701   0.312   3.376   7.095 -0.3420  1.3421 -0.6450
  152MOL   H14039702   0.277   3.524   7.199  0.0543 -0.2704  0.9631
  152MOL   H14139703   0.498   3.307   7.287 -0.4907  0.6639 -0.7060
  152MOL   H14239704   0.456   3.466   7.362  0.9761 -1.4517  1.9554
  152MOL   H14339705   0.085   3.045   7.286 -0.0145  1.1101  2.6281
  152MOL   H14439706   0.052   3.206   7.349 -1.0853 -1.8025  0.8738
  152MOL   C14539707   0.061   3.191   7.133  0.5509 -0.0242 -0.3392
  152MOL   C14639708   0.103   3.086   7.034  0.3652  0.2627  0.2713
  152MOL   C14739709   0.144   3.129   6.890 -0.0788  0.1180 -0.1171
  152MOL   C14839710   0.249   3.076   6.978 -0.2330 -0.6008  0.0810
  152MOL   C14939711   7.737   3.206   7.132  0.2215 -0.2580  0.3347
  152MOL   H15039712   0.091   3.290   7.097 -1.5629  0.3169 -1.2442
  152MOL   H15139713   0.048   2.993   7.038 -0.9902  1.0856  1.1667
  152MOL   H15239714   0.125   3.062   6.806  2.8944 -0.1020 -0.6756
  152MOL   H15339715   0.151   3.232   6.856 -0.8864 -0.7482 -3.0381
  152MOL   H15439716   0.324   3.147   7.011  0.4387 -0.2342 -2.1897
  152MOL   H15539717   0.283   2.979   6.944 -1.4855 -0.6080 -1.1984
  152MOL   H15639718   7.696   3.108   7.108  1.8875 -1.0659  0.7231
  152MOL   H15739719   7.689   3.238   7.224 -1.4233 -1.2408 -0.1643
  152MOL   C15839720   7.689   3.304   7.020 -0.1082 -0.2951  0.2132
  152MOL   C15939721   7.707   3.454   7.052 -0.4544  0.1027 -0.1455
  152MOL   C16039722   7.626   3.512   7.168 -0.1486 -0.1144 -0.2293
  152MOL   C16139723   7.776   3.513   7.173 -0.0533  0.3978 -0.1882
  152MOL   C16239724   7.538   3.283   6.982 -0.2472  0.4176  0.1148
  152MOL   H16339725   7.750   3.292   6.930 -2.5247  0.3993 -1.5564
  152MOL   H16439726   7.720   3.523   6.970  0.0169  0.1704 -0.0183
  152MOL   H16539727   7.562   3.440   7.219  1.7043 -0.2722  1.9608
  152MOL   H16639728   7.577   3.607   7.147 -1.1615 -0.4986  0.4023
  152MOL   H16739729   7.837   3.602   7.154  2.7881 -1.6068 -0.7776
  152MOL   H16839730   7.829   3.449   7.243 -3.5227 -1.0788  1.1915
  152MOL   H16939731   7.476   3.349   7.041 -1.7952 -0.4695 -0.4904
  152MOL   H17039732   7.499   3.185   7.008  2.3302 -0.3772  1.1221
  152MOL   C17139733   7.498   3.310   6.832  0.0824 -1.0799  0.3860
  152MOL   C17239734   7.594   3.245   6.730  1.1477  0.0573  0.3411
  152MOL   C17339735   7.611   3.300   6.593  1.0717  0.0303  0.3532
  152MOL   C17439736   7.721   3.320   6.683  0.0884 -0.0159 -0.1461
  152MOL   C17539737   7.353   3.286   6.797  0.1421 -0.0144  0.2436
  152MOL   H17639738   7.504   3.418   6.819 -1.5698 -0.8159  1.5644
  152MOL   H17739739   7.602   3.137   6.736  4.7439  0.4184  2.9761
  152MOL   H17839740   7.612   3.235   6.505 -1.7881  0.8347 -0.3281
  152MOL   H17939741   7.568   3.394   6.558 -0.0256 -0.7031 -0.2908
  152MOL   H18039742   7.749   3.420   6.715  2.8671 -0.3831 -1.2062
  152MOL   H18139743   7.815   3.266   6.678  0.2959  0.3943 -0.6854
  152MOL   H18239744   7.350   3.177   6.794  4.5597 -0.2106 -1.7619
  152MOL   H18339745   7.345   3.315   6.693 -0.8486 -0.6279  0.1438
  152MOL   C18439746   7.253   3.354   6.893 -0.8711  0.4682  0.2107
  152MOL   C18539747   7.117   3.290   6.863 -0.1298 -0.3377  0.2219
  152MOL   C18639748   7.031   3.244   6.978 -0.1341  0.0792 -0.6904
  152MOL   C18739749   7.096   3.140   6.887  0.5640 -0.0717  0.2737
  152MOL   C18839750   7.243   3.509   6.878 -0.3635  0.3256 -0.7358
  152MOL   H18939751   7.279   3.327   6.995  0.2368 -0.7314 -0.3823
  152MOL   H19039752   7.065   3.333   6.778  0.4438  0.4703  0.2794
  152MOL   H19139753   6.923   3.255   6.976 -0.1936 -0.7499 -2.3626
  152MOL   H19239754   7.070   3.250   7.080 -0.7530  1.4843 -0.5187
  152MOL   H19339755   7.010   3.088   6.844  0.0913  0.7572  0.2022
  152MOL   H19439756   7.169   3.082   6.944 -0.2225  0.0811  1.4648
  152MOL   H19539757   7.224   3.532   6.773 -0.5788  0.1270 -0.7404
  152MOL   H19639758   7.348   3.540   6.881 -0.8307  1.8317  1.5305
  152MOL   C19739759   7.160   3.591   6.983  0.1083  0.5528  0.0995
  152MOL   C19839760   7.123   3.728   6.933  0.2228  0.5545 -0.2075
  152MOL   C19939761   6.972   3.769   6.940 -0.4285  0.1337 -0.0971
  152MOL   C20039762   7.038   3.753   6.806  0.2005 -0.0254  0.4532
  152MOL   C20139763   7.247   3.615   7.116 -0.5256 -0.3690 -0.2658
  152MOL   H20239764   7.067   3.542   7.013  0.2292  0.3772  0.1907
  152MOL   H20339765   7.201   3.797   6.964  1.1808  0.2997 -1.9932
  152MOL   H20439766   6.909   3.690   6.979 -0.3088  0.6337  1.1334
  152MOL   H20539767   6.961   3.873   6.970  1.5994  0.5544 -0.6721
  152MOL   H20639768   7.025   3.667   6.741 -1.5223  0.3928  0.2456
  152MOL   H20739769   7.044   3.845   6.749 -1.1876 -0.0093  0.3189
  152MOL   H20839770   7.296   3.522   7.147  1.2433  0.7372  0.2974
  152MOL   H20939771   7.331   3.679   7.090  0.9404 -1.0087  2.6858
  152MOL   C21039772   7.166   3.679   7.234 -0.3184  0.3714  0.1844
  152MOL   C21139773   7.116   3.570   7.332  0.5512 -0.0155  0.5697
  152MOL   C21239774   6.969   3.563   7.381  0.5648 -0.2981  0.9674
  152MOL   C21339775   7.016   3.470   7.271  0.3106  0.1273  0.1946
  152MOL   C21439776   7.248   3.782   7.319  0.3732 -0.6533  0.4204
  152MOL   H21539777   7.075   3.722   7.192 -1.3828  0.4052  2.4435
  152MOL   H21639778   7.190   3.524   7.399 -1.2480 -1.9689  1.2686
  152MOL   H21739779   6.957   3.531   7.484  2.8770 -1.3464  0.9630
  152MOL   H21839780   6.903   3.645   7.354  0.4322 -1.2397 -1.7936
  152MOL   H21939781   7.042   3.366   7.286  0.3288  0.2304  0.8905
  152MOL   H22039782   6.956   3.490   7.182 -0.1024  0.0326  0.4519
  152MOL   H22139783   7.322   3.736   7.384  0.0530 -1.7545  0.0048
  152MOL   H22239784   7.308   3.850   7.258 -0.7787 -0.2793 -0.3279
  152MOL   C22339785   7.171   3.882   7.410 -0.5412 -0.2077  1.0660
  152MOL   C22439786   7.081   3.970   7.321 -0.2601  0.3167  0.4014
  152MOL   C22539787   6.941   3.936   7.264  0.6266 -0.1006 -0.1667
  152MOL   C22639788   6.961   4.030   7.384 -0.2669 -0.0467  0.2274
  152MOL   C22739789   7.253   3.974   7.509 -0.2767 -0.0167 -0.3006
  152MOL   H22839790   7.103   3.823   7.472 -0.0047 -0.0927  1.7650
  152MOL   H22939791   7.143   4.033   7.258  0.0438  0.3003  0.6848
  152MOL   H23039792   6.914   3.831   7.267  0.5048 -0.0312  1.5452
  152MOL   H23139793   6.914   3.991   7.174 -0.2738 -0.5869 -0.1930
  152MOL   H23239794   6.949   4.138   7.373 -0.5744 -0.2955 -2.2439
  152MOL   H23339795   6.931   3.987   7.479  3.4774 -2.7302  0.2982
  152MOL   H23439796   7.307   4.053   7.456  1.4343 -2.0315 -1.6530
  152MOL   H23539797   7.180   4.023   7.574  0.5278  1.5071 -0.5155
  152MOL   C23639798   7.349   3.894   7.605 -0.2344  0.2982  0.5990
  152MOL   C23739799   7.351   3.966   7.742 -0.6498 -0.1381 -0.9961
  152MOL   C23839800   7.240   3.968   0.001 -0.0209  0.3969 -0.3964
  152MOL   C23939801   7.374   3.902   0.036  0.8428  0.0343  0.5588
  152MOL   C24039802   7.495   3.895   7.546 -0.0226  0.4579  0.1692
  152MOL   H24139803   7.308   3.793   7.605  2.8935 -1.0102  1.4128
  152MOL   H24239804   7.406   4.060   7.741  0.9701 -1.0337  0.4641
  152MOL   H24339805   7.220   4.065   0.046  0.0985  0.6737 -0.9378
  152MOL   H24439806   7.151   3.916   7.805 -1.4174  1.4106  1.5284
  152MOL   H24539807   7.374   3.794   0.031  0.0813  0.0413  0.3129
  152MOL   H24639808   7.431   3.959   0.110  0.4869 -0.0328  0.8832
  152MOL   H24739809   7.485   3.892   7.438  0.2606  0.9060  0.1294
  152MOL   H24839810   7.548   3.989   7.563  2.7732 -1.1697  0.6298
  152MOL   C24939811   7.583   3.780   7.600  0.6627  0.2489  0.5312
  152MOL   C25039812   7.719   3.816   7.557  0.1960 -0.1566  0.0927
  152MOL   C25139813   7.817   3.891   7.650 -0.7732  0.8002 -0.3467
  152MOL   C25239814   0.007   3.744   7.615  0.0992 -0.7483  0.2064
  152MOL   C25339815   7.544   3.643   7.547  0.3163 -0.3148  0.2753
  152MOL   H25439816   7.578   3.791   7.708  0.8097 -1.2082  0.7075
  152MOL   H25539817   7.723   3.831   7.449  2.1927 -1.7895 -0.0912
  152MOL   H25639818   0.026   3.978   7.606  1.4265 -0.4540 -0.5027
  152MOL   H25739819   7.783   3.908   7.752 -0.3722 -0.5614  0.0292
  152MOL   H25839820   0.079   3.717   7.537  1.8086  0.5170  1.3221
  152MOL   H25939821   7.831   3.678   7.700  0.5964  0.6868  1.4278
  152MOL   H26039822   7.613   3.575   7.597  1.4312  1.5081  1.2686
  152MOL   H26139823   7.556   3.624   7.440 -0.0093 -0.9486  0.3478
  152MOL   H26239824   7.443   3.615   7.578  0.3026 -0.7985 -0.2017
  153MOL     C139825   4.468   0.620   5.663  0.1800  0.3800 -0.4960
  153MOL     C239826   4.599   0.688   5.632 -1.5933  0.4693  0.7288
  153MOL     C339827   4.625   0.725   5.491 -0.4223  0.2855  0.2892
  153MOL     C439828   4.710   0.618   5.564 -0.1116  0.3712  0.1952
  153MOL     C539829   4.351   0.720   5.661 -0.2694  0.5695  0.0971
  153MOL     H639830   4.458   0.536   5.594 -1.0953  0.5748 -0.5647
  153MOL     H739831   4.633   0.753   5.712  0.9759  1.0892 -0.8073
  153MOL     H839832   4.566   0.693   5.406  0.8003 -2.2864  0.3666
  153MOL     H939833   4.682   0.815   5.468  1.0996 -0.8514 -0.4593
  153MOL    H1039834   4.814   0.640   5.585  0.1159 -0.3993 -0.1240
  153MOL    H1139835   4.684   0.513   5.553 -2.0929  0.8302  0.2586
  153MOL    H1239836   4.325   0.753   5.560  2.2174  0.1089 -0.7315
  153MOL    H1339837   4.390   0.811   5.706 -1.7520  0.3438  1.8784
  153MOL    H1439838   4.481   0.574   5.761  1.3929  0.6462 -0.5205
  153MOL    C1539839   4.219   0.660   5.721 -0.6842 -0.2595  0.1672
  153MOL    C1639840   4.151   0.561   5.626  0.0171  0.4769 -0.1392
  153MOL    C1739841   4.062   0.614   5.516 -1.1700  0.5027 -0.2153
  153MOL    C1839842   4.001   0.541   5.628 -0.0612  0.8824 -0.0784
  153MOL    C1939843   4.228   0.599   5.871 -0.0023  0.4543 -0.8660
  153MOL    H2039844   4.145   0.741   5.725 -1.7333 -1.2668  2.5262
  153MOL    H2139845   4.218   0.492   5.574 -1.4033 -0.9585 -0.1418
  153MOL    H2239846   4.077   0.559   5.423 -1.8818 -1.3758  0.7518
  153MOL    H2339847   4.045   0.721   5.510 -2.1381  0.3803  0.1272
  153MOL    H2439848   3.954   0.599   5.707 -1.1463 -0.7978  0.5305
  153MOL    H2539849   3.967   0.439   5.611  0.3192  0.8561 -0.7002
  153MOL    H2639850   4.294   0.512   5.862  1.4788  1.2289  1.9370
  153MOL    H2739851   4.130   0.552   5.882  0.1534 -0.0839 -1.6859
  153MOL    C2839852   4.272   0.683   5.987  0.0973 -0.0155  0.1896
  153MOL    C2939853   4.325   0.590   6.095 -0.4583  0.7841 -0.2872
  153MOL    C3039854   4.443   0.490   6.088 -0.2229 -0.2535  1.0187
  153MOL    C3139855   4.449   0.601   6.182  0.2614  0.1444  0.4393
  153MOL    C3239856   4.160   0.777   6.034  0.4361  0.2008  0.8553
  153MOL    H3339857   4.358   0.745   5.961  0.1355  0.3499  1.1581
  153MOL    H3439858   4.242   0.556   6.155 -0.6083  1.2440 -0.2331
  153MOL    H3539859   4.515   0.482   6.007  0.3246  1.6847  1.2881
  153MOL    H3639860   4.435   0.396   6.141 -0.1052 -2.1407 -2.1998
  153MOL    H3739861   4.508   0.686   6.148 -1.1563  0.6096 -0.9268
  153MOL    H3839862   4.441   0.586   6.290 -2.8921  0.2394  0.2557
  153MOL    H3939863   4.061   0.731   6.025  0.3783  0.1578  1.6822
  153MOL    H4039864   4.163   0.859   5.962  0.7444 -2.3222 -2.1228
  153MOL    C4139865   4.185   0.849   6.167  0.4592 -0.1073  0.1795
  153MOL    C4239866   4.073   0.944   6.191 -0.5988  0.9165  0.4370
  153MOL    C4339867   3.987   0.962   6.313 -1.0976  0.0848  0.5046
  153MOL    C4439868   3.928   0.882   6.198 -0.9738  0.0592 -0.3431
  153MOL    C4539869   4.326   0.927   6.189  0.6260 -0.5890 -0.8577
  153MOL    H4639870   4.166   0.773   6.243 -1.8074 -0.0272 -0.2737
  153MOL    H4739871   4.073   1.015   6.108 -1.9706 -0.6438 -0.9188
  153MOL    H4839872   4.015   0.911   6.405  0.3190 -0.4373 -0.1973
  153MOL    H4939873   3.934   1.054   6.337  0.3407  0.8770  0.7329
  153MOL    H5039874   3.852   0.916   6.128 -1.8000  1.1448  1.0721
  153MOL    H5139875   3.919   0.774   6.207 -2.3967  0.1505 -0.5979
  153MOL    H5239876   4.310   1.017   6.128  1.5202 -1.1028 -1.8757
  153MOL    H5339877   4.411   0.882   6.137  0.7850  0.4549 -1.5378
  153MOL    C5439878   4.353   0.964   6.337 -0.3581 -0.1012 -0.2148
  153MOL    C5539879   4.386   0.841   6.420 -0.3579 -0.9332  0.2342
  153MOL    C5639880   4.290   0.738   6.457  0.2765 -0.5496 -0.5037
  153MOL    C5739881   4.334   0.832   6.559 -0.3965 -0.3294 -0.1637
  153MOL    C5839882   4.481   1.061   6.344 -0.2593 -0.3672  0.0457
  153MOL    H5939883   4.276   1.012   6.398  2.2343  0.8989  2.4026
  153MOL    H6039884   4.489   0.809   6.405 -0.6549 -1.6342 -0.3599
  153MOL    H6139885   4.182   0.734   6.443  0.5055 -4.8146 -1.6671
  153MOL    H6239886   4.326   0.637   6.475  1.4631 -0.3210 -1.5364
  153MOL    H6339887   4.403   0.802   6.638 -0.0316 -0.8125 -0.6626
  153MOL    H6439888   4.259   0.904   6.591  2.0662  1.4178  1.7947
  153MOL    H6539889   4.536   1.070   6.438 -0.8582  0.0827  0.3614
  153MOL    H6639890   4.560   1.018   6.283 -0.0473  1.1698 -0.7981
  153MOL    C6739891   4.459   1.210   6.299 -0.1342 -0.2230  0.8628
  153MOL    C6839892   4.376   1.293   6.397  1.0330  0.3976 -0.1818
  153MOL    C6939893   4.334   1.434   6.365 -0.5771  0.1668 -0.6368
  153MOL    C7039894   4.226   1.328   6.371  0.2494 -0.1665 -0.1239
  153MOL    C7139895   4.597   1.272   6.270 -0.3484  0.4354 -0.2031
  153MOL    H7239896   4.404   1.214   6.205  2.6260 -1.9522 -0.9017
  153MOL    H7339897   4.405   1.272   6.500 -1.2497  5.6688  1.7339
  153MOL    H7439898   4.325   1.509   6.443 -1.6072 -1.4007  0.7735
  153MOL    H7539899   4.368   1.464   6.266 -1.8122  1.6852 -0.6069
  153MOL    H7639900   4.189   1.270   6.287  1.8737 -1.0581 -0.2406
  153MOL    H7739901   4.153   1.333   6.452  0.4435  2.1905 -0.0522
  153MOL    H7839902   4.657   1.266   6.361 -0.1476  2.0775 -0.2138
  153MOL    H7939903   4.587   1.380   6.258 -0.1495  0.4167 -0.5223
  153MOL    C8039904   4.668   1.207   6.146  0.3822 -0.9276  0.0706
  153MOL    C8139905   4.811   1.163   6.178  0.7454 -0.3695 -0.2306
  153MOL    C8239906   4.915   1.271   6.209  0.3713 -0.1318  0.2607
  153MOL    C8339907   4.932   1.180   6.089  0.4225  0.4798  0.0363
  153MOL    C8439908   4.672   1.310   6.028 -0.1143  0.0824 -1.0790
  153MOL    H8539909   4.616   1.121   6.105 -0.8683  0.5890 -1.6522
  153MOL    H8639910   4.823   1.079   6.246 -1.6278 -0.9063 -0.4474
  153MOL    H8739911   4.977   1.256   6.297 -2.0834 -1.1591  1.8837
  153MOL    H8839912   4.900   1.372   6.172  2.3066  0.0485 -0.0446
  153MOL    H8939913   4.942   1.248   6.004  1.2247  0.7831  0.3706
  153MOL    H9039914   5.009   1.105   6.100  1.3417  1.4578  0.3423
  153MOL    H9139915   4.728   1.399   6.056 -2.8302  2.1493 -1.9800
  153MOL    H9239916   4.721   1.269   5.940 -1.3188  1.4877 -2.4378
  153MOL    C9339917   4.528   1.355   5.980 -0.1613 -0.0133  0.1662
  153MOL    C9439918   4.536   1.473   5.886 -0.3955  0.1286 -0.3177
  153MOL    C9539919   4.454   1.594   5.914 -0.7948  1.0111  0.3747
  153MOL    C9639920   4.608   1.601   5.919  0.1485  1.3813  0.4163
  153MOL    C9739921   4.452   1.243   5.921  0.1881  0.2020 -0.2141
  153MOL    H9839922   4.475   1.384   6.071  1.6898 -0.5278  1.4397
  153MOL    H9939923   4.556   1.443   5.784  1.6484 -2.2457  0.7254
  153MOL   H10039924   4.402   1.634   5.826 -0.6980  1.2791  0.4387
  153MOL   H10139925   4.399   1.612   6.006 -0.2807 -1.4033  1.1813
  153MOL   H10239926   4.649   1.650   5.831 -0.3411 -0.4563 -0.8844
  153MOL   H10339927   4.674   1.593   6.004  1.8317  0.1446 -0.9649
  153MOL   H10439928   4.452   1.145   5.969  2.3584  0.7264  0.9357
  153MOL   H10539929   4.524   1.218   5.842  0.0748  0.3337 -0.3583
  153MOL   C10639930   4.311   1.284   5.863  0.5010  0.0918  0.5860
  153MOL   C10739931   4.264   1.186   5.749  0.1919 -0.1619  0.4656
  153MOL   C10839932   4.214   1.241   5.618 -0.4271 -0.6980  0.1287
  153MOL   C10939933   4.319   1.141   5.615  0.3718  0.0108 -0.0708
  153MOL   C11039934   4.213   1.309   5.980 -0.0517  0.4530  0.0415
  153MOL   H11139935   4.321   1.376   5.805 -1.4761  1.0974  1.8230
  153MOL   H11239936   4.196   1.115   5.795 -2.5639  3.0777  1.6558
  153MOL   H11339937   4.112   1.219   5.589 -0.3620 -0.9280  0.0689
  153MOL   H11439938   4.247   1.344   5.608  3.1526 -1.5736  1.7275
  153MOL   H11539939   4.424   1.166   5.597  0.9159 -1.4692  0.9446
  153MOL   H11639940   4.300   1.035   5.600  0.4452  0.1734 -1.3898
  153MOL   H11739941   4.195   1.209   6.019  0.7029  0.0574 -0.6114
  153MOL   H11839942   4.266   1.359   6.061 -3.0734  2.0727  1.1049
  153MOL   C11939943   4.080   1.387   5.956 -1.1623 -0.4869  1.0034
  153MOL   C12039944   3.980   1.373   6.068 -1.0296 -0.4424 -0.5551
  153MOL   C12139945   3.900   1.252   6.085  0.4215 -0.0887 -0.4744
  153MOL   C12239946   3.834   1.378   6.033 -0.1751 -0.6485 -0.5411
  153MOL   C12339947   4.107   1.535   5.923  0.3838  0.4747  0.3635
  153MOL   H12439948   4.030   1.329   5.878 -2.1083  2.1930 -0.4566
  153MOL   H12539949   4.017   1.418   6.160 -1.6093  0.1611 -0.6081
  153MOL   H12639950   3.879   1.231   6.190  1.8662  0.4032 -0.0766
  153MOL   H12739951   3.909   1.158   6.031  2.8665 -0.3406  0.3365
  153MOL   H12839952   3.796   1.365   5.932  0.6583 -0.6120 -0.8626
  153MOL   H12939953   3.777   1.443   6.100  0.5448 -0.7185  0.1560
  153MOL   H13039954   4.090   1.587   6.018  0.2400 -1.4124  1.3944
  153MOL   H13139955   4.210   1.552   5.892  0.0363  1.1507 -0.4424
  153MOL   C13239956   4.014   1.593   5.815 -0.0061 -0.2403 -0.2579
  153MOL   C13339957   4.034   1.537   5.672 -0.8045  0.0446  0.0182
  153MOL   C13439958   3.936   1.593   5.564 -1.0130 -0.1448 -0.0710
  153MOL   C13539959   3.927   1.448   5.596 -0.0203  0.2832 -0.0016
  153MOL   C13639960   4.018   1.746   5.810 -0.2483 -0.1531 -0.0879
  153MOL   H13739961   3.914   1.566   5.847 -0.8002  0.0152 -2.5007
  153MOL   H13839962   4.138   1.534   5.641 -0.8898  0.6900 -0.3458
  153MOL   H13939963   3.857   1.656   5.606 -0.4813 -1.1919  2.5897
  153MOL   H14039964   3.983   1.627   5.472 -1.9212 -0.8244 -0.8055
  153MOL   H14139965   3.843   1.404   5.648 -0.5312  1.5453  0.2491
  153MOL   H14239966   3.965   1.373   5.527 -0.0433  0.6070 -0.3675
  153MOL   H14339967   4.101   1.784   5.750  0.8988 -1.6496  0.5244
  153MOL   H14439968   3.933   1.787   5.756  0.9423  2.4159 -0.1018
  153MOL   C14539969   4.001   1.831   5.944 -0.3426 -0.2069  0.3723
  153MOL   C14639970   3.981   1.979   5.908  0.6783 -0.2869 -0.0634
  153MOL   C14739971   4.038   2.093   5.995  0.1805 -0.3656 -0.0290
  153MOL   C14839972   4.094   2.057   5.858 -0.0877 -0.1937  0.6789
  153MOL   C14939973   3.876   1.780   6.019 -0.2950  0.3338  0.7440
  153MOL   H15039974   4.087   1.810   6.007  0.1315 -0.9574 -0.5126
  153MOL   H15139975   3.894   2.013   5.853  1.6692  2.2394 -0.1197
  153MOL   H15239976   4.000   2.195   5.990 -0.7831 -0.7695 -1.2730
  153MOL   H15339977   4.115   2.071   6.068 -0.1962  0.4017  0.6059
  153MOL   H15439978   4.197   2.024   5.871 -0.2056  0.0495  2.3446
  153MOL   H15539979   4.070   2.111   5.767 -2.5004 -0.9316  0.8539
  153MOL   H15639980   3.783   1.818   5.977  0.1068  1.0317  0.4704
  153MOL   H15739981   3.856   1.673   6.016  1.5286  0.0341 -1.4817
  153MOL   C15839982   3.869   1.828   6.166  0.3422  0.2228 -0.8400
  153MOL   C15939983   3.955   1.730   6.251  0.0559 -0.5530  0.0810
  153MOL   C16039984   4.098   1.759   6.272 -0.8835  0.2218 -0.2111
  153MOL   C16139985   4.003   1.751   6.390 -0.6960 -0.5743 -0.2998
  153MOL   C16239986   3.725   1.844   6.221 -0.5843 -0.0084 -0.1855
  153MOL   H16339987   3.905   1.931   6.162 -0.0894  0.5004  1.6941
  153MOL   H16439988   3.919   1.629   6.236 -0.0940 -0.5243  0.2465
  153MOL   H16539989   4.138   1.859   6.253  0.3420 -0.0682  0.8195
  153MOL   H16639990   4.175   1.686   6.249 -0.8153  0.4871 -0.8253
  153MOL   H16739991   4.010   1.655   6.441 -1.5685  0.5411  2.0289
  153MOL   H16839992   3.993   1.837   6.456 -1.4426 -2.0771  1.6198
  153MOL   H16939993   3.693   1.741   6.239  0.1699 -0.0255  1.1149
  153MOL   H17039994   3.655   1.879   6.145  0.2877  0.4991 -0.7588
  153MOL   C17139995   3.711   1.939   6.337  0.6574  0.0526  0.2785
  153MOL   C17239996   3.755   2.079   6.295  0.3484 -0.1021  0.2858
  153MOL   C17339997   3.760   2.193   6.391 -0.2632  0.2128 -0.3269
  153MOL   C17439998   3.891   2.133   6.335  0.6667 -0.0957  0.0266
  153MOL   C17539999   3.567   1.935   6.394  0.0676 -0.8463 -0.6754
  153MOL   H17640000   3.781   1.914   6.417 -0.0712 -0.8703  0.6457
  153MOL   H17740001   3.737   2.095   6.189  3.2447  0.1758 -0.2135
  153MOL   H17840002   3.745   2.296   6.360 -1.0076 -0.9905 -4.3115
  153MOL   H17940003   3.724   2.181   6.493 -0.2459  1.0652 -0.2191
  153MOL   H18040004   3.946   2.073   6.408  0.8578 -3.2319 -2.5914
  153MOL   H18140005   3.947   2.203   6.274  1.6909 -1.8214 -1.0662
  153MOL   H18240006   3.490   1.938   6.317  0.8761  0.8870 -1.4388
  153MOL   H18340007   3.549   2.023   6.456  0.1955 -1.4521  0.2324
  153MOL   C18440008   3.533   1.810   6.486 -0.1909 -0.9199  0.1451
  153MOL   C18540009   3.384   1.795   6.496  0.1050 -0.5682 -0.1120
  153MOL   C18640010   3.297   1.882   6.588  0.3094  0.2331  0.0664
  153MOL   C18740011   3.306   1.732   6.615  0.2993 -0.1427  0.3481
  153MOL   C18840012   3.601   1.824   6.624 -0.1934 -0.2952  0.2313
  153MOL   H18940013   3.562   1.723   6.427 -2.4648 -0.5246 -1.6172
  153MOL   H19040014   3.333   1.782   6.401 -0.1891  0.8646 -0.1611
  153MOL   H19140015   3.212   1.930   6.541  0.3034 -0.6166 -0.8184
  153MOL   H19240016   3.351   1.946   6.656  0.4780  1.6687 -1.3853
  153MOL   H19340017   3.220   1.669   6.594  1.4884 -2.3668  1.9450
  153MOL   H19440018   3.370   1.681   6.687  0.2483 -0.3362  0.2579
  153MOL   H19540019   3.527   1.829   6.704  1.4069 -4.3515  2.0961
  153MOL   H19640020   3.656   1.919   6.618  1.6375 -1.4744 -3.0828
  153MOL   C19740021   3.710   1.721   6.665 -0.9654 -0.2672  0.2830
  153MOL   C19840022   3.663   1.585   6.616 -0.9602  0.3414 -0.1019
  153MOL   C19940023   3.772   1.480   6.630  0.1449 -0.1360 -0.7628
  153MOL   C20040024   3.707   1.505   6.493  0.2103 -0.7218  0.0617
  153MOL   C20140025   3.728   1.715   6.825  0.3908  0.0927  0.3136
  153MOL   H20240026   3.802   1.750   6.615 -1.4060  1.2010  0.2771
  153MOL   H20340027   3.563   1.566   6.653 -1.4635 -0.4428 -1.8016
  153MOL   H20440028   3.874   1.510   6.648  0.8432 -1.0019 -3.0867
  153MOL   H20540029   3.760   1.382   6.676  0.8680  0.2239  0.2136
  153MOL   H20640030   3.769   1.557   6.420 -1.8368 -0.2378 -1.3700
  153MOL   H20740031   3.637   1.436   6.446 -1.5613  0.9934  0.1204
  153MOL   H20840032   3.639   1.677   6.875  0.7092  1.2872  1.8435
  153MOL   H20940033   3.805   1.644   6.854 -0.2537 -0.9527 -0.5305
  153MOL   C21040034   3.756   1.855   6.888  0.0127 -0.0907  0.4204
  153MOL   C21140035   3.728   1.850   7.034 -0.3669  0.0620 -0.5049
  153MOL   C21240036   3.700   1.962   7.130  0.5536 -1.5001 -0.4127
  153MOL   C21340037   3.590   1.857   7.095 -0.0087 -0.0718  0.4355
  153MOL   C21440038   3.903   1.913   6.867 -0.2890 -0.2055 -1.0910
  153MOL   H21540039   3.688   1.932   6.850  1.7427  0.3676 -1.8921
  153MOL   H21640040   3.760   1.758   7.081 -1.8706  0.8084  2.0755
  153MOL   H21740041   3.763   1.957   7.219  0.5091  0.1878 -0.2616
  153MOL   H21840042   3.705   2.055   7.074 -1.4599  1.8467  4.5014
  153MOL   H21940043   3.570   1.777   7.167  0.7570 -2.1129 -1.5747
  153MOL   H22040044   3.507   1.890   7.033 -1.1761 -0.0639  1.9720
  153MOL   H22140045   3.909   1.939   6.762 -3.2758 -0.3513 -1.3152
  153MOL   H22240046   3.906   2.010   6.917 -1.8732 -0.3257 -0.7526
  153MOL   C22340047   4.021   1.822   6.921  0.1040 -0.3166 -0.0550
  153MOL   C22440048   4.118   1.905   6.995 -0.0554  0.9784  0.4720
  153MOL   C22540049   4.081   1.968   7.130 -0.2582  0.3443 -0.1093
  153MOL   C22640050   4.189   1.863   7.118 -0.2807 -0.1956  0.5556
  153MOL   C22740051   4.083   1.742   6.808 -0.0726  0.0800 -0.5226
  153MOL   H22840052   3.993   1.753   7.000  1.2742 -0.2809  0.4059
  153MOL   H22940053   4.168   1.978   6.931  1.0722  1.3515  1.7445
  153MOL   H23040054   3.988   1.939   7.177  0.7467 -0.6635  1.3245
  153MOL   H23140055   4.121   2.063   7.166 -0.8316  1.1293 -1.5298
  153MOL   H23240056   4.294   1.885   7.134  0.5795 -2.6568 -1.3447
  153MOL   H23340057   4.164   1.762   7.153 -0.2599 -0.0050  1.1294
  153MOL   H23440058   4.011   1.673   6.765 -0.2188 -0.3845  0.4595
  153MOL   H23540059   4.095   1.806   6.721  1.7715 -0.5783 -0.7862
  153MOL   C23640060   4.217   1.664   6.834  0.4153 -0.1877 -0.8674
  153MOL   C23740061   4.285   1.635   6.699 -0.6501 -0.3130  0.3595
  153MOL   C23840062   4.359   1.739   6.619 -0.0741 -0.2242  0.2804
  153MOL   C23940063   4.433   1.620   6.686 -0.4143 -0.8660 -0.3264
  153MOL   C24040064   4.213   1.535   6.928  1.1050  0.1917 -0.4374
  153MOL   H24140065   4.280   1.729   6.895  0.2857 -0.6175 -0.2631
  153MOL   H24240066   4.219   1.572   6.639  1.6052 -1.0206 -1.4450
  153MOL   H24340067   4.337   1.736   6.513 -0.9218 -1.7411  0.4873
  153MOL   H24440068   4.353   1.838   6.664 -1.2713 -0.4517  0.6346
  153MOL   H24540069   4.493   1.632   6.776  1.7358  0.9280 -1.9370
  153MOL   H24640070   4.479   1.551   6.616 -0.6355  1.0589 -2.4502
  153MOL   H24740071   4.309   1.483   6.928  1.1507  0.2778 -0.3391
  153MOL   H24840072   4.206   1.570   7.031  3.6667 -0.1542 -0.1173
  153MOL   C24940073   4.102   1.429   6.912  0.9399  0.4577 -0.4844
  153MOL   C25040074   4.091   1.330   7.022  0.3235  0.1571  0.1426
  153MOL   C25140075   4.046   1.352   7.167  0.9430  0.4751  0.8300
  153MOL   C25240076   3.957   1.277   7.065  0.0014 -0.4000 -0.4209
  153MOL   C25340077   4.112   1.348   6.774 -0.1729 -0.1400 -0.3567
  153MOL   H25440078   4.003   1.475   6.909  0.0889 -1.2938  0.1126
  153MOL   H25540079   4.172   1.258   7.021 -0.2612 -0.4993  0.3551
  153MOL   H25640080   4.096   1.293   7.244  1.4952  0.2348  0.2911
  153MOL   H25740081   4.034   1.458   7.187 -2.3650  0.6764 -1.7081
  153MOL   H25840082   3.948   1.169   7.067  0.2391 -0.4014  0.6251
  153MOL   H25940083   3.868   1.324   7.024  0.1176 -0.0649 -0.2917
  153MOL   H26040084   4.090   1.422   6.698 -1.7224 -2.2813 -2.0614
  153MOL   H26140085   4.046   1.261   6.768 -0.5856  0.1877 -0.6228
  153MOL   H26240086   4.214   1.314   6.758  0.1575  0.7630 -0.2101
  154MOL     C140087   6.860   5.949   2.846  0.8777  0.3336  0.3545
  154MOL     C240088   6.827   6.096   2.821 -0.2641  0.5491  0.0107
  154MOL     C340089   6.686   6.136   2.816 -0.5439  0.2017  0.2322
  154MOL     C440090   6.775   6.153   2.693 -0.0224 -0.2921  0.2975
  154MOL     C540091   6.810   5.842   2.739  0.6081  0.1113 -0.0030
  154MOL     H640092   6.968   5.955   2.839  0.7557  1.3860 -0.8338
  154MOL     H740093   6.891   6.156   2.885 -1.8857 -0.9359  3.1610
  154MOL     H840094   6.620   6.053   2.841 -0.7697 -0.2424 -1.7351
  154MOL     H940095   6.650   6.227   2.864 -1.3191 -0.0894  0.2069
  154MOL    H1040096   6.807   6.254   2.672  2.8413 -1.3634 -0.7726
  154MOL    H1140097   6.752   6.082   2.613 -1.7528 -1.2336  1.5900
  154MOL    H1240098   6.833   5.874   2.638  0.7408 -1.3121 -0.4316
  154MOL    H1340099   6.702   5.852   2.734  0.6614  0.5010 -0.4449
  154MOL    H1440100   6.843   5.926   2.951  0.8913 -0.7245  0.1259
  154MOL    C1540101   6.856   5.694   2.771 -0.3157 -0.3020  0.3972
  154MOL    C1640102   6.999   5.687   2.762 -0.0686  0.0695 -0.2071
  154MOL    C1740103   7.067   5.698   2.625  0.1123  0.0207 -0.0427
  154MOL    C1840104   7.068   5.570   2.707  0.0829  0.0320 -0.4723
  154MOL    C1940105   6.810   5.629   2.899 -0.0960  0.0938 -0.3029
  154MOL    H2040106   6.813   5.627   2.696 -1.0449  0.7776 -0.1529
  154MOL    H2140107   7.049   5.746   2.838 -3.2508  1.4963  0.8491
  154MOL    H2240108   7.153   5.765   2.624  0.2643 -0.1408  1.0782
  154MOL    H2340109   6.999   5.722   2.543 -2.6959 -0.2708  2.0922
  154MOL    H2440110   7.021   5.484   2.660  2.5458 -1.4079 -0.4042
  154MOL    H2540111   7.163   5.539   2.751 -1.4016 -1.3630  1.7988
  154MOL    H2640112   6.862   5.676   2.983  0.8067 -0.0885 -0.7616
  154MOL    H2740113   6.850   5.529   2.909  0.6897  0.5957  2.0394
  154MOL    C2840114   6.659   5.636   2.927  0.6044 -0.2911 -0.4820
  154MOL    C2940115   6.646   5.576   3.065  0.7457 -0.2441  0.2955
  154MOL    C3040116   6.683   5.656   3.193  0.1279  0.2466  0.5416
  154MOL    C3140117   6.537   5.627   3.149  0.8712  0.6564 -0.5769
  154MOL    C3240118   6.563   5.562   2.832 -0.5369  0.0122  0.7437
  154MOL    H3340119   6.634   5.742   2.934 -0.3086 -0.4170 -1.7408
  154MOL    H3440120   6.689   5.478   3.080 -0.5002 -0.8417  0.0245
  154MOL    H3540121   6.719   5.759   3.188 -1.1772  0.6307 -1.6113
  154MOL    H3640122   6.726   5.591   3.269  0.2262 -1.9408 -1.3640
  154MOL    H3740123   6.470   5.701   3.106 -0.9635  1.0003  2.7001
  154MOL    H3840124   6.494   5.553   3.217  1.1462 -0.2817 -1.4053
  154MOL    H3940125   6.565   5.632   2.748 -2.0422 -1.0612 -0.1957
  154MOL    H4040126   6.467   5.568   2.883 -0.6606  1.3178  0.3932
  154MOL    C4140127   6.603   5.422   2.784  0.6169  0.8561 -0.3833
  154MOL    C4240128   6.541   5.415   2.650  0.2819  0.0216 -0.1661
  154MOL    C4340129   6.577   5.308   2.542 -0.7571 -0.5804 -0.2850
  154MOL    C4440130   6.619   5.461   2.533  0.9101  0.4946 -0.1118
  154MOL    C4540131   6.550   5.308   2.874 -0.2724  1.0760  0.1579
  154MOL    H4640132   6.706   5.400   2.756  0.8145 -1.5096  1.9277
  154MOL    H4740133   6.434   5.437   2.650  0.5560  1.4524 -1.2247
  154MOL    H4840134   6.660   5.241   2.563 -1.2131 -0.7642  1.0437
  154MOL    H4940135   6.508   5.268   2.468 -0.8224 -0.2813 -0.3837
  154MOL    H5040136   6.560   5.532   2.475  1.1527  2.1411  1.5956
  154MOL    H5140137   6.724   5.486   2.537  0.9469  0.5320 -1.1649
  154MOL    H5240138   6.448   5.292   2.838  0.2266 -0.6899 -0.5504
  154MOL    H5340139   6.512   5.339   2.970  0.0612  2.1011 -0.0365
  154MOL    C5440140   6.625   5.170   2.869  0.2951  0.1752  0.4940
  154MOL    C5540141   6.778   5.196   2.907  0.9543 -0.2310 -0.2330
  154MOL    C5640142   6.882   5.217   2.800  0.6761 -0.3953  0.0150
  154MOL    C5740143   6.871   5.083   2.868  0.0937  0.0830 -0.0678
  154MOL    C5840144   6.555   5.059   2.946  0.6343 -0.2552 -0.7054
  154MOL    H5940145   6.620   5.128   2.769  1.0977 -0.8582  0.8767
  154MOL    H6040146   6.798   5.234   3.007 -1.7927 -0.2839  0.3589
  154MOL    H6140147   6.865   5.205   2.693 -0.3889 -0.1745  0.1558
  154MOL    H6240148   6.967   5.283   2.816 -0.5414  0.4289  3.5860
  154MOL    H6340149   6.952   5.059   2.937  0.4531 -1.1565 -0.9163
  154MOL    H6440150   6.829   4.999   2.813 -2.2244  2.0358 -1.3459
  154MOL    H6540151   6.633   4.992   2.980  1.7814  0.4159 -1.9455
  154MOL    H6640152   6.510   5.102   3.035 -1.1494  1.4419 -2.3595
  154MOL    C6740153   6.446   4.978   2.861 -0.1677 -0.6464 -0.1367
  154MOL    C6840154   6.518   4.871   2.786  0.1557  0.3126  0.1987
  154MOL    C6940155   6.447   4.777   2.687 -0.4803 -0.3536 -0.2830
  154MOL    C7040156   6.552   4.882   2.636  0.2318  0.0090 -0.5630
  154MOL    C7140157   6.345   4.896   2.953  0.3011 -0.6913  0.2118
  154MOL    H7240158   6.386   5.047   2.801 -0.4133 -1.3688 -0.7321
  154MOL    H7340159   6.593   4.831   2.854  1.6335  2.0859 -0.3521
  154MOL    H7440160   6.480   4.673   2.685  0.9991  0.0482  1.7403
  154MOL    H7540161   6.347   4.790   2.647 -0.9268 -3.8383 -0.4709
  154MOL    H7640162   6.519   4.977   2.593  2.2821  0.7442 -0.5726
  154MOL    H7740163   6.652   4.854   2.604  1.8781  1.8870  2.6676
  154MOL    H7840164   6.409   4.827   3.008  0.7922 -0.7668 -0.4359
  154MOL    H7940165   6.281   4.842   2.883 -0.0179 -1.2764  0.9473
  154MOL    C8040166   6.242   4.958   3.052  0.4367 -0.2333  0.4834
  154MOL    C8140167   6.207   4.844   3.154 -0.4195  0.3057  0.0233
  154MOL    C8240168   6.165   4.872   3.293  0.1253  0.5587 -1.1668
  154MOL    C8340169   6.305   4.825   3.274 -0.0211 -1.0580 -0.1716
  154MOL    C8440170   6.109   4.999   2.982  0.1889  0.2206  0.0660
  154MOL    H8540171   6.287   5.040   3.109  0.2532 -0.1695  0.5366
  154MOL    H8640172   6.155   4.762   3.104  1.4327 -1.6342  1.1872
  154MOL    H8740173   6.085   4.807   3.327  1.0895 -0.4854 -0.8645
  154MOL    H8840174   6.145   4.974   3.327  0.4732  0.0016  0.8049
  154MOL    H8940175   6.388   4.891   3.297 -1.6223  1.4340 -1.3209
  154MOL    H9040176   6.325   4.722   3.301  0.9910 -0.4210  1.5525
  154MOL    H9140177   6.138   5.016   2.878  0.0784 -1.1061 -0.1991
  154MOL    H9240178   6.046   4.912   2.968 -0.9677  1.3813 -2.1497
  154MOL    C9340179   6.023   5.106   3.056 -0.6967  0.2208  0.2572
  154MOL    C9440180   6.092   5.236   3.065  0.1266 -0.1132 -0.3754
  154MOL    C9540181   6.054   5.337   3.165 -0.1369 -0.4614 -0.0696
  154MOL    C9640182   6.190   5.276   3.167  0.0060 -0.8569 -0.1942
  154MOL    C9740183   5.878   5.122   2.992  0.4869  0.7838 -0.4158
  154MOL    H9840184   6.011   5.061   3.155 -0.4879 -0.4145 -0.0026
  154MOL    H9940185   6.094   5.292   2.972  3.1992  0.8466  0.1986
  154MOL   H10040186   6.052   5.444   3.143 -1.5525 -0.8781 -2.1700
  154MOL   H10140187   5.976   5.292   3.226 -1.2392  0.4015 -0.7948
  154MOL   H10240188   6.274   5.336   3.131  0.3752 -0.6217  1.0361
  154MOL   H10340189   6.220   5.217   3.253  0.2597  0.0053  0.3250
  154MOL   H10440190   5.883   5.107   2.884  2.2170  1.6869 -0.4740
  154MOL   H10540191   5.835   5.219   3.018  1.6748  0.5292  2.8024
  154MOL   C10640192   5.770   5.020   3.046 -0.4315  0.0478 -0.1878
  154MOL   C10740193   5.729   5.057   3.185  0.2103 -0.2476  0.0337
  154MOL   C10840194   5.653   4.961   3.280 -0.0695 -0.9574  0.0658
  154MOL   C10940195   5.792   5.009   3.314  0.2230 -0.0977 -0.2583
  154MOL   C11040196   5.646   5.000   2.952 -0.5599  0.0074  0.2395
  154MOL   H11140197   5.829   4.928   3.050  2.7494  1.9454 -2.0952
  154MOL   H11240198   5.696   5.160   3.199 -1.0881 -0.9493  2.5277
  154MOL   H11340199   5.569   5.003   3.335 -0.3964 -1.6079  0.0709
  154MOL   H11440200   5.629   4.857   3.259  0.6669 -1.1760  0.2879
  154MOL   H11540201   5.877   4.943   3.299  0.5879  0.1995  0.5102
  154MOL   H11640202   5.817   5.084   3.388  0.7093 -2.5275  2.0864
  154MOL   H11740203   5.680   4.956   2.859 -0.2573  0.9719 -0.1136
  154MOL   H11840204   5.578   4.929   2.999 -0.4879 -0.1519  0.1029
  154MOL   C11940205   5.571   5.129   2.932  0.4358  0.1067 -0.3610
  154MOL   C12040206   5.516   5.140   2.783 -0.4429  0.4410  0.2606
  154MOL   C12140207   5.624   5.159   2.683  0.3744 -0.5153  0.1570
  154MOL   C12240208   5.527   5.272   2.712 -0.7478  0.0645 -0.0660
  154MOL   C12340209   5.455   5.145   3.037  0.0515 -1.1396 -0.5227
  154MOL   H12440210   5.642   5.211   2.939  1.8591 -0.8767 -2.5215
  154MOL   H12540211   5.448   5.062   2.750  0.4185 -1.3597  2.5907
  154MOL   H12640212   5.624   5.112   2.585 -0.1232  1.8100 -0.9804
  154MOL   H12740213   5.723   5.176   2.725 -0.4801 -0.2020  2.1124
  154MOL   H12840214   5.555   5.370   2.750  2.1463 -1.4265  1.7824
  154MOL   H12940215   5.468   5.286   2.621  0.1731  3.2823 -0.2049
  154MOL   H13040216   5.372   5.078   3.012  0.3762 -1.1099 -1.7406
  154MOL   H13140217   5.479   5.097   3.131 -1.1971  1.7054  1.3001
  154MOL   C13240218   5.397   5.291   3.058  0.4682  0.0747 -0.3378
  154MOL   C13340219   5.499   5.387   3.127  0.4341 -1.5485 -0.5411
  154MOL   C13440220   5.499   5.537   3.109  0.3072  0.1147 -0.4278
  154MOL   C13540221   5.619   5.451   3.065  0.2694  0.3355 -0.1016
  154MOL   C13640222   5.268   5.291   3.136 -0.1850  0.1968  0.0468
  154MOL   H13740223   5.374   5.346   2.967 -0.7849  0.2122  0.0480
  154MOL   H13840224   5.503   5.368   3.234  2.2908 -1.3468 -0.5600
  154MOL   H13940225   5.434   5.571   3.029  0.9859  1.3113 -0.4802
  154MOL   H14040226   5.517   5.603   3.194 -1.2413  0.1733 -0.1183
  154MOL   H14140227   5.632   5.435   2.958  2.4474  2.1109 -0.1539
  154MOL   H14240228   5.717   5.459   3.112  0.8847  0.3201 -1.3503
  154MOL   H14340229   5.296   5.224   3.217 -1.7876  1.3694  1.6053
  154MOL   H14440230   5.258   5.388   3.185 -0.7766  0.6549 -0.9569
  154MOL   C14540231   5.130   5.257   3.061  0.3265 -0.3735  0.1629
  154MOL   C14640232   5.102   5.376   2.968  0.0068  0.8216  0.1945
  154MOL   C14740233   4.956   5.432   2.942 -0.0027 -0.1857 -0.0902
  154MOL   C14840234   5.050   5.506   3.033  1.0472  0.4692  0.0313
  154MOL   C14940235   5.111   5.124   2.989 -0.2155 -0.8616 -0.3083
  154MOL   H15040236   5.068   5.265   3.151  0.4081  0.4933  0.1430
  154MOL   H15140237   5.177   5.387   2.890  0.7630 -1.6642  0.5373
  154MOL   H15240238   4.925   5.488   2.854 -2.0633 -1.7455 -0.4035
  154MOL   H15340239   4.881   5.357   2.967 -1.7046  1.4634 -0.1977
  154MOL   H15440240   5.023   5.492   3.138 -0.2138 -0.2462 -0.3847
  154MOL   H15540241   5.068   5.607   2.998 -1.0726  1.3274  1.3538
  154MOL   H15640242   5.009   5.128   2.951  0.6708  2.8080 -2.5964
  154MOL   H15740243   5.182   5.127   2.906  0.3948  0.5655  0.2481
  154MOL   C15840244   5.124   5.000   3.077 -0.1946  0.1750  0.5336
  154MOL   C15940245   5.115   4.880   2.978  0.0217 -0.7402  0.1136
  154MOL   C16040246   5.232   4.835   2.894 -0.1100  0.5736 -0.0025
  154MOL   C16140247   5.187   4.754   3.021 -0.1359  0.3258 -0.3788
  154MOL   C16240248   5.012   4.995   3.182 -0.4573 -0.0318 -0.6805
  154MOL   H16340249   5.217   4.994   3.134  0.4934 -0.7750 -0.6577
  154MOL   H16440250   5.020   4.872   2.925 -0.6356  1.5303  0.9026
  154MOL   H16540251   5.323   4.895   2.890 -1.7021  3.0870  0.0749
  154MOL   H16640252   5.205   4.800   2.795 -0.4821  1.2964 -0.1574
  154MOL   H16740253   5.128   4.664   3.013 -0.7979  0.9328 -2.7049
  154MOL   H16840254   5.262   4.765   3.099  0.1501 -0.0313 -0.5995
  154MOL   H16940255   4.962   4.900   3.164  0.8952 -1.1342  1.2869
  154MOL   H17040256   4.930   5.061   3.152 -0.0623  1.2984  1.0824
  154MOL   C17140257   5.052   5.004   3.330 -0.6978  0.6134 -1.0721
  154MOL   C17240258   4.938   5.050   3.427 -0.4407  0.2309  1.0328
  154MOL   C17340259   4.958   5.145   3.537 -0.3362  0.1512 -0.1811
  154MOL   C17440260   4.896   5.195   3.418  1.3101 -0.3256  0.1502
  154MOL   C17540261   5.100   4.862   3.388  0.5545  0.5116  0.7594
  154MOL   H17640262   5.140   5.069   3.335 -1.0815  0.8833  3.4865
  154MOL   H17740263   4.860   4.975   3.438 -1.3655  0.9408 -0.5953
  154MOL   H17840264   4.901   5.127   3.628 -0.4998 -0.6680 -0.4437
  154MOL   H17940265   5.061   5.172   3.559 -0.5661  1.8085 -1.1055
  154MOL   H18040266   4.940   5.246   3.333 -0.8355  1.6654  0.1988
  154MOL   H18140267   4.788   5.200   3.421  1.3376 -0.0065  0.8723
  154MOL   H18240268   5.140   4.798   3.309  0.8209 -0.2459  1.4981
  154MOL   H18340269   5.012   4.802   3.412  2.1539 -1.5026  1.8203
  154MOL   C18440270   5.188   4.868   3.518 -0.1094  0.0053  0.0737
  154MOL   C18540271   5.320   4.947   3.494 -0.0768 -0.2275  0.4972
  154MOL   C18640272   5.398   5.016   3.604 -0.1883  0.0717  0.0782
  154MOL   C18740273   5.341   5.102   3.493  0.1730 -0.1676  0.0626
  154MOL   C18840274   5.215   4.729   3.584  0.2656 -0.2580  0.1044
  154MOL   H18940275   5.136   4.924   3.597 -0.5341  0.3343 -0.4358
  154MOL   H19040276   5.391   4.887   3.438 -0.5198 -1.2142  0.9917
  154MOL   H19140277   5.505   4.995   3.606  0.3016  2.4037 -0.0769
  154MOL   H19240278   5.351   5.029   3.701  1.1243 -1.7594  0.9922
  154MOL   H19340279   5.412   5.138   3.418  1.4484  0.9530  1.7579
  154MOL   H19440280   5.261   5.170   3.520  0.6188  0.1842  0.5102
  154MOL   H19540281   5.297   4.748   3.653  1.9558 -0.7901 -1.6971
  154MOL   H19640282   5.254   4.666   3.504  1.0142 -1.0692  1.0927
  154MOL   C19740283   5.091   4.653   3.650 -0.3035 -0.4096 -0.1043
  154MOL   C19840284   5.022   4.742   3.756  0.4370  0.3841  0.4407
  154MOL   C19940285   4.882   4.710   3.795  0.0263  0.0599  0.0361
  154MOL   C20040286   4.903   4.833   3.715  0.0720 -0.1733  0.0353
  154MOL   C20140287   5.123   4.511   3.706 -0.3294  0.3022 -0.3784
  154MOL   H20240288   5.013   4.644   3.574 -1.1393 -0.0126  0.7008
  154MOL   H20340289   5.082   4.775   3.841  1.6810  1.2173 -0.7411
  154MOL   H20440290   4.825   4.631   3.747  1.3704 -1.4175  0.8239
  154MOL   H20540291   4.846   4.728   3.896  0.3906  0.8056  0.0388
  154MOL   H20640292   4.862   4.837   3.615  1.1049  1.2466 -0.3501
  154MOL   H20740293   4.922   4.931   3.760  0.1164 -0.8128  1.4619
  154MOL   H20840294   5.182   4.516   3.798 -0.5633  2.9590 -0.3375
  154MOL   H20940295   5.029   4.463   3.734 -0.7794  1.6595  0.4953
  154MOL   C21040296   5.199   4.406   3.608 -0.3059 -0.8068 -1.0578
  154MOL   C21140297   5.197   4.272   3.682  0.0720  0.3571  0.1665
  154MOL   C21240298   5.301   4.169   3.657 -0.3005  0.0872 -0.2209
  154MOL   C21340299   5.298   4.240   3.791 -0.0281 -0.7231  0.2445
  154MOL   C21440300   5.142   4.396   3.471 -0.2810 -0.4274 -0.1122
  154MOL   H21540301   5.295   4.456   3.619 -1.3732  0.9288  0.9195
  154MOL   H21640302   5.101   4.224   3.699  0.7239 -1.8962 -2.2157
  154MOL   H21740303   5.267   4.066   3.650  0.0501 -0.0433 -0.0115
  154MOL   H21840304   5.389   4.196   3.597  1.2083  0.8535  2.2634
  154MOL   H21940305   5.267   4.183   3.878 -0.8352  0.2326  0.5916
  154MOL   H22040306   5.387   4.299   3.812  0.4020 -1.3864  0.3103
  154MOL   H22140307   5.051   4.336   3.465 -0.4634  0.0841 -4.0957
  154MOL   H22240308   5.095   4.490   3.443 -3.8673 -2.0972  0.0152
  154MOL   C22340309   5.249   4.367   3.363  0.1281  0.2827  0.2119
  154MOL   C22440310   5.328   4.489   3.337 -0.4182  0.3559  0.1306
  154MOL   C22540311   5.461   4.519   3.406  0.1784 -0.7183 -0.0755
  154MOL   C22640312   5.462   4.475   3.258 -0.6068  0.2543  0.2690
  154MOL   C22740313   5.189   4.321   3.235 -0.4849  0.2262  0.5412
  154MOL   H22840314   5.305   4.284   3.405  2.2204  2.7602  2.5161
  154MOL   H22940315   5.269   4.577   3.312  0.9332  0.4203 -2.9468
  154MOL   H23040316   5.497   4.450   3.482  1.5221  0.9895  0.8954
  154MOL   H23140317   5.472   4.626   3.425 -2.9703 -0.2735 -0.6126
  154MOL   H23240318   5.495   4.551   3.188  0.3774  0.6118  1.1213
  154MOL   H23340319   5.498   4.375   3.233 -0.5840 -0.0122  1.3545
  154MOL   H23440320   5.103   4.377   3.198 -0.4610  0.2833  0.5718
  154MOL   H23540321   5.265   4.346   3.161 -0.4981 -1.6625 -0.1328
  154MOL   C23640322   5.165   4.170   3.224 -0.1545  0.2096 -0.2753
  154MOL   C23740323   5.179   4.123   3.080 -0.4758 -0.2347 -0.0367
  154MOL   C23840324   5.314   4.135   3.011  0.1452 -0.0194 -0.7200
  154MOL   C23940325   5.253   3.997   3.034 -0.3525  0.3108  0.6637
  154MOL   C24040326   5.030   4.126   3.287 -0.7101 -0.5297 -0.3447
  154MOL   H24140327   5.253   4.117   3.260 -1.8624 -2.4762  0.0892
  154MOL   H24240328   5.089   4.147   3.025 -1.6572  1.0785  2.4058
  154MOL   H24340329   5.319   4.158   2.904  1.2302 -0.0805 -0.6828
  154MOL   H24440330   5.398   4.154   3.076 -0.6900  1.5336 -0.0495
  154MOL   H24540331   5.294   3.942   3.118 -1.7143 -0.3017  0.9431
  154MOL   H24640332   5.201   3.935   2.962  1.6365 -1.6782  0.8904
  154MOL   H24740333   5.033   4.139   3.395 -1.3114 -1.0861 -0.2544
  154MOL   H24840334   4.946   4.184   3.250  0.0842 -0.4431 -2.0504
  154MOL   C24940335   5.003   3.975   3.263 -0.5227  0.0048  0.2537
  154MOL   C25040336   4.857   3.945   3.297  0.1002 -0.9340  0.7878
  154MOL   C25140337   4.744   3.991   3.209 -0.1661  0.0573 -0.3130
  154MOL   C25240338   4.781   3.841   3.222  0.2678 -0.0797  0.9397
  154MOL   C25340339   5.099   3.893   3.345 -0.0246  0.0649 -0.8860
  154MOL   H25440340   5.009   3.935   3.162  0.4568  0.7970 -0.0012
  154MOL   H25540341   4.832   3.945   3.403 -0.7884  0.8036  0.5984
  154MOL   H25640342   4.650   4.015   3.259  0.6396  4.0153 -0.5788
  154MOL   H25740343   4.778   4.063   3.135 -1.1169 -0.7782 -1.5794
  154MOL   H25840344   4.712   3.786   3.286 -0.1369  3.7979  4.0799
  154MOL   H25940345   4.821   3.794   3.133 -0.0429  1.6119 -0.1132
  154MOL   H26040346   5.097   3.785   3.328  2.2817  0.1513 -1.9039
  154MOL   H26140347   5.087   3.905   3.453 -2.8188 -0.8424 -1.0752
  154MOL   H26240348   5.198   3.931   3.318  0.4221 -0.1968  0.3157
  155MOL     C140349   4.353   1.607   7.425 -0.1881  0.0920 -0.3042
  155MOL     C240350   4.307   1.461   7.454  0.5740 -0.2786 -0.1713
  155MOL     C340351   4.189   1.461   7.543  0.7325 -0.1019  0.6392
  155MOL     C440352   4.324   1.398   7.584  0.5329 -1.0951  0.2532
  155MOL     C540353   4.506   1.609   7.386 -0.6971  0.3251  0.1056
  155MOL     H640354   4.304   1.658   7.342  0.1517  0.1770 -0.4539
  155MOL     H740355   4.289   1.392   7.372  0.0490  0.5017 -0.7169
  155MOL     H840356   4.157   1.542   7.608 -3.0346 -0.8245 -0.1897
  155MOL     H940357   4.104   1.396   7.520  1.7396 -0.8413 -1.1264
  155MOL    H1040358   4.342   1.291   7.571  2.9461 -0.7569  0.5116
  155MOL    H1140359   4.391   1.450   7.653 -1.2468  1.7029 -0.0645
  155MOL    H1240360   4.505   1.594   7.278 -2.5720  3.0096 -0.3182
  155MOL    H1340361   4.559   1.529   7.436  0.3218 -0.6383 -2.4696
  155MOL    H1440362   4.326   1.666   7.512  1.0786  1.5418 -0.8691
  155MOL    C1540363   4.597   1.734   7.415  0.1456 -0.8351  1.1492
  155MOL    C1640364   4.555   1.838   7.314  0.1216  0.0191  0.0374
  155MOL    C1740365   4.605   1.832   7.170  0.5785  0.2451  0.1465
  155MOL    C1840366   4.644   1.943   7.266  0.4835  0.1804 -0.5836
  155MOL    C1940367   4.598   1.785   7.558  0.0479 -1.0353  0.3724
  155MOL    H2040368   4.695   1.696   7.386 -0.8891 -1.5469 -1.5471
  155MOL    H2140369   4.450   1.866   7.320  0.0173 -0.3406 -0.1186
  155MOL    H2240370   4.528   1.844   7.094  2.2446  2.5631 -1.2353
  155MOL    H2340371   4.686   1.764   7.148 -0.4173 -1.3886  1.3435
  155MOL    H2440372   4.743   1.937   7.311 -0.2438  0.9836  1.2010
  155MOL    H2540373   4.609   2.046   7.272  1.7559  0.5477  0.7130
  155MOL    H2640374   4.503   1.834   7.579  0.6027  0.7753 -1.1569
  155MOL    H2740375   4.661   1.874   7.568  0.4445 -1.4304  1.4792
  155MOL    C2840376   4.654   1.688   7.662  0.1366  0.3700 -1.0479
  155MOL    C2940377   4.599   1.716   7.802  0.7330 -0.1603  0.5402
  155MOL    C3040378   4.450   1.712   7.817  0.1342 -0.6832 -0.3404
  155MOL    C3140379   4.537   1.614   0.048  0.1724 -0.3040 -0.4209
  155MOL    C3240380   4.809   1.681   7.682  0.3480 -0.0618 -0.4349
  155MOL    H3340381   4.610   1.591   7.639  0.4300 -0.3760  1.4293
  155MOL    H3440382   4.636   1.799   0.023  0.0759  1.9777 -1.8976
  155MOL    H3540383   4.391   1.667   7.738  0.0625 -2.2729  0.5948
  155MOL    H3640384   4.408   1.795   0.034  2.3832 -0.3973  1.0122
  155MOL    H3740385   4.541   1.625   0.156  2.5687  0.8763 -0.6026
  155MOL    H3840386   4.532   1.510   0.017 -0.2217 -0.2843 -0.4262
  155MOL    H3940387   4.837   1.783   7.706  0.5344 -0.0206 -0.8267
  155MOL    H4040388   4.840   1.674   7.578  2.5248  0.5001  0.1678
  155MOL    C4140389   4.878   1.573   7.771  0.6225 -0.0662  0.3170
  155MOL    C4240390   4.807   1.441   7.750  0.4714  0.0352 -0.2892
  155MOL    C4340391   4.885   1.318   7.727  0.1277  0.2610  0.2283
  155MOL    C4440392   4.793   1.366   7.620  0.2450  0.4321 -0.1128
  155MOL    C4540393   4.907   1.616   0.070 -0.4239 -0.1402 -0.9221
  155MOL    H4640394   4.971   1.557   7.716 -0.0859 -2.2775 -0.2858
  155MOL    H4740395   4.724   1.432   7.819 -0.4909  0.0800 -1.4183
  155MOL    H4840396   4.993   1.335   7.718  0.1661  0.5347  1.1518
  155MOL    H4940397   4.855   1.231   7.785 -1.4598  0.7111  0.0909
  155MOL    H5040398   4.687   1.342   7.610  0.3413 -0.7103  1.4150
  155MOL    H5140399   4.825   1.439   7.546 -1.3631  1.3247  0.0235
  155MOL    H5240400   4.812   1.612   0.123 -0.7072 -1.5974 -1.5105
  155MOL    H5340401   4.940   1.718   0.055 -0.2347  0.2559  1.9029
  155MOL    C5440402   5.018   1.534   0.137 -0.0210  0.2163  0.0253
  155MOL    C5540403   5.158   1.569   0.091  0.1496 -0.1497 -0.1218
  155MOL    C5640404   5.227   1.507   7.815 -0.3162  0.3703  0.6979
  155MOL    C5740405   5.267   1.468   0.113 -0.3571  0.0510 -0.1961
  155MOL    C5840406   5.015   1.551   0.294  0.4207 -0.3721  0.7798
  155MOL    H5940407   5.003   1.426   0.125  0.3861 -0.0206  1.4855
  155MOL    H6040408   5.183   1.672   0.116 -0.4517 -0.1574  0.5187
  155MOL    H6140409   5.176   1.433   7.754 -0.7081  1.0624  0.1841
  155MOL    H6240410   5.294   1.569   7.756 -2.6072  0.0803 -2.3508
  155MOL    H6340411   5.365   1.499   0.151  0.2594 -0.6512 -1.1889
  155MOL    H6440412   5.243   1.365   0.137 -0.1939  0.2248  0.7721
  155MOL    H6540413   5.096   1.497   0.343 -0.4833 -2.9282 -0.4463
  155MOL    H6640414   5.041   1.652   0.323 -0.1517  0.1847 -0.6191
  155MOL    C6740415   4.891   1.504   0.363  0.0829 -0.2859  0.1423
  155MOL    C6840416   4.886   1.350   0.363 -0.3019 -0.2894 -0.4093
  155MOL    C6940417   4.755   1.282   0.409 -0.0146 -0.3960 -0.3648
  155MOL    C7040418   4.801   1.276   0.261  0.4725 -0.1476  0.2438
  155MOL    C7140419   4.877   1.565   0.505 -0.1956 -0.7096  0.5679
  155MOL    H7240420   4.804   1.530   0.301 -0.9166 -1.1754  1.1488
  155MOL    H7340421   4.978   1.299   0.391 -1.1354 -1.6300 -0.0326
  155MOL    H7440422   4.770   1.194   0.472  0.8383 -0.3190 -0.4576
  155MOL    H7540423   4.677   1.349   0.445 -0.7422 -0.0880 -2.4816
  155MOL    H7640424   4.755   1.344   0.190  0.5709 -1.7782 -1.4273
  155MOL    H7740425   4.821   1.174   0.228 -0.8486 -0.2015 -0.4186
  155MOL    H7840426   4.977   1.577   0.545  0.3413 -0.4615 -0.8177
  155MOL    H7940427   4.818   1.492   0.560 -0.4102 -1.0507 -0.1110
  155MOL    C8040428   4.804   1.702   0.525  0.0796 -0.2039 -0.1441
  155MOL    C8140429   4.805   1.756   0.672  0.3709  0.3310  0.0881
  155MOL    C8240430   4.914   1.732   0.766 -0.1422 -0.2312 -0.1033
  155MOL    C8340431   4.784   1.663   0.787  0.1526 -0.3079  0.7011
  155MOL    C8440432   4.657   1.698   0.476  1.0508  0.4087  0.2398
  155MOL    H8540433   4.868   1.765   0.462 -0.7292 -0.2634 -1.0331
  155MOL    H8640434   4.753   1.851   0.670  1.8917  1.1583 -2.5819
  155MOL    H8740435   4.931   1.814   0.836 -1.8309 -3.3394  4.1657
  155MOL    H8840436   5.000   1.671   0.738  1.3308  2.5063 -1.7866
  155MOL    H8940437   4.779   1.556   0.772 -1.6982  0.2119 -2.9962
  155MOL    H9040438   4.710   1.700   0.858 -2.2403  0.9090 -2.2794
  155MOL    H9140439   4.650   1.648   0.379  1.7461  1.5781 -0.4274
  155MOL    H9240440   4.604   1.639   0.550 -0.8639  1.5621 -0.1748
  155MOL    C9340441   4.579   1.830   0.460  0.5138 -0.8225  0.2084
  155MOL    C9440442   4.644   1.904   0.349  0.1925  0.7617 -0.7901
  155MOL    C9540443   4.637   2.059   0.337  0.2389  0.1033 -0.2098
  155MOL    C9640444   4.765   1.993   0.387 -0.3439 -0.4475  0.1088
  155MOL    C9740445   4.431   1.799   0.430  0.2476 -0.2942 -0.0498
  155MOL    H9840446   4.587   1.890   0.550  0.0322 -2.3590  1.3052
  155MOL    H9940447   4.660   1.845   0.259  2.1893  0.0323  0.0054
  155MOL   H10040448   4.634   2.091   0.233 -0.9660  1.7736  0.3012
  155MOL   H10140449   4.560   2.108   0.398 -0.8786 -1.2144 -0.5286
  155MOL   H10240450   4.787   1.992   0.494  1.5991  0.7712 -0.2388
  155MOL   H10340451   4.854   2.013   0.327 -0.8465  0.1037 -0.4471
  155MOL   H10440452   4.417   1.735   0.343  1.2002 -0.7321  0.1177
  155MOL   H10540453   4.381   1.888   0.391 -1.0162 -0.3335  1.4412
  155MOL   C10640454   4.342   1.740   0.543 -0.0713 -0.0537  0.2404
  155MOL   C10740455   4.288   1.855   0.623 -0.1127  0.2602 -0.0340
  155MOL   C10840456   4.220   1.824   0.748  0.4586 -0.0307 -1.2390
  155MOL   C10940457   4.340   1.906   0.755 -0.2636 -0.3532  0.3643
  155MOL   C11040458   4.227   1.656   0.466  0.9376  0.0177 -0.1231
  155MOL   H11140459   4.399   1.671   0.605 -0.6117 -0.0413  0.7546
  155MOL   H11240460   4.248   1.940   0.568 -3.4187 -1.3413 -0.2184
  155MOL   H11340461   4.127   1.877   0.768  1.3497  1.9008 -2.0988
  155MOL   H11440462   4.224   1.724   0.792  0.1376 -0.0209 -1.1798
  155MOL   H11540463   4.429   1.855   0.792  0.6537  1.9872  1.4446
  155MOL   H11640464   4.337   2.012   0.779 -0.3891 -0.1750 -0.4297
  155MOL   H11740465   4.134   1.670   0.521  1.8179  0.2842  1.3253
  155MOL   H11840466   4.205   1.706   0.371  1.1388  0.8919  0.2840
  155MOL   C11940467   4.261   1.505   0.449  0.0671  0.4502 -0.2873
  155MOL   C12040468   4.294   1.436   0.579 -0.1677 -0.4588 -0.8004
  155MOL   C12140469   4.433   1.418   0.646  0.1501 -0.2211  0.7974
  155MOL   C12240470   4.368   1.305   0.579  0.3013  0.3979  0.2637
  155MOL   C12340471   4.158   1.427   0.354 -0.7789  0.6818 -0.3917
  155MOL   H12440472   4.355   1.497   0.393  0.1546  1.8967 -0.3600
  155MOL   H12540473   4.206   1.418   0.640  0.5923 -0.1651  0.4015
  155MOL   H12640474   4.436   1.399   0.753 -3.6943 -1.6361  0.7308
  155MOL   H12740475   4.518   1.459   0.591 -0.7554  0.2655 -0.2578
  155MOL   H12840476   4.404   1.244   0.496  0.3852 -1.7206  1.8232
  155MOL   H12940477   4.329   1.231   0.649 -1.2241  1.7259  0.8421
  155MOL   H13040478   4.154   1.322   0.382 -2.4293  0.5453 -1.0560
  155MOL   H13140479   4.056   1.461   0.372 -1.0802  0.9751 -2.5235
  155MOL   C13240480   4.195   1.422   0.200 -0.2917  0.0970  0.2841
  155MOL   C13340481   4.332   1.350   0.172  0.1218  0.4327 -0.5247
  155MOL   C13440482   4.373   1.265   0.059 -0.2257  0.6996  0.1427
  155MOL   C13540483   4.341   1.201   0.192 -0.4001 -0.2881  0.0449
  155MOL   C13640484   4.178   1.559   0.119 -0.2448  1.1803 -0.1656
  155MOL   H13740485   4.121   1.360   0.148 -0.7843 -0.9944  2.2338
  155MOL   H13840486   4.416   1.405   0.214 -1.2420  1.4655  0.9352
  155MOL   H13940487   4.307   1.223   7.823  0.8183 -1.0252  0.1753
  155MOL   H14040488   4.478   1.279   0.035  0.2568 -0.6656  1.4721
  155MOL   H14140489   4.244   1.160   0.218 -0.5265  0.6315  1.0709
  155MOL   H14240490   4.426   1.193   0.260 -1.8692  0.5984  2.0164
  155MOL   H14340491   4.252   1.626   0.161  2.5136 -0.8876 -1.5309
  155MOL   H14440492   4.213   1.540   0.018 -0.0433 -0.4715  0.1871
  155MOL   C14540493   4.044   1.631   0.127 -0.0009  0.5948 -0.4033
  155MOL   C14640494   4.060   1.770   0.065  0.0384  0.4465  0.1830
  155MOL   C14740495   3.976   1.883   0.107  0.4801 -0.1298 -0.8443
  155MOL   C14840496   4.127   1.875   0.131 -0.4073 -0.3850 -0.1866
  155MOL   C14940497   3.935   1.558   0.050  0.1119  0.4027  0.4037
  155MOL   H15040498   4.019   1.656   0.230  0.8568 -2.7951  0.6981
  155MOL   H15140499   4.078   1.759   7.798  0.9199  1.3370  0.2381
  155MOL   H15240500   3.944   1.952   0.028  0.8323 -1.5165 -2.2256
  155MOL   H15340501   3.919   1.878   0.199  2.0040 -0.2880  0.1041
  155MOL   H15440502   4.168   1.859   0.231 -1.6792 -0.6993  0.2931
  155MOL   H15540503   4.189   1.952   0.085 -0.7479  0.1256  0.2032
  155MOL   H15640504   3.957   1.573   7.783  2.7776  1.0046  1.0145
  155MOL   H15740505   3.952   1.454   0.075  1.7174  0.4533 -0.4378
  155MOL   C15840506   3.790   1.597   0.070 -0.3135  0.3786  0.5172
  155MOL   C15940507   3.731   1.529   0.192 -0.4907  0.6391 -0.0034
  155MOL   C16040508   3.732   1.604   0.329 -0.4960  0.5644 -0.0888
  155MOL   C16140509   3.601   1.570   0.269 -0.2424 -0.8682 -0.1356
  155MOL   C16240510   3.707   1.564   7.784 -0.3831  0.2162 -0.1964
  155MOL   H16340511   3.781   1.705   0.080 -1.7395  0.2906  0.3360
  155MOL   H16440512   3.749   1.421   0.197  0.2175  0.7242 -0.6663
  155MOL   H16540513   3.772   1.705   0.327  0.2546  0.2679 -0.3486
  155MOL   H16640514   3.761   1.548   0.419  0.8695 -2.4416 -2.2962
  155MOL   H16740515   3.542   1.490   0.314 -0.0584 -0.9131  0.0256
  155MOL   H16840516   3.548   1.647   0.212  0.5808 -0.0686  0.1664
  155MOL   H16940517   3.603   1.534   7.797  0.1800 -1.5987  0.1878
  155MOL   H17040518   3.741   1.472   7.738  4.1343  1.3100  0.7271
  155MOL   C17140519   3.725   1.666   7.668 -0.6054  0.6379  0.8532
  155MOL   C17240520   3.791   1.602   7.545  0.5774 -0.1538  0.4578
  155MOL   C17340521   3.720   1.508   7.451  0.5965  0.2891  0.6773
  155MOL   C17440522   3.759   1.638   7.400  0.2305 -0.0175  0.3944
  155MOL   C17540523   3.597   1.738   7.637  0.4354 -0.2173 -0.3085
  155MOL   H17640524   3.811   1.724   7.703  0.6842 -0.4173 -0.4804
  155MOL   H17740525   3.896   1.590   7.571  0.8523 -0.3868 -0.7638
  155MOL   H17840526   3.780   1.419   7.431  1.7674  1.4965 -1.4107
  155MOL   H17940527   3.615   1.491   7.475  0.9801 -3.3073 -0.0016
  155MOL   H18040528   3.692   1.723   7.386  0.6834 -0.1819 -3.0378
  155MOL   H18140529   3.844   1.631   7.334  0.6274  0.5348  0.8400
  155MOL   H18240530   3.524   1.672   7.589  1.0556 -1.8742  0.9622
  155MOL   H18340531   3.613   1.815   7.562 -0.2053  0.2017 -0.0181
  155MOL   C18440532   3.535   1.809   7.754  0.3584  0.2097 -0.2532
  155MOL   C18540533   3.383   1.819   7.734 -0.8215 -0.0889  0.4997
  155MOL   C18640534   3.295   1.793   0.016  0.3132  0.1921 -0.8132
  155MOL   C18740535   3.299   1.691   7.746 -1.3243 -0.1981 -0.2956
  155MOL   C18840536   3.592   1.948   7.766 -0.1349 -0.0533  0.0929
  155MOL   H18940537   3.548   1.750   0.006 -0.4481  3.0298  1.7689
  155MOL   H19040538   3.350   1.889   7.657  0.0186 -0.4622 -0.2123
  155MOL   H19140539   3.205   1.852   0.023 -0.1130 -0.6372  1.0540
  155MOL   H19240540   3.349   1.774   0.109  0.1517 -0.7095 -0.8926
  155MOL   H19340541   3.221   1.687   7.671 -0.4221  1.2465 -1.3273
  155MOL   H19440542   3.355   1.600   7.765  0.6455  1.1849  0.8108
  155MOL   H19540543   3.589   2.006   7.674  0.0976 -1.6244 -0.9281
  155MOL   H19640544   3.700   1.941   7.780 -0.1316  1.9663  1.1390
  155MOL   C19740545   3.538   2.034   0.047 -0.0492  0.1036  0.7881
  155MOL   C19840546   3.562   2.177   0.009  0.5846 -0.1219 -0.0105
  155MOL   C19940547   3.472   2.285   0.053  0.0006 -0.0373 -0.0934
  155MOL   C20040548   3.482   2.246   7.745  0.0836  0.5376  0.5671
  155MOL   C20140549   3.623   2.000   0.176  0.1341 -0.8768  0.1973
  155MOL   H20240550   3.429   2.028   0.054 -0.4764  1.2954 -3.3332
  155MOL   H20340551   3.668   2.195   7.834  0.5707 -0.0669 -0.0458
  155MOL   H20440552   3.388   2.245   0.109 -1.3829  1.2043 -1.2611
  155MOL   H20540553   3.508   2.381   0.088 -0.3613 -0.1693  0.6523
  155MOL   H20640554   3.395   2.194   7.707  1.2287 -0.8572 -0.1933
  155MOL   H20740555   3.532   2.310   7.672 -2.1226  0.1949 -1.3171
  155MOL   H20840556   3.641   1.895   0.199  1.2400 -0.9749 -1.1030
  155MOL   H20940557   3.721   2.043   0.155 -0.2032  0.2308  0.8482
  155MOL   C21040558   3.557   2.063   0.302 -0.2441  0.4102 -0.8046
  155MOL   C21140559   3.425   1.990   0.340  0.2685  0.1561 -0.4906
  155MOL   C21240560   3.323   2.057   0.434 -0.7680  0.0773 -0.0784
  155MOL   C21340561   3.283   2.023   0.295 -0.4479  0.1874 -0.4315
  155MOL   C21440562   3.650   2.059   0.420 -0.5427 -0.1423  0.3180
  155MOL   H21540563   3.527   2.167   0.297 -1.5479  0.2121  2.1118
  155MOL   H21640564   3.437   1.882   0.339 -1.3734 -0.0482 -0.2816
  155MOL   H21740565   3.272   1.997   0.509  1.6125 -1.2101  0.5511
  155MOL   H21840566   3.340   2.163   0.452  0.4296  0.1091 -1.3447
  155MOL   H21940567   3.200   1.953   0.301  0.1005 -0.4331 -0.0593
  155MOL   H22040568   3.277   2.096   0.214 -0.2318  2.2108  1.3225
  155MOL   H22140569   3.604   2.104   0.508 -0.5990  0.3327  0.0517
  155MOL   H22240570   3.673   1.957   0.448  1.2845  0.6869  1.9749
  155MOL   C22340571   3.790   2.121   0.423  0.6946 -0.0600 -0.1824
  155MOL   C22440572   3.852   2.085   0.561 -0.5242  0.5051  0.4645
  155MOL   C22540573   3.915   1.952   0.594 -0.4333  0.2701  0.2747
  155MOL   C22640574   4.002   2.075   0.596 -0.2887  0.7085 -0.1381
  155MOL   C22740575   3.791   2.265   0.389 -0.2938 -0.3539 -0.1222
  155MOL   H22840576   3.852   2.061   0.356  0.9611 -1.8752  1.6429
  155MOL   H22940577   3.788   2.118   0.642 -1.5285  0.7386 -0.4086
  155MOL   H23040578   3.919   1.881   0.511  0.6591  1.5278 -0.7674
  155MOL   H23140579   3.904   1.905   0.691 -0.2647 -0.3104  0.0178
  155MOL   H23240580   4.028   2.111   0.696 -2.2969  0.9151  0.3508
  155MOL   H23340581   4.079   2.083   0.521 -0.4692 -1.1512 -0.5438
  155MOL   H23440582   3.770   2.280   0.283  0.8687  0.4519 -0.2580
  155MOL   H23540583   3.705   2.308   0.440 -0.8814 -1.6268 -0.0257
  155MOL   C23640584   3.923   2.343   0.417 -0.0186  0.2745 -0.1737
  155MOL   C23740585   3.892   2.495   0.418  0.2884  0.3278  0.1317
  155MOL   C23840586   3.794   2.548   0.524  0.4487 -0.1173 -0.1291
  155MOL   C23940587   3.940   2.591   0.533 -0.9205 -0.4932  0.4460
  155MOL   C24040588   4.045   2.304   0.334 -0.5186 -0.0735 -0.6957
  155MOL   H24140589   3.940   2.320   0.522  0.2570 -0.1809 -0.3191
  155MOL   H24240590   3.897   2.540   0.319 -1.1061  1.6905  0.6555
  155MOL   H24340591   3.721   2.615   0.477  1.5803  1.3169  0.1347
  155MOL   H24440592   3.743   2.482   0.594 -0.2053 -0.6227 -1.0618
  155MOL   H24540593   4.000   2.554   0.616  0.7611  0.1027 -0.4772
  155MOL   H24640594   3.952   2.696   0.506 -2.6905 -0.6555 -1.0347
  155MOL   H24740595   4.057   2.196   0.346  0.2689  0.2520  1.8238
  155MOL   H24840596   4.023   2.321   0.229  0.2868 -0.7703 -0.9852
  155MOL   C24940597   4.176   2.370   0.369  0.2578 -0.8572  0.4167
  155MOL   C25040598   4.289   2.325   0.277 -0.4674 -0.3980 -0.3927
  155MOL   C25140599   4.279   2.399   0.147  0.4126  0.3012 -0.3333
  155MOL   C25240600   4.406   2.416   0.225  0.8180  0.1919  0.4693
  155MOL   C25340601   4.219   2.340   0.515 -0.1303  0.3322  0.3925
  155MOL   H25440602   4.173   2.479   0.365 -0.6601 -0.9316 -0.9082
  155MOL   H25540603   4.303   2.217   0.270 -1.5811 -0.6029  0.2592
  155MOL   H25640604   4.292   2.341   0.056  2.0123 -0.2021  0.2041
  155MOL   H25740605   4.241   2.500   0.132 -1.6748 -0.6720 -1.8509
  155MOL   H25840606   4.497   2.380   0.178  0.0762  0.2895 -1.0796
  155MOL   H25940607   4.416   2.501   0.291  0.1714  0.3472  0.3684
  155MOL   H26040608   4.149   2.359   0.596 -0.7860 -1.2385  0.2131
  155MOL   H26140609   4.301   2.405   0.544 -0.3969  0.0412  1.8269
  155MOL   H26240610   4.255   2.238   0.522  0.2581  0.5374  1.3812
  156MOL     C140611   6.626   6.404   5.935  0.0501 -0.0459 -0.6010
  156MOL     C240612   6.505   6.325   5.874  0.6945 -0.1116 -0.1596
  156MOL     C340613   6.407   6.383   5.774  0.7184  0.2417  0.5998
  156MOL     C440614   6.363   6.357   5.919  0.0506 -0.3371 -0.5572
  156MOL     C540615   6.725   6.428   5.815  0.4942 -0.3828  0.3551
  156MOL     H640616   6.588   6.497   5.976  0.4887  0.2971 -0.9710
  156MOL     H740617   6.536   6.221   5.868  1.1519 -0.1345  2.2066
  156MOL     H840618   6.421   6.486   5.744  1.6914  0.3370  1.3583
  156MOL     H940619   6.402   6.308   5.695 -2.4835  0.6486  0.3618
  156MOL    H1040620   6.302   6.271   5.948 -1.2521  1.3338  1.9063
  156MOL    H1140621   6.355   6.443   5.985 -0.5202 -0.3849 -0.5577
  156MOL    H1240622   6.661   6.481   5.743  1.6615  0.3036 -0.1859
  156MOL    H1340623   6.763   6.338   5.767 -0.3051 -0.6916  0.2852
  156MOL    H1440624   6.671   6.345   6.015 -1.9345  0.0112  0.5967
  156MOL    C1540625   6.848   6.509   5.863  0.3003  0.0605 -0.1852
  156MOL    C1640626   6.802   6.644   5.934  0.2019 -0.1333 -0.2307
  156MOL    C1740627   6.711   6.742   5.862  0.5984  0.3942 -0.5255
  156MOL    C1840628   6.854   6.779   5.878  0.1331 -0.0557  0.2659
  156MOL    C1940629   6.940   6.427   5.961 -0.0151 -0.4353 -0.7871
  156MOL    H2040630   6.913   6.533   5.778  1.5972  1.1400  1.0989
  156MOL    H2140631   6.776   6.640   6.039  2.1243  1.3033  0.3389
  156MOL    H2240632   6.652   6.808   5.925  0.6503 -1.8686  1.9797
  156MOL    H2340633   6.671   6.721   5.763  0.9621  1.2105 -0.8514
  156MOL    H2440634   6.929   6.772   5.799  0.7274  1.6372  0.6657
  156MOL    H2540635   6.876   6.858   5.950 -0.2452 -1.3334  1.8175
  156MOL    H2640636   6.957   6.325   5.925 -0.2041 -0.5559 -0.5299
  156MOL    H2740637   6.883   6.424   6.053  1.4513 -2.8633  0.0801
  156MOL    C2840638   7.079   6.486   5.983  0.2624 -0.1354 -0.6127
  156MOL    C2940639   7.190   6.413   5.903 -0.4206 -0.2688 -0.2322
  156MOL    C3040640   7.194   6.417   5.751 -0.2008  0.0203  0.6909
  156MOL    C3140641   7.301   6.477   5.828 -0.2964  0.3985  0.2871
  156MOL    C3240642   7.114   6.522   6.126  0.6447 -0.7941 -0.8450
  156MOL    H3340643   7.065   6.585   5.940 -1.1539  0.4809  1.2174
  156MOL    H3440644   7.215   6.322   5.958  0.8699  1.0868  1.4717
  156MOL    H3540645   7.129   6.485   5.696  0.5440 -1.8642 -2.6403
  156MOL    H3640646   7.209   6.319   5.706  3.2692  1.4506 -1.5602
  156MOL    H3740647   7.309   6.586   5.837 -1.4453  0.5170 -0.1368
  156MOL    H3840648   7.395   6.422   5.826 -1.1709 -1.0862 -2.5184
  156MOL    H3940649   7.162   6.428   6.154 -0.4240 -1.5040 -1.3585
  156MOL    H4040650   7.020   6.526   6.181  0.3329 -0.6446 -1.3886
  156MOL    C4140651   7.205   6.634   6.153  0.1934 -0.2090  0.4087
  156MOL    C4240652   7.254   6.616   6.299  0.5642 -0.6660  0.3653
  156MOL    C4340653   7.380   6.674   6.355  0.3080 -0.7831  0.5365
  156MOL    C4440654   7.358   6.528   6.350  0.2803 -0.0977 -0.1154
  156MOL    C4540655   7.130   6.766   6.141 -0.5138 -0.4519  0.1462
  156MOL    H4640656   7.294   6.625   6.091  0.3027 -1.2693  0.7096
  156MOL    H4740657   7.170   6.621   6.368 -0.8939 -2.2669 -1.2481
  156MOL    H4840658   7.455   6.708   6.283 -0.5032  1.5729  0.7673
  156MOL    H4940659   7.385   6.724   6.451 -1.5830  0.2928  0.0983
  156MOL    H5040660   7.328   6.476   6.440  2.2965 -1.5145 -0.2183
  156MOL    H5140661   7.421   6.470   6.282 -0.4111  0.1340 -0.9666
  156MOL    H5240662   7.061   6.789   6.222 -1.4799  0.4624 -0.9158
  156MOL    H5340663   7.056   6.764   6.061 -0.6741  4.4042  0.0107
  156MOL    C5440664   7.216   6.883   6.105 -0.8697 -0.0251 -0.4832
  156MOL    C5540665   7.182   6.952   5.970  0.2375  0.2748 -0.4930
  156MOL    C5640666   7.224   6.891   5.838 -0.3167  0.7192  0.4197
  156MOL    C5740667   7.289   7.013   5.893  0.1741  0.3387  0.1771
  156MOL    C5840668   7.210   6.991   6.221  0.0178 -1.2582 -0.5946
  156MOL    H5940669   7.323   6.859   6.100 -1.0764 -1.4603  1.7421
  156MOL    H6040670   7.087   7.004   5.957  0.5707  1.2344  0.7569
  156MOL    H6140671   7.291   6.806   5.830 -0.6107  0.5088  0.2042
  156MOL    H6240672   7.154   6.908   5.756  0.6447  0.1244 -0.5352
  156MOL    H6340673   7.262   7.107   5.844  0.1841  0.6097  0.6968
  156MOL    H6440674   7.394   7.002   5.918 -0.3096 -0.8143  1.7209
  156MOL    H6540675   7.110   7.033   6.232  1.6674  2.5035  1.0897
  156MOL    H6640676   7.225   6.941   6.317  0.0567 -1.5268 -0.7402
  156MOL    C6740677   7.300   7.114   6.214 -0.5210  0.5430  0.2551
  156MOL    C6840678   7.257   7.222   6.322 -0.2148  0.7044 -0.3109
  156MOL    C6940679   7.250   7.370   6.304  0.1768  0.2788 -0.0818
  156MOL    C7040680   7.125   7.293   6.330 -0.8007 -0.9585  0.3051
  156MOL    C7140681   7.454   7.074   6.214  0.5879  0.4814  0.0632
  156MOL    H7240682   7.283   7.166   6.120  0.4989 -0.3610 -0.4339
  156MOL    H7340683   7.296   7.205   6.423 -2.4993 -1.1289  0.3334
  156MOL    H7440684   7.261   7.443   6.384  0.3776  0.1650 -0.0051
  156MOL    H7540685   7.251   7.418   6.206 -1.2390  0.9718  0.2219
  156MOL    H7640686   7.058   7.289   6.244  0.5949  3.6640 -1.1691
  156MOL    H7740687   7.082   7.295   6.429  1.5099  0.6037  1.3195
  156MOL    H7840688   7.468   7.021   6.120 -2.5783  0.2683 -0.3577
  156MOL    H7940689   7.449   7.007   6.299 -2.3254 -2.3012 -2.1575
  156MOL    C8040690   7.553   7.195   6.223 -0.4006  0.1262 -0.3427
  156MOL    C8140691   7.549   7.288   6.101 -0.3770  0.7569  0.0736
  156MOL    C8240692   7.568   7.221   5.965 -0.3817  0.2479 -0.4295
  156MOL    C8340693   7.675   7.320   6.014 -0.0006 -0.2054 -0.1527
  156MOL    C8440694   7.700   7.147   6.264 -0.3318 -0.1051  0.3593
  156MOL    H8540695   7.510   7.250   6.306 -0.5652 -1.1762  0.4569
  156MOL    H8640696   7.474   7.367   6.100  2.0361  3.2268  3.0680
  156MOL    H8740697   7.486   7.255   5.901 -1.2819  1.2558  1.2275
  156MOL    H8840698   7.596   7.116   5.959 -0.4591  0.1552  0.7511
  156MOL    H8940699   7.767   7.266   6.034 -1.8194 -3.4153 -0.0712
  156MOL    H9040700   7.690   7.406   5.949 -0.8704 -0.2753 -0.4525
  156MOL    H9140701   7.729   7.074   6.189 -1.7072 -0.9919  0.6812
  156MOL    H9240702   7.773   7.227   6.247  0.7059 -1.4039 -1.4268
  156MOL    C9340703   7.722   7.106   6.410 -0.0703 -0.1537 -0.2384
  156MOL    C9440704   7.794   6.976   6.422 -0.7426 -0.5074  0.4234
  156MOL    C9540705   7.770   6.879   6.536 -0.0402  0.3782  0.1835
  156MOL    C9640706   7.723   6.850   6.395  0.0733  0.0920 -0.4958
  156MOL    C9740707   7.800   7.220   6.488 -0.6497  0.0957  0.2106
  156MOL    H9840708   7.627   7.084   6.460  0.7658 -2.9979  0.2011
  156MOL    H9940709   0.062   6.980   6.401 -0.9239 -0.2643 -0.4911
  156MOL   H10040710   0.019   6.833   6.578 -0.2870  0.7433  1.1090
  156MOL   H10140711   7.688   6.901   6.604  0.1929  0.7486  0.3455
  156MOL   H10240712   7.778   6.774   6.339 -0.9098 -1.3666  0.4876
  156MOL   H10340713   7.619   6.864   6.366  0.4217  1.6951 -1.0076
  156MOL   H10440714   0.055   7.228   6.433 -0.4188  1.2549  0.7695
  156MOL   H10540715   7.831   7.176   6.583  0.9803 -0.9762 -0.7905
  156MOL   C10640716   7.737   7.360   6.516  0.1613 -0.2466 -0.0137
  156MOL   C10740717   7.715   7.453   6.395  0.0343 -0.3453  0.0620
  156MOL   C10840718   7.736   7.606   6.412  0.0919 -0.1131 -0.8836
  156MOL   C10940719   7.827   7.528   6.326  0.0107 -0.6967 -0.1850
  156MOL   C11040720   7.604   7.350   6.603 -0.3566 -0.2225 -0.3174
  156MOL   H11140721   7.809   7.413   6.579  0.0104 -0.7321  0.5666
  156MOL   H11240722   7.632   7.427   6.329 -1.0773 -0.8748  1.6647
  156MOL   H11340723   7.646   7.649   6.368 -2.4124 -2.7683  1.4170
  156MOL   H11440724   7.766   7.628   6.514  0.6676 -0.2933 -1.0154
  156MOL   H11540725   0.090   7.511   6.361  0.3513  0.0170 -0.8103
  156MOL   H11640726   7.818   7.539   6.219  3.4240  0.2993 -0.4291
  156MOL   H11740727   7.562   7.448   6.628 -0.0127 -0.0280 -0.4917
  156MOL   H11840728   7.523   7.296   6.553  0.2097 -2.3381  0.9977
  156MOL   C11940729   7.619   7.286   6.738  0.1842 -0.1058 -0.2645
  156MOL   C12040730   7.588   7.133   6.738  0.0951  0.1245 -1.0432
  156MOL   C12140731   7.467   7.077   6.677  0.2071 -0.1263 -0.5637
  156MOL   C12240732   7.478   7.082   6.823 -0.2155 -0.9902  0.5594
  156MOL   C12340733   7.750   7.333   6.819 -0.0888 -0.2967 -0.1072
  156MOL   H12440734   7.536   7.326   6.796 -0.0249 -0.3816 -0.3729
  156MOL   H12540735   7.682   7.079   6.726  1.4336  2.4668 -1.5408
  156MOL   H12640736   7.486   6.982   6.627 -1.7633 -0.8385  0.0333
  156MOL   H12740737   7.389   7.137   6.632 -0.2702  0.4305  1.0018
  156MOL   H12840738   7.401   7.155   6.847  0.6424  0.8211 -1.9245
  156MOL   H12940739   7.480   6.999   6.894  1.1412 -1.2593  0.2064
  156MOL   H13040740   0.005   7.320   6.767 -0.8289 -0.5939 -1.4001
  156MOL   H13140741   7.731   7.441   6.825  1.6009  0.1192 -1.8024
  156MOL   C13240742   7.773   7.299   6.970  0.0479  0.6868 -0.2608
  156MOL   C13340743   7.663   7.348   7.061 -0.5407  0.6115 -0.2835
  156MOL   C13440744   7.643   7.306   7.203  0.0224 -0.2563  0.0188
  156MOL   C13540745   7.554   7.251   7.097  0.2017 -0.0741  0.5159
  156MOL   C13640746   0.060   7.367   7.010 -0.0196  0.1645  0.2343
  156MOL   H13740747   7.787   7.191   6.976 -2.9016  0.2946  0.2056
  156MOL   H13840748   7.637   7.452   7.039  0.7681  0.8632 -0.7123
  156MOL   H13940749   7.714   7.234   7.244 -0.4621  0.0041  1.3506
  156MOL   H14040750   7.610   7.382   7.273  2.1629  1.1310 -0.4706
  156MOL   H14140751   7.566   7.145   7.074  1.9526  1.0829 -4.5458
  156MOL   H14240752   7.452   7.288   7.100  0.2841  0.0189  3.0396
  156MOL   H14340753   0.121   7.375   6.919  0.2836 -1.0795  0.3226
  156MOL   H14440754   0.040   7.470   7.039 -0.1556 -0.1594  1.3134
  156MOL   C14540755   0.149   7.293   7.108  0.4846  0.1884 -0.3470
  156MOL   C14640756   0.192   7.147   7.069 -0.1665  0.6017 -0.1988
  156MOL   C14740757   0.244   7.049   7.176  0.2615  0.4708  0.0026
  156MOL   C14840758   0.117   7.015   7.098 -0.5729 -0.2010  0.3353
  156MOL   C14940759   0.271   7.380   7.151 -0.2235 -0.2938 -0.2937
  156MOL   H15040760   0.088   7.270   7.195  0.3085  0.5379 -0.3755
  156MOL   H15140761   0.254   7.150   6.980 -0.6143  0.4859 -0.5115
  156MOL   H15240762   0.331   6.985   7.162 -1.2483 -1.3602 -1.5050
  156MOL   H15340763   0.215   7.067   7.279  1.2254  2.3557 -0.0495
  156MOL   H15440764   0.032   6.995   7.162 -1.2618  1.8777  0.1110
  156MOL   H15540765   0.130   6.929   7.032 -0.7724 -1.4417  1.8856
  156MOL   H15640766   0.345   7.327   7.211  1.6467  2.8227  0.2452
  156MOL   H15740767   0.327   7.396   7.059 -0.5092 -1.2012 -0.6355
  156MOL   C15840768   0.245   7.514   7.218  0.9808  0.4319  0.7074
  156MOL   C15940769   0.385   7.565   7.245  0.0739 -0.4561 -0.3124
  156MOL   C16040770   0.474   7.624   7.141  0.1639  0.2602  0.2747
  156MOL   C16140771   0.400   7.719   7.235  0.2391 -0.1049  0.0430
  156MOL   C16240772   0.169   7.490   7.350  0.2157  0.2805 -0.5293
  156MOL   H16340773   0.193   7.585   7.154 -0.2590 -0.9550  0.1512
  156MOL   H16440774   0.446   7.504   7.312  2.4825  1.2041 -0.8905
  156MOL   H16540775   0.444   7.599   7.040  3.2863 -2.1381 -0.1357
  156MOL   H16640776   0.580   7.613   7.159  0.2934  1.6265  0.4023
  156MOL   H16740777   0.459   7.768   7.313  0.5950  0.5759 -0.6518
  156MOL   H16840778   0.317   7.775   7.194  0.1052 -0.4961 -0.2230
  156MOL   H16940779   0.241   7.446   7.419  1.2204  0.6255 -1.3487
  156MOL   H17040780   0.087   7.418   7.345 -0.6428  1.2716 -0.9702
  156MOL   C17140781   0.103   7.622   7.411  0.9793 -0.2069 -0.5190
  156MOL   C17240782   7.820   7.659   7.335 -0.2104 -0.4690 -0.3438
  156MOL   C17340783   7.741   7.786   7.339  0.2672 -0.1409  0.1006
  156MOL   C17440784   7.832   7.762   7.225 -0.3043 -0.7412 -0.1603
  156MOL   C17540785   0.065   7.610   7.562 -0.5286  0.3973 -0.3560
  156MOL   H17640786   0.173   7.705   7.411 -1.1692  1.6412  1.5712
  156MOL   H17740787   7.755   7.574   7.318  0.5685 -0.7887 -1.7896
  156MOL   H17840788   7.632   7.779   7.336  0.1888  0.5136  1.0733
  156MOL   H17940789   7.779   0.015   7.415  2.4848  0.4839 -1.5099
  156MOL   H18040790   0.087   7.817   7.227  1.0155 -2.7215 -3.8623
  156MOL   H18140791   7.796   7.731   7.128  0.0526 -1.5679 -0.0293
  156MOL   H18240792   0.015   7.513   7.569  0.5248 -0.4083 -3.1974
  156MOL   H18340793   7.836   7.693   7.579  0.6211  1.3541 -0.3459
  156MOL   C18440794   0.179   7.617   7.661 -0.6337 -0.1919  1.1893
  156MOL   C18540795   0.154   7.520   7.779 -0.1290 -0.1482 -0.0178
  156MOL   C18640796   0.033   7.535   0.018  0.7615 -0.2375 -0.3487
  156MOL   C18740797   0.164   7.555   0.090  0.4340 -0.0185  0.4250
  156MOL   C18840798   0.230   7.757   7.705  0.3263  0.0340 -0.5708
  156MOL   H18940799   0.255   7.557   7.609 -0.5758  1.2275 -0.4043
  156MOL   H19040800   0.179   7.419   7.746  0.1059 -0.3224  0.6890
  156MOL   H19140801   7.819   7.445   0.046 -0.7768  0.1299 -1.9897
  156MOL   H19240802   7.820   7.623   7.822 -2.9850 -1.4972  1.7870
  156MOL   H19340803   0.210   7.476   0.149  1.7609 -0.2074 -0.8389
  156MOL   H19440804   0.179   7.660   0.114 -0.6808  0.5207 -1.1721
  156MOL   H19540805   0.150   7.804   7.761 -0.3574 -1.8308  0.0663
  156MOL   H19640806   0.238   7.819   7.616  1.4211  0.9716  0.1667
  156MOL   C19740807   0.374   7.773   7.758  0.5081 -0.3870 -0.0440
  156MOL   C19840808   0.388   0.064   7.837  0.2063  0.4193 -0.3869
  156MOL   C19940809   0.485   0.070   0.109 -0.0510 -0.1006  0.0866
  156MOL   C20040810   0.336   0.090   0.144 -0.0280  0.5313  0.3035
  156MOL   C20140811   0.479   7.766   7.637 -0.1450 -0.0082  0.2683
  156MOL   H20240812   0.374   7.690   7.828 -2.7019  1.3474  2.1396
  156MOL   H20340813   0.383   0.155   7.778  0.5225  0.6232 -0.0993
  156MOL   H20440814   0.530   7.815   0.138 -1.0053 -0.3763  0.7220
  156MOL   H20540815   0.545   0.159   0.125  0.7245 -0.4083 -1.1284
  156MOL   H20640816   0.289   0.007   0.196  1.4537  0.2664  1.2327
  156MOL   H20740817   0.299   0.190   0.161 -0.1136  0.3231  1.3417
  156MOL   H20840818   0.434   7.733   7.544 -0.1608  2.0424 -0.4822
  156MOL   H20940819   0.507   0.028   7.609 -0.6169 -0.0383 -0.3175
  156MOL   C21040820   0.608   7.694   7.665  0.1914 -0.0998 -0.4067
  156MOL   C21140821   0.597   7.548   7.614  0.0951  0.3183  0.4265
  156MOL   C21240822   0.662   7.422   7.671 -0.3712  0.1366  0.0373
  156MOL   C21340823   0.519   7.446   7.706  0.5945 -0.1336  0.9683
  156MOL   C21440824   0.730   7.772   7.614 -0.6097 -0.0942  0.3917
  156MOL   H21540825   0.627   7.683   7.772 -4.0047 -0.2450  0.4147
  156MOL   H21640826   0.587   7.548   7.506  0.6212  2.6070  0.3526
  156MOL   H21740827   0.686   7.339   7.604 -0.5187 -0.3928  0.6322
  156MOL   H21840828   0.725   7.452   7.754 -0.9344  1.0377  0.1441
  156MOL   H21940829   0.447   7.374   7.667 -0.2082 -0.8382  3.6777
  156MOL   H22040830   0.501   7.461   7.812 -2.6632 -0.7227  0.5559
  156MOL   H22140831   0.722   7.772   7.505 -1.4141  0.4659  0.4522
  156MOL   H22240832   0.728   0.040   7.634 -0.4852  0.2038 -1.1483
  156MOL   C22340833   0.865   7.721   7.671 -1.1698 -0.6958 -0.7938
  156MOL   C22440834   0.885   7.764   7.822 -0.3072  0.5812 -1.0685
  156MOL   C22540835   0.836   7.676   0.100  0.1463  0.1767 -0.7590
  156MOL   C22640836   0.984   7.679   0.065 -0.0551 -0.0759  0.4385
  156MOL   C22740837   0.996   7.767   7.600 -0.3695  0.3719 -0.1700
  156MOL   H22840838   0.855   7.612   7.673 -0.7312 -0.7958 -2.6948
  156MOL   H22940839   0.887   0.032   0.000  1.7243  0.5816 -1.2354
  156MOL   H23040840   0.785   7.585   0.070 -0.0146 -0.9120  2.5388
  156MOL   H23140841   0.808   7.726   0.193  3.1691  0.9359 -0.1900
  156MOL   H23240842   1.051   7.732   0.133 -0.1148  0.6887 -0.0854
  156MOL   H23340843   1.019   7.589   0.016  1.5406  0.8098 -0.1053
  156MOL   H23440844   0.990   0.037   7.598 -2.1769  0.2893  0.7465
  156MOL   H23540845   1.085   7.731   7.651 -0.2546 -1.4431 -1.6053
  156MOL   C23640846   1.006   7.707   7.451  0.1684  0.8197  0.1301
  156MOL   C23740847   1.034   7.566   7.473 -0.0210  1.0117  0.0938
  156MOL   C23840848   0.935   7.455   7.467  0.7155 -0.0332  0.5354
  156MOL   C23940849   1.035   7.474   7.362 -0.6894 -0.5151  0.1385
  156MOL   C24040850   1.117   7.784   7.370 -0.2691  1.0270 -0.4953
  156MOL   H24140851   0.909   7.711   7.401 -1.0329 -3.1080  1.9517
  156MOL   H24240852   1.094   7.543   7.561 -3.2991  2.0896  2.7063
  156MOL   H24340853   0.940   7.375   7.542  0.6491  1.3972  2.1033
  156MOL   H24440854   0.837   7.456   7.420  0.7300 -2.2587  0.4044
  156MOL   H24540855   1.018   7.517   7.263  0.9303 -1.8825 -0.7545
  156MOL   H24640856   1.123   7.410   7.357  1.5308  2.2505  1.7660
  156MOL   H24740857   1.212   7.783   7.423 -0.9769 -2.1020  0.8596
  156MOL   H24840858   1.138   7.738   7.274  2.5903 -0.1279  0.6448
  156MOL   C24940859   1.078   0.094   7.340 -0.2284 -0.4603 -0.3015
  156MOL   C25040860   0.952   0.110   7.260  0.6449 -0.6036 -0.5285
  156MOL   C25140861   0.814   0.134   7.325  0.5889  0.1739 -0.2314
  156MOL   C25240862   0.885   0.249   7.248  0.8753  0.3563  0.0878
  156MOL   C25340863   1.199   0.168   7.281  0.0516 -0.1709 -0.4150
  156MOL   H25440864   1.071   0.154   7.431  1.1551  0.8120 -0.9947
  156MOL   H25540865   0.958   0.054   7.167  0.3045 -1.2438 -0.1688
  156MOL   H25640866   0.728   0.093   7.272  1.2923  1.0249 -2.0691
  156MOL   H25740867   0.806   0.144   7.433  2.0360  0.0445 -0.0966
  156MOL   H25840868   0.855   0.269   7.145 -0.2614 -2.7170 -0.2454
  156MOL   H25940869   0.911   0.338   7.304  2.1321 -1.5680  2.6494
  156MOL   H26040870   1.281   0.160   7.353 -2.0520  0.6214  2.1220
  156MOL   H26140871   1.187   0.275   7.261 -2.2087 -0.4467 -0.6474
  156MOL   H26240872   1.243   0.122   7.192 -0.3645  0.2824 -0.8542
  157MOL     C140873   2.371   5.767   2.313  0.3243  0.1476  0.3050
  157MOL     C240874   2.409   5.776   2.166  0.3267 -1.0187  1.4280
  157MOL     C340875   2.529   5.854   2.116 -0.1994 -0.3124 -0.3094
  157MOL     C440876   2.385   5.901   2.087 -0.5109 -0.5225  0.3758
  157MOL     C540877   2.450   5.649   2.383 -0.6807  0.6919 -0.1032
  157MOL     H640878   2.403   5.857   2.366  0.5904 -1.0875  2.2816
  157MOL     H740879   2.398   5.683   2.111 -3.0577 -0.2118  0.6611
  157MOL     H840880   2.579   5.917   2.190 -1.6041 -0.4410  0.7461
  157MOL     H940881   2.586   5.811   2.034 -0.2424  0.8901 -0.9884
  157MOL    H1040882   2.368   5.900   1.980  0.3423 -2.5130  0.2428
  157MOL    H1140883   2.344   5.983   2.145 -0.6358 -0.4428  0.1741
  157MOL    H1240884   2.546   5.632   2.333 -0.2418 -2.4455  1.6957
  157MOL    H1340885   2.400   5.559   2.347 -0.1556 -0.7226  2.6172
  157MOL    H1440886   2.263   5.747   2.316  0.2305  0.7157  0.8889
  157MOL    C1540887   2.443   5.665   2.544  0.7547 -0.1833  0.2584
  157MOL    C1640888   2.420   5.536   2.613  0.0371 -0.0750 -1.0867
  157MOL    C1740889   2.311   5.442   2.587  0.2053  0.2906 -0.2992
  157MOL    C1840890   2.307   5.521   2.717  0.1423  0.4375 -0.9187
  157MOL    C1940891   2.543   5.764   2.606  0.2646  0.4462  0.1759
  157MOL    H2040892   2.349   5.717   2.560  0.3756 -0.4489 -1.0472
  157MOL    H2140893   2.516   5.490   2.633 -0.2617 -0.2780 -0.0938
  157MOL    H2240894   2.316   5.335   2.602 -0.8926  0.5866  2.3590
  157MOL    H2340895   2.236   5.483   2.519  0.8695  1.9479 -0.0722
  157MOL    H2440896   2.236   5.604   2.721  0.7964  0.8990  2.9393
  157MOL    H2540897   2.333   5.468   2.808  1.4306  0.6129 -1.1726
  157MOL    H2640898   2.586   5.834   2.534 -0.0884  2.4641  1.8906
  157MOL    H2740899   2.628   5.706   2.642  1.5798  1.2726 -1.5307
  157MOL    C2840900   2.506   5.844   2.736  0.7667 -0.8396 -0.4413
  157MOL    C2940901   2.402   5.954   2.700 -0.6769 -0.7459  0.2488
  157MOL    C3040902   2.249   5.925   2.699 -1.2141  0.0112 -0.4839
  157MOL    C3140903   2.311   6.025   2.798 -0.1809 -0.3477 -0.0277
  157MOL    C3240904   2.622   5.903   2.808 -0.3965  0.6122 -0.1749
  157MOL    H3340905   2.461   5.774   2.807 -1.9074  2.5177  1.3551
  157MOL    H3440906   2.436   6.025   2.624 -4.6413  2.4837  1.2557
  157MOL    H3540907   2.221   5.831   2.744 -0.4803  1.0892  2.3955
  157MOL    H3640908   2.187   5.963   2.618 -2.3446  1.6033  1.0863
  157MOL    H3740909   2.300   5.991   2.901  2.1054  0.0342  0.3782
  157MOL    H3840910   2.300   6.131   2.779  2.2400 -0.2796 -1.3116
  157MOL    H3940911   2.577   5.974   2.878 -0.0851  0.8096 -0.1708
  157MOL    H4040912   2.680   5.962   2.737  0.0004 -1.8935 -1.9959
  157MOL    C4140913   2.718   5.808   2.880 -0.1723  0.2520 -0.6771
  157MOL    C4240914   2.645   5.753   3.001  0.1178  0.0981  0.0182
  157MOL    C4340915   2.709   5.638   3.087  0.0047 -0.9272 -0.2873
  157MOL    C4440916   2.582   5.615   3.002 -0.2136 -0.1904  0.7210
  157MOL    C4540917   2.844   5.889   2.929  1.0128  0.2867  0.1678
  157MOL    H4640918   2.751   5.727   2.816 -1.4720 -1.3115  0.5850
  157MOL    H4740919   2.590   5.833   3.050  1.3886  1.1938 -0.3289
  157MOL    H4840920   2.806   5.602   3.055  0.7500  0.4416  0.4105
  157MOL    H4940921   2.702   5.647   3.195  1.3352 -1.3068 -0.1611
  157MOL    H5040922   2.489   5.604   3.057 -1.9008  1.2276 -1.7382
  157MOL    H5140923   2.586   5.551   2.914  4.0592 -0.6955  1.1560
  157MOL    H5240924   2.896   5.836   3.008  0.8234 -0.6165 -0.3048
  157MOL    H5340925   2.808   5.983   2.969 -0.5021  0.2875 -1.1384
  157MOL    C5440926   2.953   5.924   2.826  0.0699  1.0835  0.8586
  157MOL    C5540927   3.059   6.007   2.901  0.0532 -0.0091 -0.0695
  157MOL    C5640928   3.053   6.159   2.906  0.8295  0.3205  0.1918
  157MOL    C5740929   3.163   6.084   2.830 -0.4612  0.8797  0.8266
  157MOL    C5840930   3.020   5.804   2.759 -0.8236 -0.1624  0.0755
  157MOL    H5940931   2.898   5.994   2.763 -3.7940 -0.4809  2.3506
  157MOL    H6040932   3.092   5.952   2.989  0.6873 -1.3809 -1.1435
  157MOL    H6140933   2.970   6.196   2.846  0.8640  1.4339  0.8244
  157MOL    H6240934   3.063   6.192   3.009 -0.6303  0.6656  0.2415
  157MOL    H6340935   3.262   6.098   2.875  1.3423 -1.9927 -2.0205
  157MOL    H6440936   3.153   6.083   2.722  3.0147  1.4490  0.4376
  157MOL    H6540937   3.127   5.815   2.779 -1.2795 -0.8739  3.2102
  157MOL    H6640938   2.994   5.712   2.811 -0.9932  1.0568  2.1977
  157MOL    C6740939   3.001   5.784   2.608 -0.3603 -0.5456  0.0797
  157MOL    C6840940   3.012   5.909   2.521 -0.2687 -0.7532 -0.7896
  157MOL    C6940941   2.951   5.916   2.384  0.6586 -0.9416 -0.3999
  157MOL    C7040942   2.900   6.007   2.498  0.1146  0.1755  0.5109
  157MOL    C7140943   3.107   5.676   2.559  0.4242 -0.3794 -0.8497
  157MOL    H7240944   2.896   5.755   2.600 -0.7605  0.2878  2.0334
  157MOL    H7340945   3.107   5.959   2.538 -1.7737  1.1834  2.3163
  157MOL    H7440946   3.001   5.968   2.303  0.2608  2.1284  1.2764
  157MOL    H7540947   2.888   5.833   2.352 -1.1591  0.6234 -0.9578
  157MOL    H7640948   2.797   5.993   2.530 -0.2399  2.8497  0.6921
  157MOL    H7740949   2.921   6.114   2.497 -1.3004  0.4796  1.5533
  157MOL    H7840950   3.204   5.721   2.575  0.4449 -0.7926  0.2460
  157MOL    H7940951   3.098   5.679   2.450  0.8141 -3.6292 -1.0237
  157MOL    C8040952   3.091   5.529   2.601 -0.1907  0.0107 -0.9929
  157MOL    C8140953   3.218   5.456   2.555  0.2475  0.3468 -0.3461
  157MOL    C8240954   3.288   5.355   2.637 -0.1835  0.0771 -0.1273
  157MOL    C8340955   3.349   5.486   2.609  0.5332  0.5731  0.9561
  157MOL    C8440956   2.962   5.474   2.540  0.2215 -0.5881 -0.7750
  157MOL    H8540957   3.092   5.521   2.710 -0.6943 -1.8614 -1.1245
  157MOL    H8640958   3.218   5.446   2.447  1.3761  0.9662 -0.4198
  157MOL    H8740959   3.330   5.276   2.576  0.1062  0.8417 -0.9280
  157MOL    H8840960   3.253   5.339   2.738 -2.3919  3.9200 -0.1725
  157MOL    H8940961   3.356   5.566   2.682  0.4581  0.7171  0.8047
  157MOL    H9040962   3.432   5.478   2.539 -1.5943  2.9338 -1.9515
  157MOL    H9140963   2.882   5.547   2.530  0.1788 -0.5545 -0.1787
  157MOL    H9240964   2.984   5.472   2.433 -0.7938  1.3562 -1.0407
  157MOL    C9340965   2.916   5.343   2.604 -0.0010 -0.0670  0.4657
  157MOL    C9440966   2.850   5.380   2.736  0.2999  0.3048 -0.4786
  157MOL    C9540967   2.831   5.282   2.845 -0.3464  0.4162 -0.5933
  157MOL    C9640968   2.944   5.384   2.857  0.0114 -0.4045 -0.0856
  157MOL    C9740969   2.816   5.272   2.515 -0.4701  0.3750  0.7964
  157MOL    H9840970   3.006   5.284   2.621 -0.5107 -0.6953  0.9708
  157MOL    H9940971   2.766   5.448   2.728 -1.3817 -1.7761 -0.7968
  157MOL   H10040972   2.744   5.287   2.911  0.2528  4.9200 -0.0068
  157MOL   H10140973   2.857   5.181   2.816  0.1322  0.5345 -0.5704
  157MOL   H10240974   2.935   5.444   2.948 -0.6149  1.0960 -1.1190
  157MOL   H10340975   3.045   5.344   2.849  1.2843  2.5755  0.4723
  157MOL   H10440976   2.733   5.338   2.490 -2.0033 -0.4577  3.5880
  157MOL   H10540977   2.771   5.192   2.574 -0.7512  1.1715  1.6775
  157MOL   C10640978   2.870   5.210   2.383  0.8662  1.2501 -0.1074
  157MOL   C10740979   2.970   5.090   2.418  0.2998 -0.1013  1.0472
  157MOL   C10840980   3.068   5.048   2.319  0.0649 -0.0885 -0.6337
  157MOL   C10940981   3.116   5.122   2.437  0.3175 -0.1135  0.2090
  157MOL   C11040982   2.754   5.164   2.285 -0.6959  0.4157 -0.1288
  157MOL   H11140983   2.935   5.278   2.328  1.0330  1.7210  0.6689
  157MOL   H11240984   2.925   5.005   2.469 -1.7242 -0.5686 -1.4261
  157MOL   H11340985   3.101   4.945   2.308 -2.1373 -0.6255 -2.6563
  157MOL   H11440986   3.073   5.109   2.229 -0.2760  0.5416 -0.2273
  157MOL   H11540987   3.155   5.220   2.408 -0.2841 -0.2116 -0.9726
  157MOL   H11640988   3.169   5.072   2.518  1.8988 -0.2387 -0.8773
  157MOL   H11740989   2.786   5.084   2.219 -1.7198 -0.3474  0.2837
  157MOL   H11840990   2.692   5.104   2.352  0.4999 -3.3587 -2.2692
  157MOL   C11940991   2.675   5.273   2.217  0.8027 -0.1793 -0.2379
  157MOL   C12040992   2.762   5.388   2.171 -0.5845  0.5868 -0.2362
  157MOL   C12140993   2.772   5.510   2.248  0.0195 -0.3243  0.2439
  157MOL   C12240994   2.689   5.512   2.118  0.0423  0.3662  0.3388
  157MOL   C12340995   2.597   5.225   2.094 -0.0756  0.5103  0.1691
  157MOL   H12440996   2.598   5.319   2.280 -1.0510 -1.2979 -1.6505
  157MOL   H12540997   2.842   5.349   2.108 -2.3404 -1.3343 -1.3514
  157MOL   H12640998   2.870   5.556   2.238  1.3868 -3.2906 -0.6578
  157MOL   H12740999   2.722   5.507   2.345  1.0486  0.0131  0.7934
  157MOL   H12841000   2.581   5.524   2.125  0.0342 -0.1220  1.1806
  157MOL   H12941001   2.735   5.558   2.031  0.6052  0.5562  0.7330
  157MOL   H13041002   2.557   5.312   2.041 -0.4563 -0.1537 -0.6344
  157MOL   H13141003   2.667   5.163   2.039 -0.3118 -1.1248  1.6990
  157MOL   C13241004   2.469   5.144   2.123 -0.3235 -0.4717  0.1195
  157MOL   C13341005   2.448   5.037   2.014  0.0314 -0.0915 -0.5402
  157MOL   C13441006   2.407   4.896   2.054  0.2934 -0.0149  1.0889
  157MOL   C13541007   2.542   4.924   1.995  0.1665  0.4328 -0.4304
  157MOL   C13641008   2.347   5.243   2.146 -0.3710 -0.6493 -0.3106
  157MOL   H13741009   2.484   5.089   2.216  0.4132  0.3214  0.4891
  157MOL   H13841010   2.406   5.086   1.927  0.2867  0.8034 -0.1759
  157MOL   H13941011   2.409   4.869   2.159 -0.4031 -0.5496  0.9740
  157MOL   H14041012   2.343   4.842   1.984  0.6364  1.0508 -0.0756
  157MOL   H14141013   2.627   4.900   2.058 -1.9063  0.4723  2.4638
  157MOL   H14241014   2.554   4.916   1.887 -0.9211 -0.3641 -0.4993
  157MOL   H14341015   2.373   5.312   2.226  0.3154 -0.6550 -0.5299
  157MOL   H14441016   2.339   5.299   2.053 -2.9366  0.6426  0.6481
  157MOL   C14541017   2.214   5.182   2.194  0.1152  0.1899 -0.2078
  157MOL   C14641018   2.237   5.133   2.335 -1.0302  0.7494 -1.0194
  157MOL   C14741019   2.133   5.067   2.421  0.2658  0.3115  0.6824
  157MOL   C14841020   2.230   4.979   2.353  0.8730 -0.7871  0.4097
  157MOL   C14941021   2.095   5.283   2.184 -0.6819 -0.9419 -0.2443
  157MOL   H15041022   2.181   5.093   2.139 -0.1828  0.7239 -0.9005
  157MOL   H15141023   2.326   5.169   2.386 -0.9051 -0.4793 -0.3345
  157MOL   H15241024   2.135   5.074   2.530 -1.5864  0.7857  0.7145
  157MOL   H15341025   2.034   5.071   2.377  0.9372 -0.1955 -0.8718
  157MOL   H15441026   2.209   4.922   2.262  1.0937 -0.0685 -0.0947
  157MOL   H15541027   2.308   4.923   2.405  2.1045  0.0459 -0.4996
  157MOL   H15641028   2.038   5.281   2.277 -2.8107  0.9049 -1.4528
  157MOL   H15741029   2.126   5.387   2.185 -1.7110 -0.6090 -1.0944
  157MOL   C15841030   1.989   5.254   2.070 -0.1475  0.3756  0.0186
  157MOL   C15941031   2.046   5.261   1.932  0.0735  0.1924 -0.6126
  157MOL   C16041032   2.121   5.151   1.869  0.3224  0.3449 -0.1716
  157MOL   C16141033   1.986   5.178   1.818 -0.6761  0.2092  0.4229
  157MOL   C16241034   1.856   5.336   2.082  0.1668 -0.9734  0.2279
  157MOL   H16341035   1.956   5.151   2.079  3.8886 -1.0462 -0.2308
  157MOL   H16441036   2.086   5.359   1.908 -0.9454  1.0013  0.8794
  157MOL   H16541037   2.136   5.055   1.917 -1.7100 -1.2250 -2.5653
  157MOL   H16641038   2.200   5.164   1.795  1.9383  1.8469  1.7731
  157MOL   H16741039   1.978   5.225   1.720  1.4981 -0.4163 -0.0795
  157MOL   H16841040   1.912   5.101   1.837  0.6549 -1.1406  0.1698
  157MOL   H16941041   1.797   5.333   1.990  1.4500  0.5827 -0.6699
  157MOL   H17041042   1.897   5.436   2.098  3.0967 -2.1998  0.6832
  157MOL   C17141043   1.752   5.289   2.183  0.4932 -0.6401  0.0014
  157MOL   C17241044   1.659   5.407   2.226 -0.3763  0.0828 -0.8227
  157MOL   C17341045   1.552   5.396   2.333  0.6979  0.8441 -0.2482
  157MOL   C17441046   1.681   5.470   2.364 -0.2125 -0.6432 -0.4917
  157MOL   C17541047   1.663   5.172   2.121 -0.2979 -0.0727 -0.0169
  157MOL   H17641048   1.809   5.248   2.266 -0.0423 -0.9711  0.2015
  157MOL   H17741049   1.639   5.473   2.141  0.0490  2.9243  1.2120
  157MOL   H17841050   1.462   5.455   2.318 -0.1201 -0.2060  0.4456
  157MOL   H17941051   1.539   5.311   2.400  0.9816  0.4490 -0.6868
  157MOL   H18041052   1.743   5.422   2.439 -0.2994 -0.6002 -0.3935
  157MOL   H18141053   1.682   5.578   2.369 -0.8624 -0.6420 -0.3639
  157MOL   H18241054   1.733   5.112   2.063 -0.3780 -0.9207  0.7415
  157MOL   H18341055   1.583   5.212   2.059 -1.0598 -1.1569  0.2357
  157MOL   C18441056   1.594   5.069   2.217  0.2474 -0.2909 -0.7159
  157MOL   C18541057   1.694   5.004   2.320 -0.2621 -0.2576 -0.5321
  157MOL   C18641058   1.643   4.940   2.448  1.0706 -0.3796  0.4033
  157MOL   C18741059   1.734   5.064   2.454 -0.3886  0.3928  0.7287
  157MOL   C18841060   1.523   4.956   2.139 -0.2975  0.1652  0.7587
  157MOL   H18941061   1.519   5.123   2.275  0.5362 -1.5418  0.8803
  157MOL   H19041062   1.780   4.963   2.268  0.7137  3.1853 -1.7081
  157MOL   H19141063   1.685   4.844   2.479  0.1077 -0.2986  2.0363
  157MOL   H19241064   1.535   4.951   2.454  1.2250  1.4980  0.0543
  157MOL   H19341065   1.692   5.158   2.489 -0.4676  0.0410  1.5887
  157MOL   H19441066   1.839   5.042   2.471 -0.0230  1.5589  0.0382
  157MOL   H19541067   1.494   4.877   2.207  0.2621  0.0762  0.8929
  157MOL   H19641068   1.599   4.917   2.071  0.1654 -0.0389  1.3974
  157MOL   C19741069   1.399   4.997   2.049  0.1904  0.9772 -0.2531
  157MOL   C19841070   1.292   5.043   2.137 -0.4088 -0.3589  1.1131
  157MOL   C19941071   1.171   5.112   2.081  0.2155 -0.3615 -0.5499
  157MOL   C20041072   1.271   5.189   2.170 -0.1138 -0.0956 -0.1727
  157MOL   C20141073   1.345   4.880   1.957 -0.1473  0.3538 -0.1014
  157MOL   H20241074   1.419   5.091   1.996  0.4137  0.1815 -1.5969
  157MOL   H20341075   1.266   4.968   2.211  0.4369  0.1390  1.9181
  157MOL   H20441076   1.179   5.133   1.974 -0.9962  0.9288 -0.3937
  157MOL   H20541077   1.071   5.098   2.121 -0.2819  1.0180 -1.2913
  157MOL   H20641078   1.339   5.262   2.126 -1.4975  0.5871 -1.1903
  157MOL   H20741079   1.247   5.216   2.273  1.4493  1.5550 -0.2105
  157MOL   H20841080   1.338   4.787   2.013  0.9601 -1.2598 -2.5768
  157MOL   H20941081   1.247   4.895   1.911 -0.1522 -1.7402 -0.8231
  157MOL   C21041082   1.428   4.851   1.830  0.3281  0.3333 -0.7981
  157MOL   C21141083   1.470   4.972   1.755 -0.2939 -0.2128  0.3957
  157MOL   C21241084   1.491   4.977   1.605  0.5340 -0.6051 -0.3553
  157MOL   C21341085   1.365   5.044   1.669  0.4816 -0.0512  0.1580
  157MOL   C21441086   1.550   4.753   1.846 -0.7414 -0.1183 -0.5746
  157MOL   H21541087   1.357   4.802   1.764  0.4897  0.6074 -1.1807
  157MOL   H21641088   1.537   5.034   1.815  0.1421  1.0109 -1.3260
  157MOL   H21741089   1.579   5.032   1.572 -1.1865  1.6818 -1.2298
  157MOL   H21841090   1.473   4.882   1.555 -0.8584 -0.7096  0.3273
  157MOL   H21941091   1.363   5.152   1.679 -1.1240  0.1157 -1.5608
  157MOL   H22041092   1.269   4.995   1.652 -0.1179  0.8394  0.9404
  157MOL   H22141093   1.637   4.813   1.818 -0.1588 -0.7236 -0.1117
  157MOL   H22241094   1.565   4.730   1.952 -0.8935  1.4298 -0.2078
  157MOL   C22341095   1.557   4.628   1.758 -0.6174 -0.1459  0.0843
  157MOL   C22441096   1.453   4.526   1.807  0.9719 -0.1237 -0.2546
  157MOL   C22541097   1.325   4.498   1.736  0.0536 -0.0536 -0.0155
  157MOL   C22641098   1.428   4.388   1.750  0.1165 -0.2325  0.5992
  157MOL   C22741099   1.697   4.569   1.783 -0.2575 -0.5836  0.1015
  157MOL   H22841100   1.541   4.644   1.651  0.0201 -0.6580 -0.0870
  157MOL   H22941101   1.448   4.526   1.916 -0.4603  1.3098 -0.3020
  157MOL   H23041102   1.325   4.560   1.647  4.8872  0.4355  0.1916
  157MOL   H23141103   1.230   4.489   1.789 -1.5812 -0.2527 -2.8592
  157MOL   H23241104   1.405   4.301   1.810 -0.7796 -1.4178 -1.4182
  157MOL   H23341105   1.481   4.365   1.658  0.5575  2.7332  0.0370
  157MOL   H23441106   1.721   4.566   1.890  0.0035  0.8110  0.0939
  157MOL   H23541107   1.702   4.462   1.761  0.4053 -0.7686  1.0992
  157MOL   C23641108   1.815   4.638   1.710  0.0416  0.3104  0.4400
  157MOL   C23741109   1.815   4.588   1.565 -0.2154  0.4382  0.0997
  157MOL   C23841110   1.729   4.662   1.474  0.3289  0.1369  0.8257
  157MOL   C23941111   1.879   4.656   1.446  1.0708 -0.6373 -0.1302
  157MOL   C24041112   1.956   4.594   1.765  0.6209 -0.1594  0.1381
  157MOL   H24141113   1.808   4.746   1.716  1.4622  0.4952 -0.9553
  157MOL   H24241114   1.818   4.479   1.558 -1.9862  0.5161 -2.6211
  157MOL   H24341115   1.662   4.615   1.403 -2.1459  1.7028  2.0088
  157MOL   H24441116   1.705   4.768   1.483  0.4325  0.4557 -2.3302
  157MOL   H24541117   1.926   4.752   1.464 -2.6771  0.7429  3.2354
  157MOL   H24641118   1.920   4.594   1.366 -0.4281 -0.1395 -1.3098
  157MOL   H24741119   1.965   4.486   1.758  0.6660 -0.0430 -1.8629
  157MOL   H24841120   2.026   4.637   1.693  2.8389 -0.7954  1.8420
  157MOL   C24941121   2.004   4.632   1.909 -0.4891  0.6607  0.0865
  157MOL   C25041122   1.995   4.776   1.942  0.1205  0.8134 -0.7371
  157MOL   C25141123   1.862   4.814   1.992 -0.0774  0.3612 -0.2598
  157MOL   C25241124   1.985   4.829   2.085 -0.3326 -0.8734 -0.2522
  157MOL   C25341125   2.143   4.580   1.941 -0.2586 -0.0556  0.1000
  157MOL   H25441126   1.938   4.576   1.976  0.7995 -0.2674  0.5969
  157MOL   H25541127   2.043   4.842   1.870  0.1907 -0.1166 -1.5610
  157MOL   H25641128   1.808   4.896   1.947  0.2161 -0.0944 -1.4486
  157MOL   H25741129   1.793   4.742   2.036 -1.6194  2.8299  1.5031
  157MOL   H25841130   2.013   4.929   2.117  2.2128 -1.7860  0.4503
  157MOL   H25941131   1.989   4.758   2.167  0.4483  1.2507  1.6111
  157MOL   H26041132   2.218   4.635   1.883 -1.3371  2.5478  1.0594
  157MOL   H26141133   2.133   4.477   1.909  1.7866 -0.5557  0.9436
  157MOL   H26241134   2.169   4.585   2.047 -0.4412 -1.3737  0.2133
  158MOL     C141135   1.398   4.142   0.338 -0.8387  0.1441  0.4388
  158MOL     C241136   1.397   4.027   0.449  0.2794  0.3284 -0.3200
  158MOL     C341137   1.525   3.962   0.489 -0.0543  0.6019  0.3508
  158MOL     C441138   1.418   3.888   0.414  0.4841 -0.5327 -0.1864
  158MOL     C541139   1.379   4.280   0.413  0.5558 -0.1754 -0.4078
  158MOL     H641140   1.485   4.139   0.272 -0.8945 -3.3622  0.4637
  158MOL     H741141   1.306   4.038   0.508 -0.2567  1.9492 -1.3964
  158MOL     H841142   1.614   3.985   0.430 -0.3818  3.5155  0.9405
  158MOL     H941143   1.561   3.923   0.584  2.4209 -0.6393 -1.0416
  158MOL    H1041144   1.349   3.821   0.465 -1.6628  0.4877 -1.6549
  158MOL    H1141145   1.433   3.866   0.308 -1.2260 -1.1432 -0.3231
  158MOL    H1241146   1.471   4.291   0.471 -1.2769 -1.1451  2.8339
  158MOL    H1341147   1.288   4.274   0.473  0.9662 -0.9601  0.1421
  158MOL    H1441148   1.307   4.134   0.279 -2.0597  1.8621  2.0355
  158MOL    C1541149   1.375   4.399   0.312 -0.7601 -0.7803 -0.8961
  158MOL    C1641150   1.252   4.392   0.231  0.3068 -0.1456  0.6875
  158MOL    C1741151   1.238   4.315   0.102  0.4326 -0.3748  0.3124
  158MOL    C1841152   1.253   4.463   0.100 -0.2312 -0.2753 -0.3692
  158MOL    C1941153   1.382   4.535   0.390 -0.7237  0.0970 -0.0117
  158MOL    H2041154   1.468   4.402   0.254 -0.0469  1.3846  0.2958
  158MOL    H2141155   1.157   4.386   0.283  0.2423 -2.3223  0.3733
  158MOL    H2241156   1.145   4.266   0.075 -0.0029 -0.0478  1.2098
  158MOL    H2341157   1.319   4.259   0.056 -0.3231 -0.2054 -1.2358
  158MOL    H2441158   1.347   4.515   0.082  0.8994 -1.5285  1.7824
  158MOL    H2541159   1.168   4.526   0.075  0.9717  1.3101 -0.5812
  158MOL    H2641160   1.312   4.523   0.472 -1.1981  1.4420 -0.1995
  158MOL    H2741161   1.351   4.620   0.329 -0.7864  0.2552  0.2402
  158MOL    C2841162   1.512   4.572   0.470 -0.0327  0.3753 -0.5695
  158MOL    C2941163   1.479   4.677   0.585  0.3567  0.0953  0.7342
  158MOL    C3041164   1.466   4.622   0.731  0.3989 -0.4790  0.0666
  158MOL    C3141165   1.584   4.706   0.686  1.4154 -0.0541 -0.5540
  158MOL    C3241166   1.600   4.631   0.362  0.4408 -0.5871  0.2446
  158MOL    H3341167   1.558   4.481   0.507 -0.0382  0.6374  0.0922
  158MOL    H3441168   1.430   4.768   0.550 -1.0513 -1.0952 -0.4337
  158MOL    H3541169   1.491   4.517   0.742  4.0122  0.1016 -1.9789
  158MOL    H3641170   1.388   4.658   0.798 -0.2388 -0.7302 -0.5248
  158MOL    H3741171   1.673   4.645   0.683  1.8864  0.6374 -0.6468
  158MOL    H3841172   1.592   4.807   0.724  1.7903  1.2378 -3.9023
  158MOL    H3941173   1.581   4.738   0.361 -0.5746 -0.7628 -0.9683
  158MOL    H4041174   1.590   4.604   0.257  2.1134  0.4948 -0.2033
  158MOL    C4141175   1.748   4.620   0.399 -0.1885  0.2469  0.5635
  158MOL    C4241176   1.827   4.745   0.372  0.3745 -0.4317 -0.5583
  158MOL    C4341177   1.938   4.795   0.464  0.1508 -0.4118  0.6972
  158MOL    C4441178   1.811   4.868   0.459 -0.1980 -0.0929  0.1894
  158MOL    C4541179   1.817   4.492   0.339 -0.1043 -0.1952 -0.2767
  158MOL    H4641180   1.754   4.609   0.507  0.9783 -0.1236  0.4694
  158MOL    H4741181   1.844   4.770   0.267 -0.8195  2.9983 -0.0098
  158MOL    H4841182   1.950   4.761   0.566  0.5588  0.9195  1.1039
  158MOL    H4941183   2.017   4.859   0.425 -0.6073  1.4291  2.1084
  158MOL    H5041184   1.805   4.955   0.394  1.9384 -0.9456 -1.1962
  158MOL    H5141185   1.721   4.857   0.520 -0.9057 -1.3089 -1.0466
  158MOL    H5241186   1.865   4.526   0.247  4.3140 -0.5466  1.7708
  158MOL    H5341187   1.740   4.425   0.301  1.4685 -2.3052  0.1709
  158MOL    C5441188   1.919   4.416   0.424  0.6723  0.2722  0.2904
  158MOL    C5541189   1.855   4.341   0.540  0.9342 -0.4441  0.1365
  158MOL    C5641190   1.823   4.401   0.676 -0.5038  0.5386  0.4465
  158MOL    C5741191   1.941   4.312   0.662 -0.0529  0.0118 -0.0579
  158MOL    C5841192   1.982   4.316   0.333 -0.6533 -0.0609  0.4292
  158MOL    H5941193   1.997   4.482   0.460  1.3843 -0.8038  0.7696
  158MOL    H6041194   1.776   4.274   0.509 -0.0581 -0.2014  2.0544
  158MOL    H6141195   1.847   4.507   0.676  0.3896  0.3379  1.3103
  158MOL    H6241196   1.727   4.369   0.717 -0.4685  1.0304  0.9116
  158MOL    H6341197   1.938   4.207   0.691  1.0113  0.1906  0.7374
  158MOL    H6441198   2.036   4.362   0.643 -0.1677  1.4800  2.9083
  158MOL    H6541199   1.910   4.236   0.321 -1.3196  0.3190  1.7419
  158MOL    H6641200   2.000   4.349   0.231 -0.5089 -0.4607  0.3248
  158MOL    C6741201   2.113   4.231   0.371  0.8567  0.2168  0.3634
  158MOL    C6841202   2.109   4.086   0.306 -0.0175 -0.1745  0.0129
  158MOL    C6941203   2.162   3.968   0.384 -0.3925 -0.8724  0.1569
  158MOL    C7041204   2.018   3.979   0.357  0.8099  0.0728 -0.8127
  158MOL    C7141205   2.247   4.312   0.351  0.1392 -0.0919 -0.1042
  158MOL    H7241206   2.104   4.207   0.476  1.5552 -1.0599  0.1412
  158MOL    H7341207   2.112   4.074   0.198  0.5746 -0.9249  0.1059
  158MOL    H7441208   2.207   3.882   0.337  0.6425 -1.3054  1.9002
  158MOL    H7541209   2.203   4.008   0.477 -0.5675  0.9177 -0.5154
  158MOL    H7641210   1.953   4.006   0.440 -0.9822  1.0938 -2.4833
  158MOL    H7741211   1.980   3.906   0.286 -2.2456  1.9003 -1.1654
  158MOL    H7841212   2.316   4.263   0.420 -0.0348  1.1026  0.9443
  158MOL    H7941213   2.235   4.415   0.384 -3.8395  0.1279 -1.9664
  158MOL    C8041214   2.305   4.308   0.214 -0.0944  0.2523 -0.2328
  158MOL    C8141215   2.432   4.227   0.209  0.0902  0.5257 -0.3089
  158MOL    C8241216   2.486   4.183   0.078 -0.0171 -0.1055 -0.7071
  158MOL    C8341217   2.429   4.075   0.172  0.2759 -0.5219 -0.0448
  158MOL    C8441218   2.340   4.449   0.173  0.1985  0.8323 -0.2511
  158MOL    H8541219   2.232   4.263   0.147 -0.3908  0.5097 -0.0878
  158MOL    H8641220   2.503   4.252   0.287  0.8955 -0.8224 -0.5801
  158MOL    H8741221   2.592   4.176   0.056 -0.0168  2.8764 -1.8272
  158MOL    H8841222   2.428   4.201   7.827  1.3296 -0.8930 -1.7329
  158MOL    H8941223   2.341   4.026   0.131 -0.6253  1.0036  0.0601
  158MOL    H9041224   2.499   4.009   0.223  3.8236  2.9567 -0.2116
  158MOL    H9141225   2.384   4.491   0.263 -1.1503 -0.0309  0.8326
  158MOL    H9241226   2.422   4.456   0.101 -1.1423  0.6466 -1.8430
  158MOL    C9341227   2.222   4.538   0.119 -0.7045  0.7445  0.0673
  158MOL    C9441228   2.273   4.685   0.117  0.0858  0.6661  0.2466
  158MOL    C9541229   2.173   4.790   0.176  0.0147 -0.0067 -0.8213
  158MOL    C9641230   2.304   4.758   0.244 -0.6102  0.7124 -0.1894
  158MOL    C9741231   2.173   4.481   7.822 -0.5686 -0.6363 -0.3764
  158MOL    H9841232   2.140   4.548   0.190 -0.2546  1.3591  0.5064
  158MOL    H9941233   2.341   4.704   0.034  2.5354 -1.2047  1.7635
  158MOL   H10041234   2.173   4.891   0.135  4.6407  0.4114 -0.0870
  158MOL   H10141235   2.084   4.754   0.226 -0.4774 -0.9153 -2.3168
  158MOL   H10241236   2.380   4.835   0.254 -0.4300  0.3470  1.4451
  158MOL   H10341237   2.278   4.704   0.335  1.5326 -2.3539 -1.3402
  158MOL   H10441238   2.135   4.381   0.005  0.1876 -1.0968 -1.1579
  158MOL   H10541239   2.257   4.458   7.756  1.3518 -0.3140  1.8790
  158MOL   C10641240   2.074   4.569   7.742  0.4359  0.2112  0.2469
  158MOL   C10741241   2.053   4.500   7.609  0.1038  0.1615  0.2685
  158MOL   C10841242   2.054   4.576   7.480 -0.0467 -0.2994 -0.0409
  158MOL   C10941243   2.170   4.494   7.514 -0.1286  0.5980 -0.2171
  158MOL   C11041244   1.941   4.600   7.820  0.8664 -0.0757 -0.4385
  158MOL   H11141245   2.129   4.661   7.725 -1.7879  1.4458 -0.4309
  158MOL   H11241246   2.003   4.404   7.622 -1.0718  0.9503  1.7611
  158MOL   H11341247   1.987   4.551   7.398 -0.3924  1.2884 -0.2501
  158MOL   H11441248   2.061   4.682   7.500  0.0680 -0.6490  1.8416
  158MOL   H11541249   2.257   4.549   7.548 -1.1301  0.9682  1.8334
  158MOL   H11641250   2.185   4.412   7.444 -0.9562 -0.6452  1.0212
  158MOL   H11741251   1.881   4.519   0.022  0.9314  0.4047  0.6145
  158MOL   H11841252   1.972   4.646   0.075  2.3375 -0.6574 -0.6404
  158MOL   C11941253   1.839   4.688   7.746 -0.4375  0.3606  0.3523
  158MOL   C12041254   1.706   4.661   7.817 -0.4039 -0.2513 -0.0067
  158MOL   C12141255   1.633   4.532   7.790  0.3338  0.2434  0.1042
  158MOL   C12241256   1.572   4.662   7.742  0.4434 -0.2035 -0.4246
  158MOL   C12341257   1.892   4.836   7.724 -0.4111  1.0154  0.0091
  158MOL   H12441258   1.824   4.646   7.647 -1.7706  1.9440 -0.1360
  158MOL   H12541259   1.699   4.695   0.081 -0.7265 -1.6854  0.4558
  158MOL   H12641260   1.602   4.474   0.037  2.1047 -0.4122  0.3212
  158MOL   H12741261   1.679   4.467   7.715  0.0345  0.5754 -0.3755
  158MOL   H12841262   1.571   4.687   7.636  0.6979  1.4999 -0.0381
  158MOL   H12941263   1.478   4.663   7.797  0.7852  1.5195  0.1491
  158MOL   H13041264   1.938   4.866   7.819  0.1494  0.6659 -0.1548
  158MOL   H13141265   1.972   4.838   7.650 -1.5674  0.5992 -1.2486
  158MOL   C13241266   1.804   4.960   7.697 -0.2789  1.0459 -0.1079
  158MOL   C13341267   1.691   4.979   7.798 -1.2434 -0.4283 -0.3149
  158MOL   C13441268   1.641   5.120   7.836 -0.8530  0.8204 -0.0304
  158MOL   C13541269   1.710   5.039   0.095  0.8568 -0.0231 -0.3646
  158MOL   C13641270   1.746   4.978   7.546 -0.0765  0.2204 -0.2592
  158MOL   H13741271   1.862   5.051   7.712  1.1317  0.3036 -0.9450
  158MOL   H13841272   1.616   4.900   7.803  0.7190 -2.2586  2.9215
  158MOL   H13941273   1.697   5.206   7.801  0.6275  0.2533  0.8764
  158MOL   H14041274   1.537   5.133   0.026 -1.0399 -0.5223 -0.0603
  158MOL   H14141275   1.805   5.080   0.126  0.7112 -0.8343  1.2544
  158MOL   H14241276   1.658   4.983   0.173  0.5743 -1.5251 -1.5871
  158MOL   H14341277   1.711   4.877   7.522 -0.7516  0.7512 -1.5276
  158MOL   H14441278   1.659   5.043   7.547  0.8669  1.5129 -0.9716
  158MOL   C14541279   1.849   5.029   7.443 -0.2293 -0.2073 -0.0996
  158MOL   C14641280   1.783   5.029   7.298 -1.0376 -0.6554  0.3026
  158MOL   C14741281   1.870   5.033   7.178 -0.3712 -0.4606  0.5031
  158MOL   C14841282   1.794   4.899   7.210 -0.7622  0.5569  0.0182
  158MOL   C14941283   1.921   5.154   7.487  1.2308 -0.2886  0.3305
  158MOL   H15041284   1.928   4.954   7.439  0.1163  0.1966 -0.9235
  158MOL   H15141285   1.690   5.084   7.285 -1.1080 -0.9748 -0.6126
  158MOL   H15241286   1.846   5.097   7.093  2.1835  0.4307  0.4226
  158MOL   H15341287   1.976   5.030   7.202 -0.6145 -0.1364  1.6204
  158MOL   H15441288   1.866   4.823   7.238  1.3746  0.8311 -4.2433
  158MOL   H15541289   1.714   4.858   7.149 -0.1310  0.3714 -0.7020
  158MOL   H15641290   1.989   5.117   7.564  0.5528 -1.0786  0.5533
  158MOL   H15741291   1.984   5.175   7.401 -0.3756  0.8317 -0.5952
  158MOL   C15841292   1.843   5.283   7.539 -0.3338  0.0481  0.2370
  158MOL   C15941293   1.732   5.336   7.434 -0.2592 -0.0181 -0.0584
  158MOL   C16041294   1.587   5.321   7.460  0.6753 -0.5969 -0.1243
  158MOL   C16141295   1.640   5.462   7.443 -1.1782  0.2773  0.5104
  158MOL   C16241296   1.941   5.397   7.562 -0.1471  0.2714  0.3944
  158MOL   H16341297   1.778   5.263   7.623 -1.3443 -0.0651 -0.5579
  158MOL   H16441298   1.765   5.327   7.331  0.1992 -2.0849  0.2545
  158MOL   H16541299   1.577   5.271   7.556 -0.7371 -0.6646 -0.2940
  158MOL   H16641300   1.534   5.278   7.376  1.5252  0.7589 -1.3832
  158MOL   H16741301   1.609   5.523   7.358 -0.9609  1.4439  1.2617
  158MOL   H16841302   1.653   5.524   7.532 -0.1918  0.3614  0.3191
  158MOL   H16941303   1.878   5.476   7.601  1.4152  1.2341  1.0173
  158MOL   H17041304   1.962   5.437   7.462  1.0559  0.7722  0.8370
  158MOL   C17141305   2.069   5.362   7.643  0.2455 -0.2518 -0.0853
  158MOL   C17241306   2.178   5.482   7.645  1.2945 -0.4717 -0.1092
  158MOL   C17341307   2.198   5.582   7.537 -0.3433  0.2200  0.1542
  158MOL   C17441308   2.139   5.630   7.672  0.1135 -0.5840  0.4293
  158MOL   C17541309   2.024   5.349   7.787 -0.2124  0.6402 -0.2000
  158MOL   H17641310   2.127   5.275   7.611  0.2884 -0.4594  0.5411
  158MOL   H17741311   2.277   5.451   7.677  1.6469  2.6204  2.0000
  158MOL   H17841312   2.297   5.622   7.517  0.0701 -1.2029 -0.7328
  158MOL   H17941313   2.133   5.587   7.450 -0.4403 -1.0189  0.1419
  158MOL   H18041314   2.034   5.652   7.692 -0.2570 -0.6617 -1.3745
  158MOL   H18141315   2.213   5.681   7.732 -0.9162 -0.9768  2.0636
  158MOL   H18241316   1.940   5.279   7.787  0.3598 -0.0590  0.8559
  158MOL   H18341317   1.980   5.443   7.820  1.9340  1.9674 -1.0223
  158MOL   C18441318   2.126   5.303   0.053 -0.5815  0.3378  0.3144
  158MOL   C18541319   2.178   5.164   0.031 -0.6549 -0.5321 -0.1665
  158MOL   C18641320   2.327   5.134   0.060 -0.4481 -0.3428  0.2162
  158MOL   C18741321   2.266   5.110   7.760  0.2366  0.0638 -0.3375
  158MOL   C18841322   2.060   5.325   0.197  0.2889  0.1260  0.5360
  158MOL   H18941323   2.206   5.376   0.043 -0.7380  0.3770 -0.6564
  158MOL   H19041324   2.105   5.090   0.061 -0.0537 -0.6246  1.1254
  158MOL   H19141325   2.339   5.053   0.132  1.6151  0.4631  0.7985
  158MOL   H19241326   2.407   5.207   0.058 -0.3474 -0.4675 -0.6000
  158MOL   H19341327   2.251   5.009   7.722 -2.3722  0.8975 -1.5921
  158MOL   H19441328   2.299   5.177   7.681  0.5131 -0.5136 -0.7232
  158MOL   H19541329   1.992   5.241   0.210  1.1009 -0.9886 -2.1739
  158MOL   H19641330   1.993   5.410   0.180 -0.3244 -0.8265 -2.0977
  158MOL   C19741331   2.156   5.352   0.316 -0.7150  0.3093  0.4399
  158MOL   C19841332   2.086   5.337   0.447 -0.2585 -0.7201  0.2809
  158MOL   C19941333   2.154   5.299   0.580  0.0985  0.4881 -0.1397
  158MOL   C20041334   2.071   5.208   0.505  0.2549 -0.0255  0.0255
  158MOL   C20141335   2.214   5.493   0.302 -0.3643 -0.6755  0.0218
  158MOL   H20241336   2.240   5.283   0.311  0.5564  1.7932  0.6059
  158MOL   H20341337   2.005   5.407   0.464  1.0896  0.6431  1.3502
  158MOL   H20441338   2.262   5.287   0.578  0.1016 -0.3123  3.0285
  158MOL   H20541339   2.120   5.339   0.675 -1.0413 -0.3566 -0.1802
  158MOL   H20641340   2.116   5.132   0.441 -0.9735  0.8474 -1.9162
  158MOL   H20741341   1.974   5.178   0.543 -0.7746  1.1140 -1.6282
  158MOL   H20841342   2.266   5.507   0.207  2.7404  0.9036  1.8618
  158MOL   H20941343   2.128   5.560   0.303 -0.1003 -0.2330 -2.7532
  158MOL   C21041344   2.314   5.539   0.410 -0.2586 -0.9324  0.4514
  158MOL   C21141345   2.444   5.476   0.364  0.2090  0.3558  0.1496
  158MOL   C21241346   2.566   5.429   0.456 -0.6629  0.1334  0.0900
  158MOL   C21341347   2.485   5.330   0.378  0.0260  0.3015 -0.0842
  158MOL   C21441348   2.329   5.688   0.406 -0.1853 -0.2781 -0.6983
  158MOL   H21541349   2.267   5.502   0.501 -0.2394  0.1638  0.9190
  158MOL   H21641350   2.469   5.509   0.264  0.2932 -0.8190 -0.2283
  158MOL   H21741351   2.670   5.441   0.425 -1.1477  2.8232 -0.5596
  158MOL   H21841352   2.551   5.425   0.564  1.3215  2.8322  0.5292
  158MOL   H21941353   2.524   5.282   0.289 -1.2864  0.8072 -0.9396
  158MOL   H22041354   2.435   5.257   0.441  2.8576 -0.5088  1.3185
  158MOL   H22141355   2.422   5.708   0.459 -0.8522 -0.8585  0.7044
  158MOL   H22241356   2.337   5.710   0.299  0.2506  0.3051 -0.5472
  158MOL   C22341357   2.209   5.768   0.463  0.0773  0.4547  0.6283
  158MOL   C22441358   2.227   5.908   0.410 -0.3360 -0.0999 -0.3453
  158MOL   C22541359   2.192   5.926   0.260 -0.3139 -0.6862  0.2654
  158MOL   C22641360   2.110   6.002   0.371 -0.5485  0.0936  0.7020
  158MOL   C22741361   2.202   5.762   0.615 -1.2890 -0.4877  0.7361
  158MOL   H22841362   2.112   5.741   0.423  0.3332  1.1581 -0.4907
  158MOL   H22941363   2.317   5.956   0.447 -0.2507  0.1783 -0.9029
  158MOL   H23041364   2.140   5.845   0.209  0.8429 -1.6718  0.6100
  158MOL   H23141365   2.270   5.977   0.204  0.4170 -0.6855  1.2662
  158MOL   H23241366   2.118   6.111   0.374  0.3493  0.0518 -0.0560
  158MOL   H23341367   2.009   5.963   0.378 -0.7333  0.7421  1.9021
  158MOL   H23441368   2.203   5.657   0.645  1.5702 -0.5218  0.6647
  158MOL   H23541369   2.293   5.798   0.663 -2.2169  1.3737  1.1529
  158MOL   C23641370   2.076   5.828   0.672 -0.2593  0.2034 -0.3380
  158MOL   C23741371   2.103   5.861   0.816  0.1353  0.4601 -0.1448
  158MOL   C23841372   2.174   5.986   0.870 -0.1852  0.0217  0.1193
  158MOL   C23941373   2.028   5.978   0.878  0.5249 -0.2538  0.8141
  158MOL   C24041374   1.948   5.733   0.661 -0.1627 -0.0368  0.1304
  158MOL   H24141375   2.058   5.921   0.617  0.6315  0.2745 -0.5228
  158MOL   H24241376   2.126   5.772   0.875 -2.4427  0.6745  1.2508
  158MOL   H24341377   2.225   5.974   0.965 -1.6903 -1.2525  0.7914
  158MOL   H24441378   2.207   6.064   0.801 -1.7213 -0.3567 -1.0811
  158MOL   H24541379   1.967   6.043   0.816  0.3740 -2.0086 -0.9253
  158MOL   H24641380   1.978   5.935   0.965  0.3027  0.7771  1.2003
  158MOL   H24741381   1.934   5.684   0.565 -0.8362  3.3323 -1.5903
  158MOL   H24841382   1.973   5.652   0.729 -1.1817 -0.5448 -0.0818
  158MOL   C24941383   1.819   5.798   0.709 -0.8096  0.0110 -0.6851
  158MOL   C25041384   1.718   5.703   0.765 -0.5087 -0.0535  0.1669
  158MOL   C25141385   1.726   5.647   0.902  0.1075 -1.3510 -0.1192
  158MOL   C25241386   1.620   5.751   0.868 -0.4002  0.2689 -0.3002
  158MOL   C25341387   1.761   5.892   0.604  0.3363 -0.0602 -0.1663
  158MOL   H25441388   1.840   5.860   0.796  0.4615  2.4109 -2.6437
  158MOL   H25541389   1.674   5.642   0.687  1.0918  0.9653 -1.5627
  158MOL   H25641390   1.693   5.544   0.913  2.9341 -2.0213  2.8705
  158MOL   H25741391   1.822   5.674   0.945 -0.2839  0.5378 -0.3801
  158MOL   H25841392   1.514   5.734   0.845 -0.4129  1.4503 -1.1706
  158MOL   H25941393   1.640   5.842   0.925  2.1356  1.0462 -2.3466
  158MOL   H26041394   1.662   5.931   0.627  0.9484  1.1661  0.4030
  158MOL   H26141395   1.745   5.849   0.505  3.2186  1.8599 -1.5217
  158MOL   H26241396   1.829   5.975   0.588  2.2814 -1.6787 -0.4690
  159MOL     C141397   7.390   4.454   0.647  0.2103  0.4869 -0.4718
  159MOL     C241398   7.420   4.562   0.745  0.3252 -0.1360  0.2971
  159MOL     C341399   7.317   4.587   0.855  0.6022 -0.4618 -0.4317
  159MOL     C441400   7.336   4.688   0.754  0.3427 -1.1272  0.0773
  159MOL     C541401   7.393   4.513   0.512 -0.0540 -0.2671 -0.2540
  159MOL     H641402   7.471   4.381   0.660  1.8187  2.5971  1.8726
  159MOL     H741403   7.524   4.575   0.774  0.2174  0.5620  0.3751
  159MOL     H841404   7.228   4.525   0.852  1.8203 -2.2061 -0.8841
  159MOL     H941405   7.355   4.623   0.951 -1.2958  0.1335  0.1196
  159MOL    H1041406   7.363   4.784   0.799 -0.9429 -0.6399 -0.1890
  159MOL    H1141407   7.260   4.706   0.679 -0.6322 -1.1001  1.0492
  159MOL    H1241408   7.474   4.585   0.504 -1.8480  1.7936 -0.3026
  159MOL    H1341409   7.304   4.571   0.490  1.4379  2.2608  0.2215
  159MOL    H1441410   7.293   4.405   0.654  0.3392  0.5197  2.0916
  159MOL    C1541411   7.402   4.396   0.405  0.2181 -0.4161 -0.0140
  159MOL    C1641412   7.273   4.318   0.399  0.8256  0.0111  0.3833
  159MOL    C1741413   7.256   4.188   0.473 -0.0631  0.3468 -0.1266
  159MOL    C1841414   7.248   4.184   0.326 -0.5098  0.1836  0.1097
  159MOL    C1941415   7.418   4.467   0.264  0.2245 -0.2670 -0.2236
  159MOL    H2041416   7.488   4.330   0.421  0.2104 -0.3537  0.2927
  159MOL    H2141417   7.183   4.377   0.384  0.7603 -0.7351 -2.6377
  159MOL    H2241418   7.160   4.161   0.516 -0.3503 -0.2969 -1.1333
  159MOL    H2341419   7.346   4.156   0.525  2.1134  1.0825 -3.2572
  159MOL    H2441420   7.331   4.164   0.258  0.9999  0.2573  1.8581
  159MOL    H2541421   7.149   4.174   0.282 -0.6111 -0.1294  0.4123
  159MOL    H2641422   7.369   4.564   0.275 -2.7098 -1.9299  1.8834
  159MOL    H2741423   7.378   4.421   0.174 -0.8729  2.7429 -1.3443
  159MOL    C2841424   7.564   4.480   0.220  0.0967 -0.0500  0.8173
  159MOL    C2941425   7.643   4.565   0.321  0.5487 -0.5670 -0.6911
  159MOL    C3041426   7.707   4.509   0.441  0.4180 -0.4006 -0.5973
  159MOL    C3141427   7.794   4.549   0.318  0.4470 -0.3523  1.0928
  159MOL    C3241428   7.587   4.538   0.080 -0.1175  0.0611 -0.7558
  159MOL    H3341429   7.594   4.376   0.224  0.5478 -0.0348 -1.5081
  159MOL    H3441430   7.596   4.660   0.343  3.7064  0.9978 -0.4043
  159MOL    H3541431   7.706   4.404   0.469  1.4488  0.2883  2.2160
  159MOL    H3641432   7.713   4.574   0.529 -1.7659 -1.4282  0.3343
  159MOL    H3741433   7.831   4.470   0.252  0.0575 -0.0873  0.5578
  159MOL    H3841434   0.014   4.639   0.332 -1.1031  1.3156 -2.4838
  159MOL    H3941435   7.668   4.609   0.064  1.0188 -0.5404  2.0832
  159MOL    H4041436   7.509   4.614   0.071  1.5773  1.9841  0.3518
  159MOL    C4141437   7.594   4.446   7.793  0.4724 -0.5023  0.4773
  159MOL    C4241438   7.705   4.338   7.811 -0.1170  0.2270  1.0166
  159MOL    C4341439   7.699   4.204   7.736 -0.1713 -0.3711 -0.3881
  159MOL    C4441440   7.682   4.211   0.043  0.6443  0.8829 -0.4719
  159MOL    C4541441   7.613   4.530   7.668 -0.0388 -0.4374 -0.6364
  159MOL    H4641442   7.497   4.398   7.779  0.5773 -0.1261 -1.6041
  159MOL    H4741443   7.801   4.384   7.836  1.5430 -2.7403  0.4652
  159MOL    H4841444   7.605   4.194   7.681 -0.0190 -0.8195 -0.5674
  159MOL    H4941445   7.787   4.156   7.696  0.5748 -0.7158  1.6104
  159MOL    H5041446   7.760   4.163   0.102 -0.1290 -0.0833 -0.2218
  159MOL    H5141447   7.579   4.188   0.067  1.1779 -0.2098  0.8380
  159MOL    H5241448   7.718   4.560   7.661  0.7091 -2.6720  0.6672
  159MOL    H5341449   7.559   4.625   7.668 -0.2358 -0.5382  1.0053
  159MOL    C5441450   7.555   4.460   7.541  0.4268 -0.0786 -0.2347
  159MOL    C5541451   7.406   4.459   7.532 -0.1426  0.4678 -0.2825
  159MOL    C5641452   7.323   4.350   7.592  0.5918  0.0937  0.1287
  159MOL    C5741453   7.329   4.367   7.441 -0.3528  0.0507  0.3989
  159MOL    C5841454   7.616   4.510   7.405 -0.0371 -0.3077  0.0964
  159MOL    H5941455   7.595   4.359   7.554  0.8372  0.1350  0.1539
  159MOL    H6041456   7.354   4.553   7.549 -1.8860 -0.7227  0.9888
  159MOL    H6141457   7.381   4.274   7.643 -1.8546 -1.5405  0.5790
  159MOL    H6241458   7.221   4.357   7.630  0.9390 -0.2923  1.1395
  159MOL    H6341459   7.244   4.405   7.386 -0.0269 -0.1055 -0.2244
  159MOL    H6441460   7.390   4.299   7.381 -0.4509 -0.2618  0.6528
  159MOL    H6541461   7.537   4.529   7.332  0.7899 -0.8570 -0.9472
  159MOL    H6641462   7.647   4.614   7.420  1.4442 -0.6335 -0.5767
  159MOL    C6741463   7.737   4.424   7.355 -0.1694  0.0937 -0.0944
  159MOL    C6841464   7.678   4.304   7.275  0.2069 -0.5044  0.0835
  159MOL    C6941465   7.750   4.181   7.245  0.1686 -0.1260 -0.2652
  159MOL    C7041466   7.629   4.183   7.342 -0.1306  0.2296  0.2957
  159MOL    C7141467   7.829   4.511   7.263  0.1366  0.3210  0.3449
  159MOL    H7241468   7.805   4.396   7.435 -1.0644  1.0336  1.0200
  159MOL    H7341469   7.633   4.346   7.185  0.5896 -0.2759 -0.0046
  159MOL    H7441470   7.742   4.144   7.143  0.9911 -0.5868 -0.1644
  159MOL    H7541471   0.008   4.174   7.292 -0.6925  1.5614  1.8850
  159MOL    H7641472   7.645   4.157   7.446  1.8320  2.1315  0.5057
  159MOL    H7741473   7.547   4.131   7.292  1.3636 -0.9883 -0.9554
  159MOL    H7841474   7.773   4.576   7.195  1.5810 -0.0695 -1.2396
  159MOL    H7941475   0.040   4.446   7.193 -0.2927  0.0936  0.2464
  159MOL    C8041476   0.086   4.603   7.340  0.5930  0.2740 -0.3065
  159MOL    C8141477   0.023   4.735   7.369  0.5408 -0.5814  0.2968
  159MOL    C8241478   0.104   4.837   7.442  0.0981 -0.2162 -0.2395
  159MOL    C8341479   7.828   4.771   7.512 -0.3014 -0.2151  0.2142
  159MOL    C8441480   0.228   4.614   7.268  0.6557 -0.0688  0.0840
  159MOL    H8541481   0.108   4.554   7.435 -0.7291  0.1171 -0.0704
  159MOL    H8641482   7.799   4.773   7.289  1.8236 -0.7010 -0.8028
  159MOL    H8741483   0.096   4.942   7.414  0.4572 -0.1104  0.0507
  159MOL    H8841484   0.205   4.812   7.474 -1.2619 -0.7899  3.8799
  159MOL    H8941485   0.029   4.720   7.599 -0.6758  3.1157  2.4229
  159MOL    H9041486   7.739   4.829   7.536 -2.1889 -3.0699  0.2978
  159MOL    H9141487   0.205   4.574   7.169  0.5469 -2.1088  0.9183
  159MOL    H9241488   0.265   4.715   7.253  1.7645 -0.6629 -1.3746
  159MOL    C9341489   0.349   4.532   7.320 -1.3989  0.0610 -0.2031
  159MOL    C9441490   0.459   4.508   7.206  0.2774  0.6408  0.6016
  159MOL    C9541491   0.518   4.366   7.183 -0.9587  0.7652 -0.1760
  159MOL    C9641492   0.433   4.440   7.078  0.4190  0.2812  0.1462
  159MOL    C9741493   0.415   4.584   7.446 -0.5236  0.2735  0.3667
  159MOL    H9841494   0.318   4.430   7.344  1.2645 -1.0339 -1.2001
  159MOL    H9941495   0.529   4.591   7.203  0.1186  0.7605  0.2235
  159MOL   H10041496   0.626   4.367   7.177 -0.9549  0.8378 -0.1001
  159MOL   H10141497   0.469   4.278   7.223 -0.5551 -1.0616 -3.5243
  159MOL   H10241498   0.483   4.475   6.988  1.3831 -0.8601  0.2336
  159MOL   H10341499   0.334   4.399   7.061  1.3992 -2.1483  0.1041
  159MOL   H10441500   0.335   4.581   7.519  0.7603 -1.8346  1.7212
  159MOL   H10541501   0.437   4.690   7.428 -1.1624  0.2441 -0.6063
  159MOL   C10641502   0.538   4.499   7.501  0.9340  0.2269  0.4141
  159MOL   C10741503   0.614   4.577   7.607  0.0773  0.4957 -0.4948
  159MOL   C10841504   0.759   4.548   7.619  0.7557 -0.4148 -0.3452
  159MOL   C10941505   0.708   4.680   7.569  0.0611 -0.4133 -0.1099
  159MOL   C11041506   0.506   4.354   7.536 -0.7426  0.1427  0.5190
  159MOL   H11141507   0.608   4.479   7.420  0.0555 -2.3403  0.2247
  159MOL   H11241508   0.546   4.598   7.688  1.3861  1.3670  0.4107
  159MOL   H11341509   0.817   4.555   7.711  0.1405  1.2546 -0.0709
  159MOL   H11441510   0.799   4.470   7.554 -0.3607 -0.7875 -0.5932
  159MOL   H11541511   0.706   4.697   7.461 -1.3165  3.6529  0.5008
  159MOL   H11641512   0.715   4.768   7.632 -0.4607 -1.4820  1.4768
  159MOL   H11741513   0.459   4.314   7.446  0.1272  0.5474 -0.1238
  159MOL   H11841514   0.599   4.297   7.529 -0.3157  1.0597 -1.7754
  159MOL   C11941515   0.442   4.328   7.669 -0.1697  0.0867  0.1747
  159MOL   C12041516   0.343   4.213   7.648  0.2361  0.3156  0.1565
  159MOL   C12141517   0.208   4.247   7.579 -0.4591  0.1787  0.3295
  159MOL   C12241518   0.211   4.184   7.719 -0.3247 -0.0135  0.2415
  159MOL   C12341519   0.542   4.298   7.780 -0.0893  0.0001 -0.1315
  159MOL   H12441520   0.381   4.415   7.692 -1.4876 -0.6448 -0.5415
  159MOL   H12541521   0.400   4.131   7.605 -0.0520 -1.0051  2.2366
  159MOL   H12641522   0.181   4.190   7.491  0.3580 -0.2816  0.3718
  159MOL   H12741523   0.172   4.350   7.572 -4.1119 -1.1880 -1.7715
  159MOL   H12841524   0.175   4.264   7.783 -0.3912  0.1163  0.0415
  159MOL   H12941525   0.196   4.079   7.739  2.1455 -0.1281  1.7959
  159MOL   H13041526   0.594   4.205   7.757 -2.4031 -1.8945  2.0691
  159MOL   H13141527   0.622   4.373   7.777 -0.2288  0.1367 -0.4589
  159MOL   C13241528   0.488   4.302   0.085  0.3056 -0.6330  0.3594
  159MOL   C13341529   0.443   4.442   0.126  0.4973  0.2650 -0.5869
  159MOL   C13441530   0.335   4.457   0.230 -0.3570 -0.2103 -0.2514
  159MOL   C13541531   0.314   4.506   0.097  0.0731  0.0338  0.8578
  159MOL   C13641532   0.581   4.230   0.181  0.2022 -0.4619  0.7728
  159MOL   H13741533   0.391   4.252   0.082 -0.0354  0.1024 -1.9099
  159MOL   H13841534   0.521   4.518   0.133 -0.5240  1.4894 -2.1666
  159MOL   H13941535   0.279   4.369   0.261 -1.3840  0.2773 -0.6735
  159MOL   H14041536   0.359   4.520   0.316  0.5258  0.1123 -0.7354
  159MOL   H14141537   0.240   4.446   0.043 -0.2966  0.2004  1.1746
  159MOL   H14241538   0.307   4.612   0.075  1.7953 -0.2575 -1.2536
  159MOL   H14341539   0.638   4.163   0.116  1.5512  1.4201 -0.0290
  159MOL   H14441540   0.661   4.294   0.216  1.1900 -0.8815 -0.6386
  159MOL   C14541541   0.527   4.137   0.297 -0.1259  0.3037  0.2610
  159MOL   C14641542   0.453   4.016   0.246 -0.7291 -0.1223  0.0282
  159MOL   C14741543   0.352   3.935   0.325 -0.5211 -0.0501  0.7217
  159MOL   C14841544   0.301   4.027   0.215 -0.6547  0.4311  0.1097
  159MOL   C14941545   0.635   4.081   0.381  0.2010 -0.2017 -0.4386
  159MOL   H15041546   0.455   4.191   0.359  1.7589  0.9593  1.9260
  159MOL   H15141547   0.515   3.948   0.188  1.5501  0.2926  1.8898
  159MOL   H15241548   0.380   3.831   0.316  1.8229  0.5747  0.4401
  159MOL   H15341549   0.329   3.969   0.426 -2.7377  3.5028 -0.8605
  159MOL   H15441550   0.240   4.114   0.240 -1.7024  0.2471 -1.6935
  159MOL   H15541551   0.273   3.976   0.123 -0.3232 -0.1153  0.3080
  159MOL   H15641552   0.590   4.010   0.451  0.2205  0.7856  0.6000
  159MOL   H15741553   0.704   4.019   0.325 -0.3138 -2.2005  1.0731
  159MOL   C15841554   0.715   4.180   0.462  0.1710  0.0234  0.2767
  159MOL   C15941555   0.844   4.117   0.509  0.3522  0.0327  0.5155
  159MOL   C16041556   0.955   4.103   0.415  0.2507 -0.2350 -0.1895
  159MOL   C16141557   0.970   4.199   0.529 -0.2183 -0.4941 -0.3936
  159MOL   C16241558   0.636   4.237   0.583  0.3716  0.1005 -0.0034
  159MOL   H16341559   0.745   4.253   0.386 -0.4413  0.0622  0.0677
  159MOL   H16441560   0.828   4.024   0.563 -2.3267 -0.3461 -0.8326
  159MOL   H16541561   0.941   4.148   0.317  1.6771  3.6846  1.3091
  159MOL   H16641562   1.004   4.006   0.422 -0.4053 -0.4174  2.3565
  159MOL   H16741563   1.048   4.178   0.602  0.8123  0.9992 -1.0410
  159MOL   H16841564   0.954   4.305   0.510 -0.3326 -0.3881  0.2808
  159MOL   H16941565   0.615   4.148   0.643 -3.0220  1.4384  0.8994
  159MOL   H17041566   0.536   4.263   0.547  0.4580 -0.0022 -0.3245
  159MOL   C17141567   0.689   4.356   0.660 -0.0235  0.2403 -0.1523
  159MOL   C17241568   0.648   4.488   0.593 -0.0325  0.2142 -0.4997
  159MOL   C17341569   0.705   4.615   0.633 -0.4086 -0.1011  0.4870
  159MOL   C17441570   0.725   4.560   0.490 -0.2078  0.2576 -0.7044
  159MOL   C17541571   0.652   4.350   0.811  0.0911 -0.0528  0.7805
  159MOL   H17641572   0.797   4.371   0.652 -0.1802  1.8192  0.3553
  159MOL   H17741573   0.544   4.483   0.559 -0.8706 -3.2838  2.2264
  159MOL   H17841574   0.638   4.701   0.643  0.0424  0.4348 -1.0048
  159MOL   H17941575   0.785   4.618   0.706 -1.0237  1.0288  1.1320
  159MOL   H18041576   0.827   4.529   0.471  0.3484  1.6710 -0.1069
  159MOL   H18141577   0.672   4.618   0.415 -0.4117 -1.0121 -1.5581
  159MOL   H18241578   0.545   4.332   0.812 -0.1032  0.9426 -0.6606
  159MOL   H18341579   0.663   4.452   0.848  1.3188  0.5467 -1.1309
  159MOL   C18441580   0.737   4.246   0.894 -0.2107  0.1340  0.3829
  159MOL   C18541581   0.675   4.215   1.028 -0.1126 -0.2544  0.4251
  159MOL   C18641582   0.702   4.090   1.107  0.4191  0.2940 -0.2035
  159MOL   C18741583   0.573   4.108   1.044 -0.3213 -0.0988 -0.5095
  159MOL   C18841584   0.891   4.278   0.907  0.1175 -0.2621  0.1504
  159MOL   H18941585   0.734   4.156   0.833  1.2320  2.0260 -2.5551
  159MOL   H19041586   0.657   4.303   1.090 -0.5069 -0.6108  0.8213
  159MOL   H19141587   0.698   4.091   1.216  2.0950 -1.1634 -0.1193
  159MOL   H19241588   0.773   4.018   1.069  1.0046  1.1546 -0.7526
  159MOL   H19341589   0.486   4.135   1.103  0.7956  0.7238  0.7784
  159MOL   H19441590   0.556   4.049   0.954 -1.6435 -0.5812  0.0324
  159MOL   H19541591   0.938   4.268   0.810 -0.0287  0.3534  0.0145
  159MOL   H19641592   0.953   4.205   0.960  0.5135 -1.3794 -1.8296
  159MOL   C19741593   0.932   4.419   0.964  0.2024  0.2665 -0.4849
  159MOL   C19841594   1.066   4.464   0.902  0.3453  0.0795 -0.2303
  159MOL   C19941595   1.090   4.606   0.873 -0.4106 -0.3375  0.0342
  159MOL   C20041596   1.067   4.504   0.762  0.1170  0.1556  0.2330
  159MOL   C20141597   0.933   4.429   1.118 -0.0710  0.1551 -0.1122
  159MOL   H20241598   0.851   4.482   0.927 -0.2577 -0.5044 -0.7938
  159MOL   H20341599   1.145   4.402   0.944  0.8133  1.0035  0.2723
  159MOL   H20441600   1.016   4.685   0.860 -1.6053 -1.5063 -0.2885
  159MOL   H20541601   1.192   4.637   0.897  0.0739 -2.4889  0.8200
  159MOL   H20641602   0.966   4.502   0.721  0.4935  2.2447 -0.8390
  159MOL   H20741603   1.154   4.506   0.696 -0.9057  0.8017 -1.1333
  159MOL   H20841604   0.862   4.365   1.171  1.3714 -1.8676 -0.5210
  159MOL   H20941605   1.027   4.394   1.161 -0.0132  0.2607 -0.1520
  159MOL   C21041606   0.917   4.575   1.171  0.2197  0.6520  0.2720
  159MOL   C21141607   0.780   4.627   1.136 -0.1411 -0.3432  0.2187
  159MOL   C21241608   0.739   4.771   1.141 -0.4422  0.8037  0.2474
  159MOL   C21341609   0.748   4.700   1.008  0.0000 -0.4505  0.3440
  159MOL   C21441610   0.936   4.579   1.327  0.4603 -0.4863  0.0156
  159MOL   H21541611   0.992   4.642   1.128  1.5535 -1.7396 -1.1904
  159MOL   H21641612   0.696   4.562   1.158 -0.8531  0.2164 -0.7819
  159MOL   H21741613   0.634   4.781   1.168 -0.8148 -3.9531  0.9162
  159MOL   H21841614   0.809   4.844   1.181 -0.6754  1.8130 -1.1585
  159MOL   H21941615   0.665   4.651   0.957  1.0381  0.5144 -2.3562
  159MOL   H22041616   0.836   4.714   0.945 -0.2411 -0.4455  0.0089
  159MOL   H22141617   0.838   4.594   1.374  0.0453  0.0178 -1.0081
  159MOL   H22241618   0.950   4.475   1.357  0.8677 -0.0981  1.2357
  159MOL   C22341619   1.055   4.676   1.365 -0.0080  0.1126  0.1147
  159MOL   C22441620   1.186   4.624   1.312  0.7355  0.2896  0.5676
  159MOL   C22541621   1.249   4.673   1.180 -0.7619  0.1988  0.5529
  159MOL   C22641622   1.310   4.706   1.317  0.1442 -0.0872 -0.0280
  159MOL   C22741623   1.064   4.677   1.521 -0.4369  0.3085 -0.4900
  159MOL   H22841624   1.038   4.773   1.317  1.6413  0.2922 -0.1258
  159MOL   H22941625   1.204   4.519   1.336 -0.8987 -0.3723 -1.0270
  159MOL   H23041626   1.203   4.758   1.131 -1.4975 -0.5471 -0.0536
  159MOL   H23141627   1.320   4.614   1.123 -0.9167  1.1472 -0.6285
  159MOL   H23241628   1.390   4.638   1.346 -1.0028 -0.2902  2.8630
  159MOL   H23341629   1.336   4.809   1.338  0.2859 -0.5978  2.5485
  159MOL   H23441630   1.068   4.572   1.547 -1.0036 -0.3044 -2.7918
  159MOL   H23541631   1.153   4.733   1.554  0.7544 -0.7768 -1.7930
  159MOL   C23641632   0.936   4.734   1.590 -0.1937 -0.5958  0.3459
  159MOL   C23741633   0.882   4.865   1.550 -0.0703 -0.1784 -0.1417
  159MOL   C23841634   0.773   4.882   1.451 -0.3759  0.0310  0.6139
  159MOL   C23941635   0.742   4.915   1.593  0.3391  0.1480  0.2275
  159MOL   C24041636   0.967   4.747   1.741 -0.3190 -0.1464 -0.3385
  159MOL   H24141637   0.850   4.668   1.579 -0.4020 -0.1851 -0.4775
  159MOL   H24241638   0.961   4.940   1.554  0.5142 -0.7275 -1.0319
  159MOL   H24341639   0.791   4.967   1.386 -0.3990  0.3739  1.0494
  159MOL   H24441640   0.719   4.801   1.404 -2.0136  0.6027  1.4532
  159MOL   H24541641   0.666   4.846   1.631  0.7560  0.4042  1.5480
  159MOL   H24641642   0.717   5.018   1.619 -1.1940 -0.1705  0.0959
  159MOL   H24741643   1.062   4.707   1.775 -1.3293  0.0744  2.9786
  159MOL   H24841644   0.983   4.853   1.761  4.3941 -0.6280 -0.9644
  159MOL   C24941645   0.865   4.682   1.841 -0.1605 -0.0044  0.3628
  159MOL   C25041646   0.916   4.705   1.982 -0.4523 -0.3887 -1.0868
  159MOL   C25141647   0.899   4.832   2.056 -0.5623  0.4349  0.4337
  159MOL   C25241648   0.826   4.705   2.107  0.8232  0.1147  0.6318
  159MOL   C25341649   0.850   4.535   1.818 -0.4990  0.1382  0.1124
  159MOL   H25441650   0.771   4.733   1.822 -0.5027  0.1686  2.3697
  159MOL   H25541651   1.015   4.663   1.999 -0.6091 -0.9835 -1.6400
  159MOL   H25641652   0.981   4.860   2.122 -0.2219 -0.7723  0.5232
  159MOL   H25741653   0.848   4.915   2.007  1.0268  1.4941  0.5429
  159MOL   H25841654   0.865   4.636   2.182  0.5781 -1.6194 -0.8152
  159MOL   H25941655   0.718   4.715   2.102  1.1214  2.2692 -2.7984
  159MOL   H26041656   0.906   4.469   1.884 -2.0425 -1.6246 -0.2676
  159MOL   H26141657   0.881   4.507   1.718  2.2396 -1.2155  1.2801
  159MOL   H26241658   0.747   4.501   1.830 -0.2676 -0.6366 -0.0513
  160MOL     C141659   0.354   3.895   4.042 -0.4852  1.1009  0.5946
  160MOL     C241660   0.250   3.799   3.979 -0.4729 -0.1927 -0.3477
  160MOL     C341661   0.268   3.650   3.967 -0.1447 -0.2968 -0.1634
  160MOL     C441662   0.284   3.740   3.848  0.2583  0.0364  0.3350
  160MOL     C541663   0.376   4.030   3.965  0.3919 -0.3019 -1.0270
  160MOL     H641664   0.324   3.922   4.144  1.3814  0.1561  1.4169
  160MOL     H741665   0.149   3.833   4.002 -0.6164 -0.1288 -1.0409
  160MOL     H841666   0.357   3.616   4.019  0.7716  0.5590 -1.1494
  160MOL     H941667   0.179   3.587   3.964  1.7108 -2.9211 -1.2842
  160MOL    H1041668   0.206   3.748   3.772  1.7327  0.5653 -1.1355
  160MOL    H1141669   0.386   3.747   3.813  0.4515  0.6125  0.9967
  160MOL    H1241670   0.278   4.050   3.921  0.2637  0.6639 -0.3022
  160MOL    H1341671   0.437   4.007   3.878 -0.6643 -3.3433 -1.0237
  160MOL    H1441672   0.452   3.851   4.062 -0.3910  0.8509 -0.3996
  160MOL    C1541673   0.434   4.143   4.047 -0.0770  0.0241  0.3195
  160MOL    C1641674   0.570   4.105   4.107  0.2365 -0.1901 -0.3189
  160MOL    C1741675   0.574   4.025   4.233 -0.3772  0.2055  0.4596
  160MOL    C1841676   0.624   4.170   4.232 -0.4574  1.0462 -0.0592
  160MOL    C1941677   0.429   4.267   3.954  0.2803 -0.0119  0.1153
  160MOL    H2041678   0.368   4.151   4.133 -0.2522 -1.5001  0.3359
  160MOL    H2141679   0.646   4.069   4.038  0.1045 -0.2536 -0.4311
  160MOL    H2241680   0.641   3.939   4.242 -1.4465 -0.5416  1.5723
  160MOL    H2341681   0.483   4.008   4.290 -0.8352  1.5268  0.1403
  160MOL    H2441682   0.568   4.255   4.270  1.2740  1.9884  0.4127
  160MOL    H2541683   0.730   4.189   4.243  0.1678 -2.5350  0.8193
  160MOL    H2641684   0.334   4.281   3.903  1.4193  0.6914 -1.8679
  160MOL    H2741685   0.505   4.269   3.875  1.1701 -1.5076  0.9167
  160MOL    C2841686   0.433   4.402   4.033  0.0667 -0.3166 -0.0222
  160MOL    C2941687   0.311   4.436   4.102  0.1738 -0.0706  0.0440
  160MOL    C3041688   0.287   4.406   4.243 -0.5612  0.0263 -0.0128
  160MOL    C3141689   0.321   4.549   4.214  0.1946  0.5105 -0.3708
  160MOL    C3241690   0.468   4.523   3.942  0.2564  0.3624  0.2881
  160MOL    H3341691   0.522   4.391   4.096  1.3160 -0.8374 -1.8361
  160MOL    H3441692   0.224   4.430   4.037  0.8092  1.1400 -0.9569
  160MOL    H3541693   0.361   4.354   4.303 -0.3657 -0.4220 -0.6343
  160MOL    H3641694   0.189   4.362   4.257 -0.8270 -0.2958 -2.6415
  160MOL    H3741695   0.418   4.590   4.241  0.8077 -1.3742  0.3398
  160MOL    H3841696   0.240   4.623   4.212 -0.0126  0.2839 -0.3700
  160MOL    H3941697   0.453   4.616   3.997  2.0607  0.8901 -0.0823
  160MOL    H4041698   0.397   4.532   3.859  0.9763 -2.0238 -0.6106
  160MOL    C4141699   0.610   4.532   3.875  0.2723 -0.5566 -0.1567
  160MOL    C4241700   0.707   4.543   3.984 -0.3354 -0.1135  0.4899
  160MOL    C4341701   0.858   4.513   3.981  0.0656  0.7176  0.0217
  160MOL    C4441702   0.759   4.419   4.045  0.2442 -0.5419  0.2810
  160MOL    C4541703   0.602   4.666   3.790  0.4023  0.5196  0.0478
  160MOL    H4641704   0.640   4.449   3.811  1.7882 -1.5675  1.8207
  160MOL    H4741705   0.687   4.615   4.062  1.7487  0.1783  0.7752
  160MOL    H4841706   0.906   4.493   3.885 -0.7803  0.3913 -0.3353
  160MOL    H4941707   0.929   4.565   4.045 -2.3260  4.2555 -0.1174
  160MOL    H5041708   0.761   4.419   4.154  1.0312  1.4842  0.2847
  160MOL    H5141709   0.745   4.321   4.001 -0.0659  0.8685 -2.8964
  160MOL    H5241710   0.580   4.747   3.859  0.9271 -0.4362  1.3530
  160MOL    H5341711   0.511   4.661   3.730  0.3013  2.1529  0.0440
  160MOL    C5441712   0.706   4.708   3.688  0.2305  0.3260 -0.4853
  160MOL    C5541713   0.701   4.599   3.579  0.7516  0.4093 -0.6413
  160MOL    C5641714   0.775   4.466   3.578 -0.5016 -0.5702  0.8783
  160MOL    C5741715   0.820   4.580   3.486  0.6088  0.2960  0.3065
  160MOL    C5841716   0.689   4.857   3.629 -0.4522 -0.6541  0.4735
  160MOL    H5941717   0.804   4.703   3.736  0.8787  1.2102 -1.6711
  160MOL    H6041718   0.608   4.616   3.524  1.6425 -0.8812 -2.6033
  160MOL    H6141719   0.854   4.457   3.653 -0.1510  0.6594  0.6730
  160MOL    H6241720   0.724   4.377   3.541 -0.4210  0.4619 -1.7924
  160MOL    H6341721   0.801   4.561   3.380  0.8576 -0.6035  0.4212
  160MOL    H6441722   0.910   4.634   3.514  0.1726  0.9521  0.4534
  160MOL    H6541723   0.599   4.856   3.568  1.1046 -1.3745 -1.9066
  160MOL    H6641724   0.667   4.933   3.703 -1.2722  1.6005 -1.9927
  160MOL    C6741725   0.820   4.918   3.550 -0.5921  0.6610 -0.3903
  160MOL    C6841726   0.793   5.069   3.514  0.0138  0.1564  0.3875
  160MOL    C6941727   0.851   5.131   3.394  0.7455 -0.2368 -0.1958
  160MOL    C7041728   0.700   5.101   3.406  0.0936 -1.1598  0.6465
  160MOL    C7141729   0.951   4.905   3.631 -0.0566  0.2023 -0.4969
  160MOL    H7241730   0.830   4.854   3.462 -0.2808  0.2158 -0.0307
  160MOL    H7341731   0.789   5.137   3.600 -0.6571  1.0019 -0.3063
  160MOL    H7441732   0.877   5.236   3.404 -2.4667  0.4829  1.0142
  160MOL    H7541733   0.911   5.072   3.324  0.3848 -1.7982  0.7836
  160MOL    H7641734   0.678   5.031   3.326  0.4828  2.1931 -2.5512
  160MOL    H7741735   0.634   5.186   3.417  0.1699 -0.7106 -1.9056
  160MOL    H7841736   0.957   4.825   3.705 -0.7054  1.6009  1.1145
  160MOL    H7941737   0.949   4.982   3.709 -0.1444 -0.2614 -0.0385
  160MOL    C8041738   1.078   4.920   3.542 -0.1944  0.0838 -0.0556
  160MOL    C8141739   1.117   4.792   3.468 -0.6419  0.6854  0.2289
  160MOL    C8241740   1.214   4.784   3.347  0.0713 -0.4432  0.1960
  160MOL    C8341741   1.064   4.753   3.338  0.1259 -0.1258  0.4750
  160MOL    C8441742   1.202   4.956   3.629  0.1279  0.0560  0.5248
  160MOL    H8541743   1.079   4.999   3.467  0.8080 -1.9328 -2.2125
  160MOL    H8641744   1.102   4.714   3.543 -2.3127  1.3015  0.5364
  160MOL    H8741745   1.287   4.704   3.351  1.9722  1.3152  2.8074
  160MOL    H8841746   1.254   4.876   3.305 -1.6333 -0.2485 -1.0659
  160MOL    H8941747   1.023   4.818   3.262  0.4013 -0.2543  0.2185
  160MOL    H9041748   1.046   4.646   3.328 -0.7109  0.1088 -0.6778
  160MOL    H9141749   1.185   4.899   3.720 -0.5042  0.3861  0.6117
  160MOL    H9241750   1.295   4.915   3.589  0.2550  1.1710 -0.3432
  160MOL    C9341751   1.212   5.102   3.670  0.4678  0.4171 -0.2226
  160MOL    C9441752   1.115   5.141   3.780  0.5923 -0.1335  1.0647
  160MOL    C9541753   1.101   5.290   3.807 -0.5489  0.3955  0.1948
  160MOL    C9641754   0.984   5.214   3.754  0.3167 -0.3577  0.0166
  160MOL    C9741755   1.358   5.126   3.714 -0.8561 -0.2570 -0.3538
  160MOL    H9841756   1.185   5.162   3.583 -0.0118  1.7541  0.8277
  160MOL    H9941757   1.133   5.083   3.870  0.4648 -0.1958  1.0486
  160MOL   H10041758   1.109   5.314   3.913  0.0132  1.9534 -0.1889
  160MOL   H10141759   1.136   5.362   3.733 -1.4939 -0.2652 -0.9067
  160MOL   H10241760   0.900   5.171   3.808 -1.1376  1.2568 -0.8889
  160MOL   H10341761   0.970   5.231   3.648  2.7199 -3.6600 -0.9213
  160MOL   H10441762   1.372   5.054   3.795 -0.7662 -0.1758 -0.2967
  160MOL   H10541763   1.355   5.225   3.760  4.9723 -0.0520 -0.0479
  160MOL   C10641764   1.468   5.144   3.602  0.0198  0.2496  0.2732
  160MOL   C10741765   1.420   5.232   3.488 -0.5449 -0.2897  0.6336
  160MOL   C10841766   1.505   5.239   3.359  0.7961  0.0361  0.4268
  160MOL   C10941767   1.371   5.173   3.353  0.5508 -0.2150  0.1302
  160MOL   C11041768   1.609   5.187   3.660  1.0033  0.9185  0.0279
  160MOL   H11141769   1.490   5.041   3.573 -0.0485 -0.2024  1.8096
  160MOL   H11241770   1.383   5.329   3.523 -0.1122  0.6173 -1.3766
  160MOL   H11341771   1.514   5.332   3.303  1.7395  0.0543  0.5945
  160MOL   H11441772   1.591   5.172   3.363 -0.3455 -1.4283  1.3185
  160MOL   H11541773   1.357   5.066   3.343  0.9045 -0.3769  1.2900
  160MOL   H11641774   1.320   5.234   3.279 -0.5781 -1.6438 -0.2736
  160MOL   H11741775   1.677   5.204   3.576  2.0483 -0.7394  0.4899
  160MOL   H11841776   1.599   5.275   3.722 -0.5189  0.3989  0.5301
  160MOL   C11941777   1.682   5.080   3.745 -0.0231 -0.6514 -0.5354
  160MOL   C12041778   1.747   4.979   3.656 -0.4599 -0.2731  0.3483
  160MOL   C12141779   1.672   4.866   3.595  0.2432  0.2528 -0.1524
  160MOL   C12241780   1.773   4.836   3.694 -0.4707 -0.3530 -0.0492
  160MOL   C12341781   1.789   5.150   3.835 -0.1404 -0.3243  0.3921
  160MOL   H12441782   1.604   5.034   3.806 -1.3076  0.2785 -1.4721
  160MOL   H12541783   1.825   5.025   3.596 -0.8022 -0.9532 -0.6397
  160MOL   H12641784   1.692   4.841   3.491  1.4124  0.8859 -0.0969
  160MOL   H12741785   1.569   4.847   3.621  0.0884 -0.2740 -1.1069
  160MOL   H12841786   1.873   4.803   3.666  0.5206 -0.2879  3.1503
  160MOL   H12941787   1.737   4.808   3.793  0.4160  1.3592  0.7799
  160MOL   H13041788   1.878   5.088   3.844 -1.0264 -2.0293 -2.0409
  160MOL   H13141789   1.823   5.247   3.799 -3.8390  1.6098  1.7709
  160MOL   C13241790   1.736   5.182   3.982 -0.3841  0.2849  0.2611
  160MOL   C13341791   1.642   5.298   3.982  0.2028 -0.4196  0.5779
  160MOL   C13441792   1.567   5.347   4.103  0.2773  0.2103 -0.0192
  160MOL   C13541793   1.494   5.290   3.988  1.2135  0.1981 -0.5490
  160MOL   C13641794   1.858   5.227   4.073 -0.4269  0.4358  0.0040
  160MOL   H13741795   1.679   5.100   4.026  0.4063 -0.2357  0.3265
  160MOL   H13841796   1.678   5.378   3.917 -1.4911  1.3661  1.7892
  160MOL   H13941797   1.569   5.282   4.191 -0.8284 -0.0591 -0.1864
  160MOL   H14041798   1.570   5.453   4.125 -2.2826 -0.2231  2.7273
  160MOL   H14141799   1.442   5.195   3.996 -0.6337  1.3051  1.2014
  160MOL   H14241800   1.441   5.361   3.924  1.7776  1.5808  0.4963
  160MOL   H14341801   1.919   5.310   4.037  0.5568 -0.3890 -0.2555
  160MOL   H14441802   1.828   5.261   4.172 -1.0892 -1.2609  0.3920
  160MOL   C14541803   1.966   5.116   4.102 -0.1589 -0.1027 -0.5744
  160MOL   C14641804   2.084   5.177   4.178 -0.4644 -0.5948 -0.7378
  160MOL   C14741805   2.215   5.115   4.202  0.4778 -0.1245 -0.2997
  160MOL   C14841806   2.204   5.224   4.094  0.2981 -0.0000  0.4158
  160MOL   C14941807   1.908   4.996   4.177  0.0628  0.0835  0.6935
  160MOL   H15041808   2.003   5.078   4.006  2.1200  0.1711  0.1730
  160MOL   H15141809   2.054   5.244   4.257  0.0287 -0.6246 -0.5256
  160MOL   H15241810   2.261   5.150   4.294 -1.8428 -0.0492  0.8834
  160MOL   H15341811   2.236   5.015   4.167 -0.2985 -0.6181  0.5959
  160MOL   H15441812   2.209   5.207   3.987  0.8660 -2.0263  0.7456
  160MOL   H15541813   2.263   5.310   4.124  0.7100 -0.2254  0.2566
  160MOL   H15641814   1.889   5.026   4.280 -1.3402  0.0315  0.4564
  160MOL   H15741815   1.808   4.980   4.137  0.2772  0.4797  0.0045
  160MOL   C15841816   1.985   4.862   4.179  0.3009 -0.1277 -1.0161
  160MOL   C15941817   1.995   4.809   4.035 -0.8065  0.0361 -1.0532
  160MOL   C16041818   2.098   4.845   3.931  0.1130  0.4579 -0.3154
  160MOL   C16141819   2.094   4.703   3.984  0.4809 -0.0402  0.2132
  160MOL   C16241820   1.939   4.760   4.280 -0.1485  0.5555 -0.0201
  160MOL   H16341821   2.084   4.896   4.209  0.4361  0.3820 -2.0092
  160MOL   H16441822   1.897   4.785   3.994 -0.4450 -1.4150 -1.1050
  160MOL   H16541823   2.192   4.894   3.956  0.4591 -0.6097  0.5610
  160MOL   H16641824   2.060   4.867   3.832  1.6784  1.2341 -0.7611
  160MOL   H16741825   2.059   4.629   3.913 -0.2090  0.5271 -0.0418
  160MOL   H16841826   2.169   4.668   4.054  1.6119  2.5309  0.3771
  160MOL   H16941827   1.997   4.674   4.248 -1.6827  0.2567 -2.0514
  160MOL   H17041828   1.837   4.736   4.253  0.0935 -1.7862  1.0132
  160MOL   C17141829   1.964   4.778   4.434 -0.1763 -0.4143  0.0299
  160MOL   C17241830   1.876   4.695   4.525  0.0919  0.1830  0.3385
  160MOL   C17341831   1.803   4.754   4.643 -0.3345  0.1772  0.1417
  160MOL   C17441832   1.726   4.726   4.524  0.0508  0.0931  0.6076
  160MOL   C17541833   2.107   4.757   4.482 -0.6030  0.4466  0.3162
  160MOL   H17641834   1.934   4.881   4.452  0.5666 -0.0716 -0.6552
  160MOL   H17741835   1.906   4.592   4.541  2.0320  0.7236  0.3415
  160MOL   H17841836   1.776   4.691   4.727  0.3355  0.0876  0.2876
  160MOL   H17941837   1.826   4.859   4.660 -1.5316  0.8060 -1.9297
  160MOL   H18041838   1.689   4.808   4.463 -1.5047  0.4286  1.9711
  160MOL   H18141839   1.655   4.644   4.528  1.1384 -0.8847  0.3111
  160MOL   H18241840   2.161   4.707   4.402  0.6810  2.3023 -0.0009
  160MOL   H18341841   2.110   4.687   4.566 -0.0774 -1.3367 -1.1590
  160MOL   C18441842   2.185   4.887   4.517  0.3834  0.5205  0.6049
  160MOL   C18541843   2.335   4.887   4.489 -0.1037 -0.4969 -0.4867
  160MOL   C18641844   2.406   4.809   4.381  0.1125  0.2413  0.1301
  160MOL   C18741845   2.415   4.761   4.524  0.5225 -1.1696 -0.2112
  160MOL   C18841846   2.146   4.946   4.655 -0.4800  0.2860  0.3282
  160MOL   H18941847   2.150   4.957   4.441  0.4525 -1.3653 -1.2256
  160MOL   H19041848   2.381   4.986   4.485 -1.6544  0.2535 -0.1576
  160MOL   H19141849   2.495   4.858   4.341  0.0778  0.6372  0.5391
  160MOL   H19241850   2.352   4.753   4.304 -0.9087  2.8685 -1.1224
  160MOL   H19341851   2.513   4.767   4.571  0.7239 -0.0997 -0.7511
  160MOL   H19441852   2.360   4.668   4.536  0.7062 -1.2006  0.3629
  160MOL   H19541853   2.220   4.912   4.727  0.1415  1.7568  0.3871
  160MOL   H19641854   2.062   4.885   4.690  0.6782 -0.8829  1.1321
  160MOL   C19741855   2.121   5.101   4.666 -0.7430 -0.0879 -0.4949
  160MOL   C19841856   1.995   5.141   4.597  0.1689  0.7382  0.5723
  160MOL   C19941857   1.903   5.255   4.648 -0.8817  0.4796 -0.5700
  160MOL   C20041858   1.860   5.107   4.641  0.1114  0.6156  0.2742
  160MOL   C20141859   2.241   5.190   4.622  0.4548 -0.0647  0.2489
  160MOL   H20241860   2.086   5.114   4.769  0.2216  2.2666 -0.4452
  160MOL   H20341861   2.008   5.136   4.489  0.6907 -1.1767  0.7055
  160MOL   H20441862   1.927   5.304   4.742 -2.9456 -1.2793  0.9219
  160MOL   H20541863   1.840   5.320   4.588  0.0846  0.7542 -1.3074
  160MOL   H20641864   1.854   5.062   4.740  2.0791 -2.0645 -0.7473
  160MOL   H20741865   1.783   5.086   4.567 -1.3449  0.8397  1.7066
  160MOL   H20841866   2.258   5.158   4.519  0.6304  1.7741 -0.3081
  160MOL   H20941867   2.221   5.297   4.620 -3.5705 -0.7423  1.2176
  160MOL   C21041868   2.370   5.188   4.708  0.1223  0.3006 -0.2006
  160MOL   C21141869   2.461   5.293   4.650 -0.2898  0.7355 -0.2234
  160MOL   C21241870   2.609   5.282   4.653  0.9526  1.0365  0.2299
  160MOL   C21341871   2.534   5.284   4.522  0.3178 -0.3566  0.4048
  160MOL   C21441872   2.360   5.227   4.855 -0.4875  0.0243  0.0731
  160MOL   H21541873   2.423   5.094   4.689  0.9393  0.6555  0.3007
  160MOL   H21641874   2.435   5.398   4.664 -0.0687  0.8206 -0.4472
  160MOL   H21741875   2.652   5.371   4.697 -1.5003  2.5790 -0.4124
  160MOL   H21841876   2.646   5.184   4.684 -1.9389 -0.7602 -1.6823
  160MOL   H21941877   2.532   5.375   4.463  1.3065  0.5540  1.7404
  160MOL   H22041878   2.547   5.188   4.472 -0.3902 -0.7783  1.0267
  160MOL   H22141879   2.364   5.336   4.857  1.6462  0.0287 -1.9970
  160MOL   H22241880   2.261   5.190   4.880 -0.0939 -2.0377 -1.2660
  160MOL   C22341881   2.451   5.161   4.955 -0.5341  0.1324 -0.6968
  160MOL   C22441882   2.414   5.012   4.973 -0.1489 -0.7803  0.0117
  160MOL   C22541883   2.469   4.895   4.891  0.3553 -0.3049 -0.5692
  160MOL   C22641884   2.506   4.910   5.042  0.3057  0.1561 -0.2096
  160MOL   C22741885   2.440   5.239   5.097 -0.5071 -0.5797 -0.2187
  160MOL   H22841886   2.557   5.165   4.930  0.2330  0.0802  2.2657
  160MOL   H22941887   2.317   5.006   5.022  0.4430  0.8838  1.4187
  160MOL   H23041888   2.560   4.897   4.832  0.7242 -0.4655 -0.0070
  160MOL   H23141889   2.402   4.811   4.873 -3.5200  2.7239 -0.9501
  160MOL   H23241890   2.464   4.842   5.115  0.7840 -1.4874 -1.4224
  160MOL   H23341891   2.602   4.953   5.070 -0.1972  2.1572 -1.3931
  160MOL   H23441892   2.335   5.268   5.107  0.0921  0.9993  1.6014
  160MOL   H23541893   2.458   5.170   5.179 -0.9725  0.5396  0.8411
  160MOL   C23641894   2.549   5.349   5.111 -0.5610 -0.1938  0.1148
  160MOL   C23741895   2.688   5.290   5.146 -0.2075  0.3261 -0.1063
  160MOL   C23841896   2.792   5.248   5.044 -0.3064  0.1408 -0.5129
  160MOL   C23941897   2.818   5.358   5.144 -0.3432 -0.0242  0.5497
  160MOL   C24041898   2.503   5.465   5.201 -0.0291  0.3211  0.0340
  160MOL   H24141899   2.561   5.396   5.013  1.1203 -1.1163 -0.1526
  160MOL   H24241900   2.672   5.229   5.234  0.3361 -1.6245 -1.3182
  160MOL   H24341901   2.851   5.161   5.075  0.1851  0.8090  0.4367
  160MOL   H24441902   2.786   5.275   4.939  2.1425 -2.2185 -1.3514
  160MOL   H24541903   2.813   5.460   5.107 -0.8437 -0.5543 -0.8703
  160MOL   H24641904   2.892   5.340   5.222 -0.0829  0.1286  0.3375
  160MOL   H24741905   2.412   5.441   5.256 -1.1069  0.6768 -1.5927
  160MOL   H24841906   2.578   5.473   5.280  2.0280 -0.9654 -1.7236
  160MOL   C24941907   2.505   5.607   5.141 -0.7264  0.3124 -0.4898
  160MOL   C25041908   2.477   5.701   5.262 -0.6473 -1.1311  0.2395
  160MOL   C25141909   2.586   5.751   5.357  0.1061  0.2433  0.3092
  160MOL   C25241910   2.512   5.845   5.268 -1.0267  0.2990  0.4219
  160MOL   C25341911   2.418   5.628   5.018  0.8864  0.4254 -0.1931
  160MOL   H25441912   2.607   5.627   5.107  0.0176 -0.1656  1.3762
  160MOL   H25541913   2.379   5.680   5.303 -0.5468 -2.0555  0.0079
  160MOL   H25641914   2.549   5.747   5.460 -0.6321 -2.5135 -0.0140
  160MOL   H25741915   2.685   5.708   5.347 -0.3933 -0.7913 -0.2694
  160MOL   H25841916   2.422   5.894   5.304 -1.7685  0.0870 -1.0836
  160MOL   H25941917   2.555   5.882   5.175  0.9672 -0.8260  0.8678
  160MOL   H26041918   2.314   5.625   5.049  0.5422  0.8425 -1.2770
  160MOL   H26141919   2.426   5.550   4.942 -2.2450  1.4991 -1.7040
  160MOL   H26241920   2.421   5.726   4.969  0.6242  0.3552 -0.3486
  161MOL     C141921   4.743   5.012   1.772 -0.8649 -0.0196  0.0403
  161MOL     C241922   4.745   4.977   1.918 -0.3091  0.6018  0.2840
  161MOL     C341923   4.747   5.090   2.023 -0.5446 -0.4955  0.0744
  161MOL     C441924   4.868   4.998   2.012  0.3961 -0.0225  0.4350
  161MOL     C541925   4.611   5.002   1.702  0.5467 -0.4603  0.1132
  161MOL     H641926   4.800   5.104   1.761 -1.7114  0.6476  1.1359
  161MOL     H741927   4.691   4.886   1.943  1.9695 -1.1268 -0.9048
  161MOL     H841928   4.745   5.184   1.968  0.7507  0.1240  1.0699
  161MOL     H941929   4.687   5.079   2.114  0.0663  1.0406  0.6754
  161MOL    H1041930   4.901   4.922   2.082  1.3932 -2.2020 -2.2759
  161MOL    H1141931   4.954   5.031   1.954 -0.9194  0.6248 -1.2131
  161MOL    H1241932   4.538   5.070   1.747 -1.2215 -0.8654 -2.0341
  161MOL    H1341933   4.581   4.898   1.717  3.1491 -1.2117  0.2635
  161MOL    H1441934   4.790   4.925   1.725  1.8369  0.5213  1.6362
  161MOL    C1541935   4.617   5.045   1.556  0.0938  0.3257 -0.1769
  161MOL    C1641936   4.677   5.188   1.535  0.3857 -0.6995  0.4138
  161MOL    C1741937   4.607   5.319   1.578  0.3801 -0.2591 -0.0102
  161MOL    C1841938   4.617   5.282   1.429  0.5809  0.1363  0.3923
  161MOL    C1941939   4.688   4.943   1.463  1.1149  0.3089 -0.2457
  161MOL    H2041940   4.515   5.057   1.520  0.2377 -1.0039 -1.0786
  161MOL    H2141941   4.786   5.180   1.539  0.3174 -1.4368  0.9211
  161MOL    H2241942   4.657   5.414   1.594 -0.7243  0.4609 -0.8501
  161MOL    H2341943   4.506   5.309   1.617  0.7142 -0.3733  0.8363
  161MOL    H2441944   4.520   5.271   1.382  0.9045 -0.2781 -0.1951
  161MOL    H2541945   4.691   5.333   1.367 -0.0850 -0.0026 -0.5173
  161MOL    H2641946   4.647   4.850   1.503  0.2507  0.8572  0.1580
  161MOL    H2741947   4.791   4.928   1.494  1.0875  1.2894  0.3361
  161MOL    C2841948   4.656   4.954   1.313  0.5211 -0.6880 -0.3174
  161MOL    C2941949   4.511   4.911   1.283  0.1427  0.0611  0.6856
  161MOL    C3041950   4.390   5.008   1.267  0.9624 -0.1580 -0.3696
  161MOL    C3141951   4.465   4.957   1.146 -0.5412 -0.2895  0.1039
  161MOL    C3241952   4.758   4.873   1.229  0.3859 -0.1810 -0.0746
  161MOL    H3341953   4.670   5.061   1.295  1.7571 -0.7988 -0.0874
  161MOL    H3441954   4.485   4.812   1.320 -0.8619  0.9485  2.4890
  161MOL    H3541955   4.405   5.110   1.299  3.6412 -0.6904  0.1994
  161MOL    H3641956   4.286   4.978   1.279  0.9032  0.2554  0.1502
  161MOL    H3741957   4.517   5.032   1.089  1.9835 -0.2073  2.3924
  161MOL    H3841958   4.409   4.887   1.084 -1.8932  2.2434 -1.5837
  161MOL    H3941959   4.732   4.892   1.125 -2.3664  0.3878  0.6744
  161MOL    H4041960   4.736   4.766   1.237 -1.3789  0.0884 -1.0831
  161MOL    C4141961   4.907   4.895   1.236 -0.4770 -0.3017 -0.2125
  161MOL    C4241962   4.937   5.047   1.206  0.4184  0.2833  0.0237
  161MOL    C4341963   5.081   5.088   1.217  0.0989 -0.4910 -0.2685
  161MOL    C4441964   4.983   5.134   1.319 -0.2594  0.1700 -0.4705
  161MOL    C4541965   4.983   4.798   1.145 -0.0652  0.2192  0.3369
  161MOL    H4641966   4.944   4.889   1.338 -0.9713 -0.6831 -0.0489
  161MOL    H4741967   4.870   5.095   1.135  1.0618 -1.1339 -1.5839
  161MOL    H4841968   5.149   5.011   1.252 -1.1285  0.5717  4.8672
  161MOL    H4941969   5.107   5.156   1.136  0.3719  0.5041  0.6546
  161MOL    H5041970   4.955   5.239   1.306 -0.1562  0.1086 -1.2235
  161MOL    H5141971   5.002   5.101   1.420  1.5312  1.5072 -0.3292
  161MOL    H5241972   5.082   4.838   1.124  0.4238 -0.2786  1.6451
  161MOL    H5341973   4.930   4.805   1.050  0.3692  2.0607  0.2121
  161MOL    C5441974   5.004   4.647   1.178  0.3196  0.1379 -0.3663
  161MOL    C5541975   5.091   4.580   1.071 -0.1075 -0.6870  0.0926
  161MOL    C5641976   5.039   4.559   0.932  0.3052 -0.3613  0.5549
  161MOL    C5741977   5.056   4.441   1.023  0.1200  0.2642 -0.2576
  161MOL    C5841978   5.080   4.625   1.307  0.1805  0.0427 -0.3402
  161MOL    H5941979   4.910   4.594   1.195  1.0410 -0.2162  2.9257
  161MOL    H6041980   5.198   4.600   1.079 -1.0252  4.3151  1.4020
  161MOL    H6141981   4.935   4.585   0.918  0.8401  1.0468 -0.9906
  161MOL    H6241982   5.109   4.574   0.850 -0.6523  2.8550  0.2676
  161MOL    H6341983   5.133   4.370   0.994  0.8415  0.3299  1.4377
  161MOL    H6441984   4.968   4.392   1.065 -1.8969  3.0376 -1.1040
  161MOL    H6541985   5.181   4.655   1.280  0.5635 -0.3845  0.6034
  161MOL    H6641986   5.026   4.690   1.375  0.1466  0.5838 -0.8755
  161MOL    C6741987   5.087   4.485   1.371  0.9304  0.2556 -0.1701
  161MOL    C6841988   5.235   4.438   1.390  0.7294  0.5457 -0.3647
  161MOL    C6941989   5.290   4.296   1.384  0.0979  0.3996  0.5278
  161MOL    C7041990   5.327   4.401   1.276 -0.6270 -0.8506  0.0936
  161MOL    C7141991   5.008   4.463   1.501  0.0949  0.2466  0.4926
  161MOL    H7241992   5.055   4.422   1.288  0.5002 -1.9576  1.6215
  161MOL    H7341993   5.281   4.502   1.465 -3.0168  1.7823  0.9793
  161MOL    H7441994   5.359   4.264   1.461 -0.0691 -1.5984 -0.1254
  161MOL    H7541995   5.230   4.221   1.332  0.0461  2.2607 -2.1572
  161MOL    H7641996   5.289   4.385   1.175  0.4284  2.4070 -0.8595
  161MOL    H7741997   5.432   4.428   1.282 -0.5597 -0.5931 -1.8060
  161MOL    H7841998   5.032   4.547   1.566 -1.5925  0.0499  1.4146
  161MOL    H7941999   5.053   4.382   1.558  0.4201 -0.4392 -0.7293
  161MOL    C8042000   4.856   4.447   1.500  0.0192 -0.4174 -0.2627
  161MOL    C8142001   4.797   4.480   1.634  0.4226  0.2901  0.0116
  161MOL    C8242002   4.648   4.505   1.673  0.4977 -0.8810 -0.4286
  161MOL    C8342003   4.752   4.621   1.672 -1.0589  0.3181  0.0030
  161MOL    C8442004   4.829   4.305   1.458  0.7882 -0.1056 -0.2301
  161MOL    H8542005   4.816   4.507   1.419  0.9297  0.2612 -0.2184
  161MOL    H8642006   4.856   4.438   1.716  1.8976  2.3573  0.0325
  161MOL    H8742007   4.623   4.449   1.763  1.8125  0.9782  1.1389
  161MOL    H8842008   4.578   4.505   1.591  1.0445 -1.0574 -0.8967
  161MOL    H8942009   4.765   4.691   1.590  0.4706 -0.7373 -0.6767
  161MOL    H9042010   4.802   4.652   1.763 -0.3302  0.4243 -0.4372
  161MOL    H9142011   4.903   4.282   1.382  0.6487  2.1292 -1.0732
  161MOL    H9242012   4.839   4.242   1.547 -0.6800  0.6110  0.4528
  161MOL    C9342013   4.691   4.282   1.389 -0.3564 -0.3123 -0.2834
  161MOL    C9442014   4.682   4.360   1.258  1.2712  0.0556  0.0209
  161MOL    C9542015   4.542   4.370   1.203  0.4067 -1.0599 -0.0673
  161MOL    C9642016   4.615   4.495   1.238  0.1451 -0.5304 -0.3384
  161MOL    C9742017   4.642   4.131   1.361  0.5356 -0.1315  0.5107
  161MOL    H9842018   4.613   4.325   1.451 -0.3431 -3.3842  1.9846
  161MOL    H9942019   4.756   4.329   1.184  1.3975  1.6099 -0.5235
  161MOL   H10042020   4.525   4.360   1.096  1.1686  1.2990 -0.4469
  161MOL   H10142021   4.457   4.342   1.264 -1.7193  1.4698 -1.7673
  161MOL   H10242022   4.653   4.563   1.161  0.4290 -0.2008  0.0935
  161MOL   H10342023   4.581   4.550   1.325 -0.2971  0.1725 -0.9390
  161MOL   H10442024   4.534   4.145   1.353  0.2933 -1.9278  0.5490
  161MOL   H10542025   4.660   4.069   1.449  0.6349 -0.0711  0.5333
  161MOL   C10642026   4.699   4.046   1.250  0.6014  0.3192 -0.2446
  161MOL   C10742027   4.851   4.012   1.280  0.2392 -0.0231 -0.0297
  161MOL   C10842028   4.925   3.913   1.191  0.8259 -0.4319 -0.2525
  161MOL   C10942029   4.967   4.062   1.189 -0.3579 -0.2177 -0.2565
  161MOL   C11042030   4.625   3.911   1.233 -0.1368  0.4057 -0.0594
  161MOL   H11142031   4.690   4.102   1.157  1.5212  1.5152  0.3752
  161MOL   H11242032   4.879   4.011   1.385  0.4142 -1.3164 -0.0862
  161MOL   H11342033   4.987   3.839   1.242  0.9164  1.0560  1.8587
  161MOL   H11442034   4.880   3.874   1.099  1.5232 -0.7530 -0.4607
  161MOL   H11542035   4.940   4.133   1.111  1.1329 -0.1336 -0.7009
  161MOL   H11642036   5.055   4.090   1.247 -2.8856  0.0569  3.6313
  161MOL   H11742037   4.686   3.825   1.262 -0.5405  0.5690  1.3166
  161MOL   H11842038   4.535   3.892   1.291 -0.6530 -1.1204 -1.3268
  161MOL   C11942039   4.578   3.881   1.085 -0.6297  0.5030 -0.2312
  161MOL   C12042040   4.525   3.737   1.073 -0.2212 -0.1839 -0.3229
  161MOL   C12142041   4.622   3.621   1.080  0.7385 -0.1717 -0.1796
  161MOL   C12242042   4.552   3.648   0.954 -0.1676  0.4068  0.5046
  161MOL   C12342043   4.473   3.976   1.028  0.1179 -0.3552  0.0767
  161MOL   H12442044   4.668   3.896   1.025  0.2407 -0.1658  0.8940
  161MOL   H12542045   4.446   3.713   1.143 -0.9912 -3.2973 -2.1635
  161MOL   H12642046   4.587   3.533   1.135  0.8248  0.3917  0.7820
  161MOL   H12742047   4.728   3.642   1.086  0.7926 -0.2989 -0.6548
  161MOL   H12842048   4.612   3.694   0.876  1.3630 -1.5279  0.5130
  161MOL   H12942049   4.468   3.590   0.917  0.0124  0.5981 -0.2105
  161MOL   H13042050   4.373   3.942   1.055  0.5454  0.3506  2.6943
  161MOL   H13142051   4.471   4.074   1.077 -0.7067 -0.5375  0.4198
  161MOL   C13242052   4.486   4.017   0.882 -0.2841  0.1826  0.1068
  161MOL   C13342053   4.585   4.129   0.860 -0.1992 -0.3440 -0.4407
  161MOL   C13442054   4.663   4.151   0.731 -0.6356  0.4835  0.3378
  161MOL   C13542055   4.729   4.105   0.862  0.0942  0.0348  0.3086
  161MOL   C13642056   4.350   4.045   0.805 -0.3307  1.0798 -0.2940
  161MOL   H13742057   4.527   3.928   0.834 -0.7046 -0.4100  0.8409
  161MOL   H13842058   4.559   4.223   0.907  0.3849 -0.5842  0.3584
  161MOL   H13942059   4.665   4.077   0.651 -1.6413  0.2376  0.5297
  161MOL   H14042060   4.660   4.255   0.699 -0.1418  0.1493 -0.8311
  161MOL   H14142061   4.751   3.998   0.858 -0.4978 -0.2269  2.8306
  161MOL   H14242062   4.785   4.171   0.928  0.4406 -2.5173  2.6620
  161MOL   H14342063   4.294   4.105   0.877 -2.4028 -0.7400 -0.3383
  161MOL   H14442064   4.378   4.111   0.723  0.9982  1.5282  0.5145
  161MOL   C14542065   4.259   3.921   0.773 -0.4757 -0.5287 -0.1924
  161MOL   C14642066   4.113   3.955   0.770  0.0726  0.3026  0.6257
  161MOL   C14742067   4.006   3.853   0.789  0.4197 -0.5557 -0.5124
  161MOL   C14842068   4.018   3.968   0.883 -0.1567 -0.2538  0.1855
  161MOL   C14942069   4.309   3.822   0.661  0.8186  0.0422 -0.2428
  161MOL   H15042070   4.268   3.857   0.861  2.1816 -0.8173 -0.6230
  161MOL   H15142071   4.104   4.034   0.695 -1.4120 -0.1797  0.2725
  161MOL   H15242072   3.930   3.860   0.711  0.2659 -0.1161 -0.3248
  161MOL   H15342073   4.026   3.750   0.819 -0.8910 -0.3029  1.3129
  161MOL   H15442074   4.040   3.946   0.988 -0.2904  0.3270  0.3364
  161MOL   H15542075   3.940   4.043   0.877  2.0081  2.1445  0.8744
  161MOL   H15642076   4.418   3.820   0.668  0.8642  1.9233 -0.1375
  161MOL   H15742077   4.274   3.723   0.690 -1.4441  0.5763 -1.0457
  161MOL   C15842078   4.261   3.855   0.516 -0.0407 -0.3643  0.2073
  161MOL   C15942079   4.273   3.743   0.414 -1.1725 -0.7685 -0.3799
  161MOL   C16042080   4.211   3.607   0.444  0.0813 -0.9043 -0.3438
  161MOL   C16142081   4.164   3.695   0.329 -0.1943  0.0651 -0.1572
  161MOL   C16242082   4.320   3.985   0.455 -0.2745  0.0304 -0.3442
  161MOL   H16342083   4.157   3.871   0.545  0.0034 -0.4816  0.4331
  161MOL   H16442084   4.372   3.742   0.369 -0.9825  0.8134 -0.0358
  161MOL   H16542085   4.141   3.594   0.526  1.7814 -0.5719  1.1639
  161MOL   H16642086   4.262   3.516   0.413 -0.0422 -0.6922 -1.1966
  161MOL   H16742087   4.182   3.655   0.229 -0.7756  1.8737 -1.0054
  161MOL   H16842088   4.067   3.744   0.327 -0.1587  0.1042 -2.1975
  161MOL   H16942089   4.423   3.985   0.419  0.1160 -1.5984  0.6983
  161MOL   H17042090   4.334   4.052   0.540 -3.0192  0.4887 -0.2054
  161MOL   C17142091   4.235   4.059   0.350 -0.1104 -0.3768 -0.6849
  161MOL   C17242092   4.128   4.148   0.414 -0.5256  0.5665  0.1464
  161MOL   C17342093   3.994   4.164   0.337 -0.3128 -0.6365 -0.1759
  161MOL   C17442094   3.997   4.081   0.457  0.0404  0.0166  0.3664
  161MOL   C17542095   4.320   4.149   0.257  0.3357 -0.1873  0.6944
  161MOL   H17642096   4.198   3.977   0.288 -0.9268  0.4198 -1.2680
  161MOL   H17742097   4.165   4.234   0.470  1.1603 -1.0754  1.6358
  161MOL   H17842098   3.947   4.262   0.333 -0.5679 -0.6884  1.2798
  161MOL   H17942099   3.998   4.111   0.243 -1.4950 -2.4551  0.7683
  161MOL   H18042100   3.984   3.973   0.451  0.5008  0.0191 -0.8374
  161MOL   H18142101   3.946   4.123   0.544 -1.4782 -1.3089  0.1444
  161MOL   H18242102   4.419   4.104   0.252  0.4752  0.2554 -0.8613
  161MOL   H18342103   4.333   4.240   0.315 -1.4669  1.2089 -1.0094
  161MOL   C18442104   4.269   4.187   0.115  0.0045  0.1555  0.0418
  161MOL   C18542105   4.265   4.061   0.029  0.4225  0.1295 -0.2611
  161MOL   C18642106   4.204   4.056   7.728 -0.2069  0.1842 -0.2529
  161MOL   C18742107   4.137   3.984   0.003  0.0376  0.3253 -0.2600
  161MOL   C18842108   4.350   4.304   0.040 -0.7843  0.3980  0.8542
  161MOL   H18942109   4.167   4.226   0.124 -0.3525 -1.1482  1.7862
  161MOL   H19042110   4.352   4.001   0.049 -0.0469 -0.0481  1.3247
  161MOL   H19142111   4.255   3.996   7.653 -1.7798  0.4975 -1.6065
  161MOL   H19242112   4.171   4.152   7.689  2.0644 -0.3583 -3.7497
  161MOL   H19342113   4.133   3.875   0.004 -1.3382  0.3259 -2.4239
  161MOL   H19442114   4.041   4.029   0.027 -0.2520  0.2316 -1.2029
  161MOL   H19542115   4.306   4.324   7.782  0.4129  2.4866  0.7013
  161MOL   H19642116   4.452   4.273   0.018 -0.7662  1.2729 -0.3472
  161MOL   C19742117   4.352   4.450   0.106  0.5220 -0.1357 -0.0652
  161MOL   C19842118   4.212   4.496   0.128  0.5844 -0.1308  0.4203
  161MOL   C19942119   4.173   4.623   0.205  0.5137  0.0652 -0.3804
  161MOL   C20042120   4.147   4.490   0.271  0.3546 -1.2569 -0.3799
  161MOL   C20142121   4.419   4.555   0.021 -0.0537 -0.3978  0.5522
  161MOL   H20242122   4.403   4.436   0.202  0.1030 -0.1615  0.1569
  161MOL   H20342123   4.142   4.469   0.049 -0.1553  1.5839  0.4712
  161MOL   H20442124   4.238   4.682   0.269  1.5893  0.6127 -1.9407
  161MOL   H20542125   4.078   4.666   0.173  1.0762  0.7344 -1.1947
  161MOL   H20642126   4.209   4.439   0.344 -0.6355 -2.2094 -0.1881
  161MOL   H20742127   4.043   4.459   0.276 -0.0571 -0.0473 -1.1418
  161MOL   H20842128   4.367   4.545   7.765  0.9908 -0.9737  0.0345
  161MOL   H20942129   4.391   4.654   0.054 -3.0250 -0.7773 -0.6694
  161MOL   C21042130   4.571   4.538   0.002 -0.4451 -0.2790  0.1510
  161MOL   C21142131   4.626   4.641   7.743  0.3503  0.4995  0.2003
  161MOL   C21242132   4.735   4.595   7.654 -0.6986  0.5631  0.6405
  161MOL   C21342133   4.608   4.639   7.591  0.5390  0.6070 -0.1259
  161MOL   C21442134   4.654   4.554   0.129  1.0118 -0.5638  0.0866
  161MOL   H21542135   4.584   4.439   7.798  1.1600 -0.7525  1.6794
  161MOL   H21642136   4.654   4.733   7.793  0.2799  1.2800 -1.1803
  161MOL   H21742137   4.827   4.653   7.650  1.2886 -2.4898  0.6519
  161MOL   H21842138   4.759   4.489   7.646  0.8597  0.9609 -0.1235
  161MOL   H21942139   4.608   4.738   7.545  0.3909  1.5640  1.8760
  161MOL   H22042140   4.538   4.565   7.553  1.0011  0.4398 -0.6469
  161MOL   H22142141   4.745   4.608   0.107 -0.3369  2.5065  1.8155
  161MOL   H22242142   4.604   4.614   0.205 -0.4405  0.7808 -1.8583
  161MOL   C22342143   4.701   4.421   0.192 -0.4471  0.3032  0.4470
  161MOL   C22442144   4.746   4.453   0.336 -0.6524 -0.0411  0.4795
  161MOL   C22542145   4.640   4.455   0.441 -0.1664 -0.4974  0.3952
  161MOL   C22642146   4.739   4.343   0.443 -0.2668  0.2995 -0.1223
  161MOL   C22742147   4.811   4.361   0.106 -0.5437 -0.0118  0.3589
  161MOL   H22842148   4.619   4.349   0.201  1.2373 -1.8077 -0.5639
  161MOL   H22942149   4.824   4.529   0.341 -0.2564 -0.4672  0.8266
  161MOL   H23042150   4.539   4.427   0.410  0.6482 -1.6228 -1.3441
  161MOL   H23142151   4.648   4.534   0.515 -0.9197  0.5978 -0.6634
  161MOL   H23242152   4.824   4.345   0.512 -1.6147 -1.6268  1.6606
  161MOL   H23342153   4.726   4.243   0.404 -1.3355  0.2886  0.2559
  161MOL   H23442154   4.765   4.355   0.007 -0.3029 -2.4228  0.3563
  161MOL   H23542155   4.898   4.426   0.106 -0.8827  0.4662 -1.0128
  161MOL   C23642156   4.855   4.217   0.142  0.2807  0.5848  0.4396
  161MOL   C23742157   4.966   4.182   0.042  0.0001 -0.0856  0.5326
  161MOL   C23842158   5.104   4.241   0.066  0.2871  0.3405 -0.0646
  161MOL   C23942159   5.083   4.088   0.074 -0.8252  0.0335  0.2053
  161MOL   C24042160   4.735   4.118   0.137  0.7667  0.4689  0.4431
  161MOL   H24142161   4.900   4.230   0.241 -0.1505  0.7768  0.6152
  161MOL   H24242162   4.933   4.184   7.778  0.0057 -1.3353  0.4950
  161MOL   H24342163   5.150   4.288   7.819  1.8544  0.0996  0.6344
  161MOL   H24442164   5.125   4.299   0.155  0.2918  0.6367 -0.2593
  161MOL   H24542165   5.083   4.041   0.172  0.0866 -0.4538 -0.0220
  161MOL   H24642166   5.118   4.027   7.830  0.5985 -0.9677  1.5121
  161MOL   H24742167   4.658   4.157   0.204  0.8117  0.3360  0.5725
  161MOL   H24842168   4.703   4.113   0.033  2.8445 -1.5735 -0.1488
  161MOL   C24942169   4.762   3.976   0.193  0.3204 -0.7182 -0.3190
  161MOL   C25042170   4.642   3.887   0.184 -0.3489 -0.0792  0.1786
  161MOL   C25142171   4.604   3.801   0.062 -0.2464  0.8580  0.4740
  161MOL   C25242172   4.655   3.738   0.191  0.6467  1.3216 -0.0335
  161MOL   C25342173   4.824   3.969   0.334  0.0208 -0.7484  0.1169
  161MOL   H25442174   4.838   3.948   0.119  0.1625  0.9393 -1.1269
  161MOL   H25542175   4.560   3.928   0.243 -1.3159  0.2826 -1.3862
  161MOL   H25642176   4.503   3.780   0.028  0.2396  0.0664 -0.5014
  161MOL   H25742177   4.673   3.810   7.818 -0.4543  0.5645  0.2683
  161MOL   H25842178   4.585   3.679   0.251 -0.1784  2.3112 -0.0128
  161MOL   H25942179   4.757   3.701   0.187  0.3773  0.3197  1.9051
  161MOL   H26042180   4.757   3.997   0.415 -0.4227  1.5810 -1.0279
  161MOL   H26142181   4.913   4.031   0.335 -0.8399  0.6744 -3.1587
  161MOL   H26242182   4.852   3.866   0.356  3.4283 -0.0367 -0.6579
  162MOL     C142183   1.899   3.014   5.446  0.8418 -0.8891  0.0188
  162MOL     C242184   1.933   3.010   5.595 -0.4343  0.3392 -1.1757
  162MOL     C342185   2.064   3.070   5.655 -0.4788  0.3435 -0.7288
  162MOL     C442186   2.042   2.917   5.652  0.4135  0.0268 -0.6361
  162MOL     C542187   1.771   2.922   5.423  0.2116  0.1515  0.3256
  162MOL     H642188   1.880   3.118   5.420  2.3364 -0.4944  0.4240
  162MOL     H742189   1.853   3.039   5.663  0.5366 -0.3954  0.3178
  162MOL     H842190   2.125   3.117   5.578  0.3150  0.4588 -0.0279
  162MOL     H942191   2.059   3.100   5.759  0.2749 -4.4159  0.7747
  162MOL    H1042192   2.016   2.872   5.747 -1.8380 -1.8166 -2.0557
  162MOL    H1142193   2.092   2.851   5.582 -0.3350 -1.2622  0.0327
  162MOL    H1242194   1.685   2.944   5.486  0.4673 -1.1888  1.1806
  162MOL    H1342195   1.782   2.817   5.452 -0.3416 -0.6601 -2.2479
  162MOL    H1442196   1.977   2.974   5.381  0.5681 -1.0462 -0.2115
  162MOL    C1542197   1.717   2.901   5.278  0.5837  0.0941  0.0603
  162MOL    C1642198   1.642   3.028   5.238 -0.3011  0.5277 -0.1545
  162MOL    C1742199   1.495   3.048   5.245 -0.0376 -0.3728  0.0067
  162MOL    C1842200   1.561   3.039   5.113 -0.3642 -0.2485  0.5157
  162MOL    C1942201   1.824   2.859   5.166 -0.3773  0.9014  0.8855
  162MOL    H2042202   1.634   2.830   5.287  2.9491 -3.2812 -2.9998
  162MOL    H2142203   1.704   3.114   5.261  1.9247 -0.8964 -0.7098
  162MOL    H2242204   1.455   3.143   5.279 -0.3999  0.0519 -1.5651
  162MOL    H2342205   1.431   2.961   5.261  3.0671 -2.5262  1.2074
  162MOL    H2442206   1.537   2.951   5.054 -1.9524  0.5361 -0.0390
  162MOL    H2542207   1.561   3.132   5.056  1.7556 -0.2318  0.5055
  162MOL    H2642208   1.908   2.928   5.164  1.3142 -1.1090  0.4444
  162MOL    H2742209   1.771   2.856   5.071  0.5613 -0.5057  0.3851
  162MOL    C2842210   1.900   2.726   5.193 -0.2328  1.1783 -0.7058
  162MOL    C2942211   2.022   2.719   5.107 -0.6857 -0.4828  0.2656
  162MOL    C3042212   2.149   2.807   5.129 -0.5037  0.4659 -0.4629
  162MOL    C3142213   2.155   2.654   5.141 -0.2319  0.6165 -0.6864
  162MOL    C3242214   1.812   2.607   5.168  0.3663 -0.0361 -0.0404
  162MOL    H3342215   1.920   2.724   5.300 -3.0343  1.4375 -0.1297
  162MOL    H3442216   1.990   2.712   5.004  1.0480  0.8226 -0.4035
  162MOL    H3542217   2.157   2.865   5.220 -0.3281 -0.1211 -0.1066
  162MOL    H3642218   2.189   2.855   5.039  0.2680 -4.7566 -3.0968
  162MOL    H3742219   2.173   2.617   5.241 -0.6417 -0.0993 -0.8721
  162MOL    H3842220   2.203   2.588   5.069  0.3085  1.2120 -0.8693
  162MOL    H3942221   1.771   2.621   5.068  0.2736  0.2643  0.0394
  162MOL    H4042222   1.721   2.608   5.228  0.9564 -0.7912  0.8693
  162MOL    C4142223   1.880   2.466   5.171  0.0023  0.0044 -0.2831
  162MOL    C4242224   1.796   2.368   5.086  0.0518 -0.6812  0.3214
  162MOL    C4342225   1.860   2.274   4.985 -0.2734  0.2295 -0.1698
  162MOL    C4442226   1.789   2.391   4.933 -0.4352 -0.1699  0.4746
  162MOL    C4542227   1.900   2.415   5.313 -0.1492 -0.1681  0.3295
  162MOL    H4642228   1.980   2.473   5.127  0.0883 -0.1917 -0.1186
  162MOL    H4742229   1.703   2.338   5.133 -0.4483  1.6923  0.9128
  162MOL    H4842230   1.967   2.284   4.970 -0.5049  0.0594 -2.0609
  162MOL    H4942231   1.809   2.178   4.977 -0.3393  0.3727 -1.6077
  162MOL    H5042232   1.694   2.370   4.885 -1.1214 -0.7215  2.0353
  162MOL    H5142233   1.856   2.465   4.889 -1.4752  0.4648 -0.0635
  162MOL    H5242234   1.800   2.406   5.353 -0.2105  2.1676  0.7754
  162MOL    H5342235   1.946   2.496   5.370 -0.4318  0.6035 -0.5225
  162MOL    C5442236   1.988   2.282   5.324  0.4119  0.0357  0.2830
  162MOL    C5542237   2.133   2.321   5.301 -0.4713  0.5107  0.5479
  162MOL    C5642238   2.205   2.312   5.162 -0.0933 -0.6451  1.1386
  162MOL    C5742239   2.247   2.217   5.271 -0.3606 -0.3410  0.0697
  162MOL    C5842240   1.984   2.219   5.461  0.3986  0.7191 -0.1554
  162MOL    H5942241   1.952   2.203   5.258 -1.5390 -1.4531  3.0402
  162MOL    H6042242   2.146   2.420   5.342 -0.7159  1.1312 -0.8249
  162MOL    H6142243   2.160   2.257   5.080  1.3476  0.8856 -0.7048
  162MOL    H6242244   2.285   2.382   5.140 -0.7458 -0.0241  0.7723
  162MOL    H6342245   2.336   2.238   5.331  0.2780 -0.1948 -0.9258
  162MOL    H6442246   2.219   2.115   5.247 -1.1912 -0.2755  0.7339
  162MOL    H6542247   2.075   2.168   5.490  0.3628  1.2808  0.9629
  162MOL    H6642248   1.986   2.306   5.525  0.7515  0.0952  0.6888
  162MOL    C6742249   1.858   2.130   5.486  0.1719  0.5104  0.5915
  162MOL    C6842250   1.861   2.005   5.400 -0.4721  0.3154 -0.6536
  162MOL    C6942251   1.743   1.921   5.385 -0.0130  0.2534 -0.0405
  162MOL    C7042252   1.782   2.007   5.271 -0.2112 -0.0165  0.5099
  162MOL    C7142253   1.836   2.094   5.637 -0.0797 -0.2628 -0.3065
  162MOL    H7242254   1.770   2.191   5.469  2.0561  3.0943 -0.2976
  162MOL    H7342255   1.954   1.948   5.410 -1.2145 -1.0846 -1.5498
  162MOL    H7442256   1.767   1.815   5.384  0.3963  0.3439  0.0253
  162MOL    H7542257   1.656   1.943   5.447  1.4860  0.1583  2.1297
  162MOL    H7642258   1.710   2.086   5.250 -0.5363 -0.4259  0.0721
  162MOL    H7742259   1.814   1.953   5.182  0.0918 -0.6910  1.0227
  162MOL    H7842260   1.904   2.013   5.662 -0.8899 -0.2196  2.1018
  162MOL    H7942261   1.736   2.052   5.637 -0.1956  0.0092 -0.4065
  162MOL    C8042262   1.841   2.203   5.744 -0.7615  0.7045 -0.5023
  162MOL    C8142263   1.870   2.147   5.883 -0.2335 -0.6000  0.3449
  162MOL    C8242264   1.983   2.216   5.970  0.1525  0.9340 -0.0271
  162MOL    C8342265   1.996   2.074   5.915  0.0537 -0.2971  0.5386
  162MOL    C8442266   1.705   2.287   5.747 -0.1855  0.3103  0.2208
  162MOL    H8542267   1.930   2.262   5.723 -0.1081 -0.1473 -0.1608
  162MOL    H8642268   1.778   2.117   5.933 -0.8588  1.2019  0.3139
  162MOL    H8742269   1.995   2.212   6.078 -0.1229 -0.5561 -0.0396
  162MOL    H8842270   2.068   2.262   5.921 -1.3534  2.8892 -0.8970
  162MOL    H8942271   2.075   2.057   5.843 -0.2465  0.3573  0.0515
  162MOL    H9042272   1.977   1.988   5.980 -0.7843 -0.5470 -0.0355
  162MOL    H9142273   1.670   2.309   5.646  2.3468 -0.3085 -0.8169
  162MOL    H9242274   1.631   2.225   5.797 -0.9494  1.9437  1.1349
  162MOL    C9342275   1.724   2.423   5.816 -0.3584 -0.2948  0.2722
  162MOL    C9442276   1.806   2.522   5.735 -0.1665  0.2430  0.2123
  162MOL    C9542277   1.858   2.644   5.805  0.1890 -0.3868 -0.4310
  162MOL    C9642278   1.950   2.544   5.732 -0.2521  0.3277 -0.4442
  162MOL    C9742279   1.580   2.474   5.843  0.3647  0.2956  0.2048
  162MOL    H9842280   1.770   2.416   5.915 -0.0914 -2.2418  0.0314
  162MOL    H9942281   1.747   2.540   5.646  0.1251  0.7301  0.1183
  162MOL   H10042282   1.826   2.734   5.753 -1.1476 -1.0420 -0.7471
  162MOL   H10142283   1.863   2.652   5.913  0.8057  1.8028 -0.5903
  162MOL   H10242284   1.997   2.582   5.641 -2.1669  3.0959 -0.3158
  162MOL   H10342285   2.017   2.475   5.783  0.2823  0.7487 -0.5659
  162MOL   H10442286   1.499   2.419   5.795  1.1611  0.0407 -0.8621
  162MOL   H10542287   1.559   2.573   5.803  0.3728  0.1331 -0.2074
  162MOL   C10642288   1.535   2.468   5.994  0.0420 -0.2950 -0.3933
  162MOL   C10742289   1.560   2.332   6.057  0.1400  0.2930  0.6856
  162MOL   C10842290   1.475   2.280   6.169 -0.1401 -0.3792 -0.2808
  162MOL   C10942291   1.468   2.216   6.033  0.0441 -0.1407  0.2714
  162MOL   C11042292   1.604   2.578   6.083  0.2225  0.4886 -0.0509
  162MOL   H11142293   1.429   2.489   6.005 -0.3785 -2.5440  0.0468
  162MOL   H11242294   1.664   2.301   6.053  0.5093  1.6474 -0.1468
  162MOL   H11342295   1.520   2.230   6.254  1.4549  0.5223 -0.5800
  162MOL   H11442296   1.396   2.353   6.189 -0.3350 -0.6229 -0.1678
  162MOL   H11542297   1.378   2.228   5.972  0.6279  2.6627 -0.0710
  162MOL   H11642298   1.505   2.114   6.044  0.1559  0.2272  3.9969
  162MOL   H11742299   1.700   2.542   6.119  0.8450 -0.2529 -2.3204
  162MOL   H11842300   1.620   2.665   6.018  2.8104 -0.2201 -0.4412
  162MOL   C11942301   1.528   2.637   6.201  0.0417 -0.2142 -0.2375
  162MOL   C12042302   1.634   2.697   6.299  0.3747 -0.1554  0.2490
  162MOL   C12142303   1.694   2.607   6.401 -0.1969  0.5525  0.0541
  162MOL   C12242304   1.596   2.716   6.447 -0.0615  0.3524  0.0006
  162MOL   C12342305   1.415   2.732   6.153  0.3679  0.1964  0.5871
  162MOL   H12442306   1.483   2.559   6.262  1.7941  0.2694  1.7479
  162MOL   H12542307   1.688   2.773   6.244  0.0055 -0.0503  0.0316
  162MOL   H12642308   1.800   2.623   6.419 -0.1577 -0.5568  0.9042
  162MOL   H12742309   1.661   2.503   6.393  1.6973 -0.1067  0.4032
  162MOL   H12842310   1.505   2.669   6.482  0.2831 -1.2500 -1.1686
  162MOL   H12942311   1.636   2.797   6.507  1.8201 -0.7008  0.2181
  162MOL   H13042312   1.464   2.820   6.111  1.1583 -0.4655  0.0959
  162MOL   H13142313   1.379   2.694   6.058  2.2569 -1.9092  0.6911
  162MOL   C13242314   1.306   2.770   6.250  0.5461 -0.7365 -0.2895
  162MOL   C13342315   1.198   2.658   6.261  0.3022 -0.0678 -0.1426
  162MOL   C13442316   1.111   2.636   6.384  1.2175 -0.1334 -0.7820
  162MOL   C13542317   1.215   2.535   6.353 -0.1551 -0.2290 -0.2173
  162MOL   C13642318   1.227   2.899   6.201  0.3093 -0.1276 -0.1479
  162MOL   H13742319   1.353   2.787   6.347  0.1852 -0.2364 -0.2029
  162MOL   H13842320   1.152   2.651   6.163 -0.2088  1.7806 -0.0433
  162MOL   H13942321   1.125   2.692   6.476  0.3581  0.0617 -0.7662
  162MOL   H14042322   1.007   2.603   6.383  0.1243  3.0938  1.0439
  162MOL   H14142323   1.304   2.534   6.415 -0.4818 -1.0709  0.2455
  162MOL   H14242324   1.183   2.438   6.316 -1.0654 -0.3888  0.9810
  162MOL   H14342325   1.287   2.987   6.178 -0.6447  0.3984 -0.6503
  162MOL   H14442326   1.180   2.883   6.104 -0.4101  2.5233 -0.2765
  162MOL   C14542327   1.125   2.960   6.306  0.2821  0.6075 -0.0360
  162MOL   C14642328   1.195   3.029   6.418  0.0009 -0.6778 -0.3377
  162MOL   C14742329   1.137   3.052   6.561  0.2242 -0.0223  0.0875
  162MOL   C14842330   1.259   2.972   6.541  0.3966  0.6534  0.5505
  162MOL   C14942331   1.029   3.066   6.238 -0.5913 -0.5228  0.3384
  162MOL   H15042332   1.063   2.884   6.353 -1.4313  2.2150  0.3717
  162MOL   H15142333   1.248   3.117   6.384  0.8873 -0.6407  1.1093
  162MOL   H15242334   1.153   3.150   6.606 -1.3967  0.9377 -1.3472
  162MOL   H15342335   1.042   3.001   6.565  0.2173 -0.0330 -0.1698
  162MOL   H15442336   1.259   2.866   6.566  0.2378  0.1904 -1.3234
  162MOL   H15542337   1.348   3.024   6.576  1.7588 -1.7388  0.7769
  162MOL   H15642338   0.967   3.111   6.316 -0.6885 -0.8970  0.4777
  162MOL   H15742339   1.083   3.154   6.204  2.6284 -2.0372  1.3103
  162MOL   C15842340   0.935   3.023   6.119  0.0332 -0.1410  0.0224
  162MOL   C15942341   0.894   3.142   6.033  0.1870  0.6305 -0.4446
  162MOL   C16042342   0.980   3.194   5.930  0.1419  0.1652  0.0155
  162MOL   C16142343   0.860   3.122   5.887  0.1819  0.1207  0.4020
  162MOL   C16242344   0.821   2.941   6.179  0.5346 -0.6595 -0.1268
  162MOL   H16342345   0.999   2.960   6.058 -0.8528 -0.9196 -0.1101
  162MOL   H16442346   0.844   3.226   6.082  1.0881  2.1546 -2.0706
  162MOL   H16542347   1.061   3.128   5.900 -0.5171 -0.3513 -0.6327
  162MOL   H16642348   0.987   3.301   5.908 -2.7924  0.7071  1.4289
  162MOL   H16742349   0.795   3.185   5.827 -1.7874 -0.5790  1.7383
  162MOL   H16842350   0.871   3.022   5.845 -0.1058  1.0030 -1.8205
  162MOL   H16942351   0.753   3.014   6.222  0.0897 -1.5434  0.6976
  162MOL   H17042352   0.859   2.884   6.264  1.3898 -1.6309 -1.1457
  162MOL   C17142353   0.752   2.843   6.084  0.0887 -0.0855 -1.1673
  162MOL   C17242354   0.853   2.727   6.051 -0.2698  0.0819  0.6393
  162MOL   C17342355   0.819   2.636   5.934  0.1155 -0.5295 -0.6238
  162MOL   C17442356   0.947   2.725   5.926 -0.4557 -0.2580  0.2830
  162MOL   C17542357   0.630   2.793   6.155  0.5236 -0.4844 -0.9012
  162MOL   H17642358   0.728   2.907   5.999  1.9561  1.3351 -0.6624
  162MOL   H17742359   0.888   2.673   6.138  0.5009  0.0514  0.3151
  162MOL   H17842360   0.829   2.531   5.962 -0.5099 -0.0849  1.3318
  162MOL   H17942361   0.748   2.666   5.857  0.5098 -1.4842 -1.3657
  162MOL   H18042362   0.936   2.804   5.852  1.7762  0.2925  0.4981
  162MOL   H18142363   1.030   2.655   5.924  1.8062  2.3335  0.9806
  162MOL   H18242364   0.580   2.872   6.212  1.0759  0.1986 -1.3647
  162MOL   H18342365   0.659   2.722   6.233  1.3433 -0.7987 -1.4884
  162MOL   C18442366   0.521   2.726   6.062 -0.1702  0.6286 -0.7986
  162MOL   C18542367   0.453   2.819   5.961  0.7474 -0.3179 -0.0041
  162MOL   C18642368   0.408   2.773   5.828  0.7325 -0.0817 -0.4192
  162MOL   C18742369   0.524   2.871   5.834  0.2356 -0.2873 -0.4454
  162MOL   C18842370   0.403   2.662   6.143 -0.1295 -0.9128 -0.3554
  162MOL   H18942371   0.569   2.645   6.007 -2.5123 -1.2301 -0.1571
  162MOL   H19042372   0.381   2.883   6.011  0.1537 -2.3095  1.7838
  162MOL   H19142373   0.321   2.813   5.776  0.9828 -1.7680 -2.2044
  162MOL   H19242374   0.427   2.672   5.792 -0.5564 -1.1537  1.7591
  162MOL   H19342375   0.497   2.970   5.798  1.3746 -0.4574 -1.7977
  162MOL   H19442376   0.624   2.833   5.811  2.0353  1.1549  4.3428
  162MOL   H19542377   0.353   2.624   6.054 -3.4223  0.7551  0.7041
  162MOL   H19642378   0.340   2.738   6.188  0.6975 -1.8435  2.5318
  162MOL   C19742379   0.440   2.552   6.250  0.3688 -0.1561  0.2909
  162MOL   C19842380   0.508   2.433   6.180  0.5680 -0.8219  0.2182
  162MOL   C19942381   0.583   2.325   6.259  0.8342 -0.5009  0.1416
  162MOL   C20042382   0.656   2.431   6.178  1.2408  0.4166  0.6087
  162MOL   C20142383   0.312   2.491   6.313  0.2945 -0.0714  0.5746
  162MOL   H20242384   0.511   2.586   6.326  0.7584  1.0468 -0.5948
  162MOL   H20342385   0.455   2.390   6.095  0.4846  1.1870 -0.7890
  162MOL   H20442386   0.591   2.348   6.365 -1.2814  2.4109 -0.2737
  162MOL   H20542387   0.597   2.223   6.224 -0.4401 -1.1118  1.3569
  162MOL   H20642388   0.709   2.513   6.226 -0.2135  0.8506  1.4996
  162MOL   H20742389   0.699   2.402   6.082  1.1879  1.4734  0.2622
  162MOL   H20842390   0.247   2.440   6.242  0.3975 -0.1359  0.5249
  162MOL   H20942391   0.357   2.413   6.375  0.7706  0.2239  0.6044
  162MOL   C21042392   0.234   2.591   6.412 -0.7965 -0.8884 -0.0282
  162MOL   C21142393   0.103   2.526   6.460 -0.1336 -0.6517 -0.0983
  162MOL   C21242394   7.826   2.617   6.492 -0.5002 -0.3963  0.0823
  162MOL   C21342395   7.824   2.528   6.368  0.1917  0.0501 -0.0520
  162MOL   C21442396   0.316   2.650   6.534  0.0785 -0.3273  0.1748
  162MOL   H21542397   0.208   2.679   6.353 -2.2537 -1.4211 -0.1895
  162MOL   H21642398   0.115   2.442   6.528  0.6547 -0.3504  0.1452
  162MOL   H21742399   7.754   2.593   6.570 -0.1823 -1.2061  0.1348
  162MOL   H21842400   0.001   2.722   6.467  1.7343 -0.5014  0.7988
  162MOL   H21942401   7.767   2.436   6.365 -1.0827  0.8354 -0.0606
  162MOL   H22042402   7.839   2.581   6.274 -1.2853  0.4634 -0.0641
  162MOL   H22142403   0.251   2.691   6.611 -0.3862  0.6994 -0.7486
  162MOL   H22242404   0.380   2.571   6.572  0.2429 -0.5294 -0.5068
  162MOL   C22342405   0.393   2.781   6.503  0.6366 -0.3204  0.4971
  162MOL   C22442406   0.505   2.804   6.606 -0.1043 -0.1592 -0.1375
  162MOL   C22542407   0.629   2.715   6.591 -0.2190 -0.2436  0.6850
  162MOL   C22642408   0.632   2.868   6.574  0.3513 -0.5779 -0.3629
  162MOL   C22742409   0.297   2.903   6.503  0.5954  0.3413  0.4399
  162MOL   H22842410   0.449   2.783   6.409  0.4768 -1.0779  0.3870
  162MOL   H22942411   0.472   2.821   6.708  0.9514 -1.8000  0.5010
  162MOL   H23042412   0.643   2.661   6.497 -2.0968  2.1600 -1.0219
  162MOL   H23142413   0.683   2.683   6.680  2.0324  2.2521  0.2709
  162MOL   H23242414   0.687   2.911   6.658 -2.4751 -0.3974  1.4440
  162MOL   H23342415   0.658   2.899   6.473  0.8353  0.0882 -0.0362
  162MOL   H23442416   0.198   2.886   6.460  1.0450 -3.8516  0.8720
  162MOL   H23542417   0.263   2.928   6.603 -1.8707 -1.6530  0.1477
  162MOL   C23642418   0.350   3.025   6.428  0.4128  0.4840 -0.5476
  162MOL   C23742419   0.328   3.143   6.519 -0.0477  0.5370  0.3850
  162MOL   C23842420   0.398   3.179   6.648 -0.1965  0.3924  0.4550
  162MOL   C23942421   0.429   3.256   6.525  0.4962  0.0568 -0.3535
  162MOL   C24042422   0.279   3.045   6.287 -0.5264  0.4990 -0.8795
  162MOL   H24142423   0.455   3.009   6.406  0.3627 -0.6905  0.0440
  162MOL   H24242424   0.223   3.169   6.531 -0.6162 -1.0468 -0.9693
  162MOL   H24342425   0.349   3.247   6.718 -0.6452  1.8162 -1.2283
  162MOL   H24442426   0.475   3.113   6.688 -1.0142  0.0318  1.4454
  162MOL   H24542427   0.534   3.247   6.499  1.0161  0.4003  1.5532
  162MOL   H24642428   0.384   3.354   6.536 -0.0514  0.0349 -2.1519
  162MOL   H24742429   0.309   2.964   6.221  0.4629  0.2645 -0.1556
  162MOL   H24842430   0.171   3.042   6.299 -0.6087  0.7942 -1.5229
  162MOL   C24942431   0.318   3.175   6.217  0.6106  0.1083  0.3954
  162MOL   C25042432   0.223   3.198   6.092  0.2490  0.5786 -0.5589
  162MOL   C25142433   0.235   3.305   5.990  0.4695  0.7477 -0.1813
  162MOL   C25242434   0.260   3.162   5.948 -0.3652  0.1193  0.1047
  162MOL   C25342435   0.470   3.186   6.180 -0.3069 -0.6321 -0.3386
  162MOL   H25442436   0.296   3.259   6.283 -0.5918  0.3885 -0.3483
  162MOL   H25542437   0.122   3.164   6.112 -1.3467  4.8021 -1.0427
  162MOL   H25642438   0.148   3.349   5.941  0.4909  1.0644  0.0646
  162MOL   H25742439   0.315   3.378   5.999  0.9375  0.1555  0.4657
  162MOL   H25842440   0.181   3.113   5.891 -0.0702 -1.1946  0.7946
  162MOL   H25942441   0.360   3.128   5.922  0.3840  1.1655  1.5405
  162MOL   H26042442   0.516   3.256   6.249 -1.3804  0.9557 -1.1927
  162MOL   H26142443   0.506   3.212   6.080  0.7098 -0.6672  0.0078
  162MOL   H26242444   0.511   3.087   6.201  1.1546  0.1132  0.3627
  163MOL     C142445   3.032   3.653   1.693 -0.9065  0.0311  0.6614
  163MOL     C242446   3.070   3.551   1.586  0.1400  0.0186 -0.0260
  163MOL     C342447   3.067   3.587   1.439 -0.2060 -0.2401  0.6245
  163MOL     C442448   2.974   3.477   1.491 -0.1869  0.4718  0.4578
  163MOL     C542449   2.975   3.587   1.823  0.4275  0.1563  0.2254
  163MOL     H642450   3.119   3.711   1.725 -0.0704 -1.0219  0.3524
  163MOL     H742451   3.151   3.492   1.628 -2.2582 -1.6844  2.3604
  163MOL     H842452   3.027   3.685   1.415  0.2310 -0.8442 -2.7856
  163MOL     H942453   3.149   3.554   1.376 -1.3067  1.6674 -1.8686
  163MOL    H1042454   2.996   3.373   1.467  1.1108  0.7360  0.4787
  163MOL    H1142455   2.869   3.506   1.479  0.3325  1.9228 -0.7882
  163MOL    H1242456   3.056   3.533   1.872 -1.8580 -1.6995  2.1283
  163MOL    H1342457   2.897   3.513   1.802  1.6806 -1.1338  0.0779
  163MOL    H1442458   2.959   3.722   1.653 -0.8482 -1.2072 -1.6777
  163MOL    C1542459   2.920   3.685   1.933 -0.2362  0.4851 -0.2922
  163MOL    C1642460   3.027   3.779   1.979 -0.1667  0.2944 -0.2499
  163MOL    C1742461   3.146   3.730   2.058 -0.2013 -0.2252 -0.2046
  163MOL    C1842462   3.039   3.812   2.125  0.3695 -0.3535 -0.2332
  163MOL    C1942463   2.804   3.770   1.874  0.0029  0.8585  0.5779
  163MOL    H2042464   2.889   3.629   2.020  0.9894  0.4373  0.1254
  163MOL    H2142465   3.043   3.860   1.909  1.9655  1.7523  1.8797
  163MOL    H2242466   3.242   3.781   2.057  0.3526 -1.2508  0.2614
  163MOL    H2342467   3.150   3.627   2.093 -0.5547 -0.3199 -0.4399
  163MOL    H2442468   2.971   3.767   2.197  0.4161  0.2027  0.1663
  163MOL    H2542469   3.059   3.917   2.147 -0.5976 -0.2688  0.2783
  163MOL    H2642470   2.847   3.815   1.784  0.6717  0.3130  0.6175
  163MOL    H2742471   2.789   3.851   1.945 -0.1987 -0.2842  1.8574
  163MOL    C2842472   2.674   3.701   1.825  0.0034  0.2371 -0.5260
  163MOL    C2942473   2.613   3.782   1.711 -0.0312  0.4943  0.5026
  163MOL    C3042474   2.672   3.795   1.572 -0.3922  0.5667 -0.1247
  163MOL    C3142475   2.538   3.726   1.596  0.2551 -0.0440  0.1536
  163MOL    C3242476   2.584   3.673   1.939  0.5723  0.1263 -1.0244
  163MOL    H3342477   2.693   3.605   1.776 -0.9460 -1.4651  2.3260
  163MOL    H3442478   2.572   3.877   1.744 -1.3400  0.5724 -1.2574
  163MOL    H3542479   2.759   3.738   1.542  0.1791  1.7920 -0.8279
  163MOL    H3642480   2.684   3.898   1.536  1.6572  0.3859 -0.0180
  163MOL    H3742481   2.551   3.619   1.580  2.8141  0.2677 -0.1988
  163MOL    H3842482   2.457   3.782   1.551  0.5004  0.4066  0.2722
  163MOL    H3942483   2.545   3.768   1.975  1.2173 -0.0775  0.2354
  163MOL    H4042484   2.632   3.632   2.028 -2.9611 -1.9054  0.0122
  163MOL    C4142485   2.466   3.578   1.906 -0.4350  0.0698 -0.4569
  163MOL    C4242486   2.377   3.551   2.028 -0.3715  0.3706 -0.1330
  163MOL    C4342487   2.225   3.558   2.025 -0.1753  0.2042  0.8767
  163MOL    C4442488   2.298   3.667   2.089  0.6593 -0.7132 -0.9012
  163MOL    C4542489   2.508   3.440   1.844 -0.3660  0.0808  0.1182
  163MOL    H4642490   2.405   3.625   1.828  2.4378  1.3882 -2.0048
  163MOL    H4742491   2.410   3.473   2.095  3.4262  1.8504 -0.1382
  163MOL    H4842492   2.186   3.553   1.924 -2.6945  0.7130  1.7947
  163MOL    H4942493   2.189   3.474   2.084  0.9782  0.6924  2.3215
  163MOL    H5042494   2.264   3.671   2.192  0.2942  1.7503 -1.1005
  163MOL    H5142495   2.313   3.758   2.032  0.4679 -0.0106  0.1533
  163MOL    H5242496   2.576   3.391   1.913 -1.8821 -0.5106  1.2177
  163MOL    H5342497   2.572   3.457   1.757  0.1462  2.0358  0.8611
  163MOL    C5442498   2.396   3.345   1.794  0.4225  0.3769  0.3717
  163MOL    C5542499   2.369   3.373   1.650  0.4236  0.4053  1.0360
  163MOL    C5642500   2.267   3.484   1.604  0.6679 -0.0322  0.1830
  163MOL    C5742501   2.231   3.336   1.608  0.0802 -0.1042 -0.2177
  163MOL    C5842502   2.434   3.194   1.801 -0.2855  0.1025  0.1225
  163MOL    H5942503   2.307   3.372   1.851 -0.1149  0.1710 -0.3640
  163MOL    H6042504   2.439   3.338   1.575 -1.4886  0.9254 -1.0642
  163MOL    H6142505   2.235   3.547   1.686  0.1297 -1.0138  0.7257
  163MOL    H6242506   2.277   3.533   1.507 -0.2157 -0.1828  0.0157
  163MOL    H6342507   2.203   3.300   1.509 -0.3883 -2.3056  0.6843
  163MOL    H6442508   2.161   3.302   1.685 -1.2275 -0.5221 -1.5513
  163MOL    H6542509   2.346   3.143   1.760  0.7374  1.0101 -3.3744
  163MOL    H6642510   2.520   3.171   1.739 -1.2668 -1.1112 -0.8235
  163MOL    C6742511   2.471   3.141   1.945  0.5105 -0.4036  0.1503
  163MOL    C6842512   2.351   3.083   2.016 -0.6059 -0.4366 -0.6358
  163MOL    C6942513   2.347   3.075   2.165  0.2950 -0.1930 -0.5260
  163MOL    C7042514   2.250   3.168   2.087  0.3499 -0.2366  0.4101
  163MOL    C7142515   2.590   3.040   1.936 -0.0317  0.0520 -0.3473
  163MOL    H7242516   2.500   3.222   2.011 -2.2059  0.7358  0.0189
  163MOL    H7342517   2.324   2.987   1.972 -0.1525 -0.5237 -0.7346
  163MOL    H7442518   2.314   2.980   2.206 -0.1751  1.2850  2.6292
  163MOL    H7542519   2.430   3.125   2.215  0.6240 -0.9435 -0.3214
  163MOL    H7642520   2.270   3.274   2.069 -2.4103  0.4901  1.2795
  163MOL    H7742521   2.145   3.139   2.092  1.0592 -3.1641 -0.7680
  163MOL    H7842522   2.572   2.975   1.851 -0.2089 -1.8197  1.0783
  163MOL    H7942523   2.585   2.977   2.025 -3.1907  2.7213  1.4995
  163MOL    C8042524   2.728   3.105   1.934  0.4071 -0.0176  0.2502
  163MOL    C8142525   2.797   3.094   1.792 -0.0323  0.1763 -0.4748
  163MOL    C8242526   2.931   3.162   1.764  0.0223  0.0027  0.3675
  163MOL    C8342527   2.798   3.200   1.693  0.6582  0.0266  0.9396
  163MOL    C8442528   2.821   3.034   2.038  0.3380 -0.6921 -0.1383
  163MOL    H8542529   2.715   3.212   1.953 -1.1413 -0.3378  1.1433
  163MOL    H8642530   2.789   2.994   1.751 -1.3581  0.9160 -2.0584
  163MOL    H8742531   3.002   3.125   1.690  0.5420  1.3210  0.1835
  163MOL    H8842532   2.968   3.234   1.837 -0.1889 -0.6268  1.0957
  163MOL    H8942533   2.753   3.289   1.737  0.2030  0.2185  0.1002
  163MOL    H9042534   2.807   3.190   1.585  3.5333  0.0828  1.1398
  163MOL    H9142535   2.801   2.927   2.033 -0.4887 -0.6063  1.1170
  163MOL    H9242536   2.928   3.038   2.021  0.2916  0.7344 -0.1646
  163MOL    C9342537   2.799   3.079   2.180  0.0530 -0.2568  0.6414
  163MOL    C9442538   2.854   2.967   2.270 -0.5944 -0.0450  0.0279
  163MOL    C9542539   2.826   2.976   2.415 -0.3902  0.2577 -0.6427
  163MOL    C9642540   2.763   2.864   2.336 -0.5519  0.0436  0.1856
  163MOL    C9742541   2.876   3.214   2.202 -0.2981  0.2559 -0.1444
  163MOL    H9842542   2.693   3.086   2.205 -0.9411 -4.3816 -1.9348
  163MOL    H9942543   2.950   2.923   2.244 -1.1279 -1.4870  0.4445
  163MOL   H10042544   2.895   2.950   2.495  1.1231 -2.3867 -2.7140
  163MOL   H10142545   2.767   3.064   2.438 -1.3772  0.2154 -2.8946
  163MOL   H10242546   2.810   2.766   2.337 -0.3743  0.1267  0.0596
  163MOL   H10342547   2.655   2.875   2.338 -0.5585  0.0310 -0.0237
  163MOL   H10442548   2.894   3.255   2.102  0.0016 -3.4312 -1.6728
  163MOL   H10542549   2.977   3.186   2.233  0.0861  0.6611 -0.9884
  163MOL   C10642550   2.822   3.319   2.297 -0.4632  0.0882  0.0464
  163MOL   C10742551   2.932   3.411   2.343  0.2531 -0.0299  0.1177
  163MOL   C10842552   2.963   3.440   2.487  0.2711  0.6209  0.4458
  163MOL   C10942553   3.054   3.347   2.410  0.2380 -0.0486 -0.2928
  163MOL   C11042554   2.701   3.400   2.231 -0.3191 -0.7085  0.3383
  163MOL   H11142555   2.771   3.277   2.384  1.1324 -1.3113  0.3251
  163MOL   H11242556   2.947   3.488   2.267 -3.1683  1.0159  0.4123
  163MOL   H11342557   2.995   3.541   2.513 -2.6427  2.4099 -2.5559
  163MOL   H11442558   2.881   3.402   2.549  0.6775 -0.3863  0.3735
  163MOL   H11542559   3.047   3.243   2.444  1.0536 -0.7681 -2.2442
  163MOL   H11642560   3.153   3.379   2.378  0.2177  1.6752  1.3118
  163MOL   H11742561   2.725   3.480   2.162 -0.4663 -1.0596 -0.1183
  163MOL   H11842562   2.636   3.337   2.170  0.9757 -1.2479 -0.5122
  163MOL   C11942563   2.612   3.467   2.341  0.0921  0.2756 -0.3165
  163MOL   C12042564   2.584   3.619   2.317 -0.3075 -0.9067 -1.2924
  163MOL   C12142565   2.689   3.713   2.313 -0.0872  0.1170  1.0085
  163MOL   C12242566   2.582   3.721   2.430  0.1214 -0.0496  0.1133
  163MOL   C12342567   2.489   3.383   2.369 -0.8496 -0.3719 -0.0472
  163MOL   H12442568   2.661   3.467   2.438  0.7599  4.0688 -0.5577
  163MOL   H12542569   2.504   3.643   2.248 -0.7150  1.0285 -0.1845
  163MOL   H12642570   2.683   3.785   2.231 -0.5019  1.0447  1.8397
  163MOL   H12742571   2.786   3.681   2.351  0.4265 -0.4062 -0.7163
  163MOL   H12842572   2.626   3.703   2.527 -0.3759  2.0422  0.7505
  163MOL   H12942573   2.524   3.813   2.420 -1.1558 -0.8400  0.1047
  163MOL   H13042574   2.410   3.404   2.297 -1.7395 -3.6493 -0.1479
  163MOL   H13142575   2.506   3.275   2.357 -0.7896 -0.4658  0.8696
  163MOL   C13242576   2.420   3.403   2.508 -0.8774  0.1452 -0.6812
  163MOL   C13342577   2.495   3.329   2.616 -0.4233  0.5269 -0.1878
  163MOL   C13442578   2.481   3.389   2.763 -0.5707  0.4260 -0.0281
  163MOL   C13542579   2.620   3.384   2.688  0.1675 -0.1108 -0.0546
  163MOL   C13642580   2.277   3.367   2.511  0.9928 -0.3223 -0.0985
  163MOL   H13742581   2.441   3.506   2.537  2.8088 -1.0906  1.3162
  163MOL   H13842582   2.482   3.221   2.611 -0.7246  0.5386  0.3381
  163MOL   H13942583   2.438   3.489   2.770 -2.3468 -0.4161  1.7039
  163MOL   H14042584   2.465   3.326   2.851  0.9569  2.1307  1.4953
  163MOL   H14142585   2.660   3.478   2.650 -1.0567  0.9499  1.2269
  163MOL   H14242586   2.692   3.302   2.696 -1.2607 -1.2010  1.8820
  163MOL   H14342587   2.270   3.273   2.456 -1.8609 -2.1233  3.1108
  163MOL   H14442588   2.244   3.338   2.611  0.7045  3.7897  1.0808
  163MOL   C14542589   2.173   3.477   2.462 -0.0217  0.0805  0.1873
  163MOL   C14642590   2.031   3.422   2.440  0.0102  0.1978 -0.7702
  163MOL   C14742591   2.008   3.324   2.329 -0.1826  0.6763 -0.5160
  163MOL   C14842592   1.990   3.285   2.473  1.0000 -0.5327 -0.4926
  163MOL   C14942593   2.179   3.617   2.534  0.4397 -0.2328  0.3443
  163MOL   H15042594   2.209   3.497   2.361 -0.0820  0.0633  0.1625
  163MOL   H15142595   1.957   3.501   2.441 -0.7732 -0.5322 -0.2750
  163MOL   H15242596   1.918   3.347   2.272  0.6379 -1.7739 -2.9176
  163MOL   H15342597   2.090   3.281   2.272  0.3757 -1.7076  1.9969
  163MOL   H15442598   2.058   3.217   2.524  1.3418 -0.3609 -0.7181
  163MOL   H15542599   1.888   3.277   2.511  0.7973  2.4957 -0.2545
  163MOL   H15642600   2.284   3.639   2.557  0.3258  0.1010  0.5433
  163MOL   H15742601   2.146   3.687   2.458  1.2490 -0.7998 -0.5506
  163MOL   C15842602   2.086   3.657   2.657  0.3962 -0.0022  0.0893
  163MOL   C15942603   2.139   3.793   2.709 -0.3933  0.3929 -0.4299
  163MOL   C16042604   2.082   3.914   2.662 -0.2362 -0.6286 -0.2156
  163MOL   C16142605   2.069   3.882   2.805  0.2682  0.3956 -0.5452
  163MOL   C16242606   2.097   3.545   2.761  0.4718  0.0919  0.4387
  163MOL   H16342607   1.980   3.666   2.631  0.5932 -1.5444 -1.3441
  163MOL   H16442608   2.245   3.787   2.736 -0.3510  1.7385 -0.2313
  163MOL   H16542609   1.996   3.918   2.595  0.0096 -0.5375 -0.5280
  163MOL   H16642610   2.153   3.991   2.631 -3.2370  1.3058 -2.5799
  163MOL   H16742611   2.123   3.946   2.875 -1.5057  1.3241  0.0126
  163MOL   H16842612   1.963   3.864   2.824  0.1200  0.8429 -0.9226
  163MOL   H16942613   2.198   3.552   2.801  1.6386  0.7134 -2.4964
  163MOL   H17042614   2.095   3.442   2.723  0.3637  0.2071  0.1326
  163MOL   C17142615   1.991   3.546   2.875  0.3893  0.9478  0.3825
  163MOL   C17242616   1.838   3.518   2.840  0.1200 -0.0437  0.1602
  163MOL   C17342617   1.735   3.546   2.950  0.5643 -0.1920  0.1794
  163MOL   C17442618   1.737   3.629   2.826  0.0326 -0.5120  0.1659
  163MOL   C17542619   2.032   3.440   2.982 -0.1242  0.7135  0.4742
  163MOL   H17642620   1.997   3.644   2.922  1.4382  2.1318 -2.1352
  163MOL   H17742621   1.812   3.433   2.776  0.7813  1.0400 -1.5881
  163MOL   H17842622   1.667   3.463   2.965  0.5067  0.0212  1.1280
  163MOL   H17942623   1.763   3.591   3.045 -1.7185  1.4028  0.1306
  163MOL   H18042624   1.769   3.733   2.836  0.9187 -0.5653 -1.7865
  163MOL   H18142625   1.653   3.626   2.757  2.6725  2.1082 -3.3652
  163MOL   H18242626   2.046   3.342   2.939 -0.5924  1.2848 -1.0010
  163MOL   H18342627   1.946   3.430   3.048 -0.1873  0.5989  0.3722
  163MOL   C18442628   2.167   3.461   3.049  0.3578 -0.3748  0.0249
  163MOL   C18542629   2.191   3.346   3.154 -0.2137 -0.5538  0.2790
  163MOL   C18642630   2.326   3.280   3.173 -0.2049  0.0135  0.1801
  163MOL   C18742631   2.214   3.216   3.095 -0.3859 -0.0359  0.3656
  163MOL   C18842632   2.185   3.599   3.122 -0.0601  0.3467 -1.1627
  163MOL   H18942633   2.244   3.442   2.974  0.8596  1.3243  0.0722
  163MOL   H19042634   2.133   3.344   3.246  0.6413  1.3393  0.8771
  163MOL   H19142635   2.340   3.248   3.276  1.5927 -0.1937 -0.1134
  163MOL   H19242636   2.420   3.301   3.124 -1.5722  0.7988 -2.1876
  163MOL   H19342637   2.174   3.125   3.141  0.8926 -0.7823  0.0490
  163MOL   H19442638   2.244   3.211   2.990  0.7710  3.3556  0.4849
  163MOL   H19542639   2.131   3.595   3.217  0.8933  0.3936 -0.6088
  163MOL   H19642640   2.141   3.681   3.066  0.0450  0.8240 -0.5535
  163MOL   C19742641   2.326   3.634   3.151 -0.2003 -0.0956 -0.2154
  163MOL   C19842642   2.322   3.749   3.253 -0.1559 -0.7268  0.5144
  163MOL   C19942643   2.425   3.775   3.356 -0.3175 -0.2515  0.2362
  163MOL   C20042644   2.289   3.726   3.398 -0.1336 -0.4233  0.4001
  163MOL   C20142645   2.398   3.670   3.017  0.2047  1.2447  0.1128
  163MOL   H20242646   2.374   3.546   3.192 -0.1025  1.2251  2.6364
  163MOL   H20342647   2.265   3.836   3.222  0.8441  0.0121  0.7192
  163MOL   H20442648   2.501   3.708   3.395 -0.7143 -0.0311  1.4046
  163MOL   H20542649   2.445   3.881   3.373 -0.0568 -0.0732 -1.1082
  163MOL   H20642650   2.285   3.622   3.430  0.3017 -0.1337  1.4293
  163MOL   H20742651   2.227   3.797   3.452  1.1098  1.2045 -0.2801
  163MOL   H20842652   2.372   3.590   2.948 -2.5914  1.7524  0.5215
  163MOL   H20942653   2.351   3.757   2.970 -0.8661 -0.0372 -1.2230
  163MOL   C21042654   2.554   3.692   3.014  0.2009 -0.1176  0.0813
  163MOL   C21142655   2.596   3.829   3.060 -0.5166 -0.2763 -0.3283
  163MOL   C21242656   2.696   3.916   2.996  0.4915 -0.4650  0.2073
  163MOL   C21342657   2.546   3.951   2.991 -0.5047 -0.4887 -0.1804
  163MOL   C21442658   2.627   3.580   3.090 -0.1066  0.2860  0.2383
  163MOL   H21542659   2.593   3.681   2.913  3.8942 -0.4465  1.4616
  163MOL   H21642660   2.604   3.836   3.169  0.4647  0.4242 -0.4424
  163MOL   H21742661   2.760   3.964   3.069 -0.1571  0.5493  0.1205
  163MOL   H21842662   2.736   3.898   2.896 -1.0409  0.7738 -0.6671
  163MOL   H21942663   2.514   4.031   3.058 -1.0971 -0.1325 -0.8879
  163MOL   H22042664   2.506   3.955   2.890  0.7585 -1.8746 -0.7439
  163MOL   H22142665   2.605   3.581   3.197 -0.4708  1.0336  0.1534
  163MOL   H22242666   2.586   3.486   3.054  1.0683 -0.8900  1.8375
  163MOL   C22342667   2.779   3.586   3.073 -0.1441  0.0165  0.2203
  163MOL   C22442668   2.819   3.539   2.930  0.1372  0.2103  0.3958
  163MOL   C22542669   2.855   3.641   2.823 -0.1519 -0.1675 -0.3447
  163MOL   C22642670   2.961   3.544   2.879 -0.3742  0.1801  0.0935
  163MOL   C22742671   2.846   3.480   3.168 -0.0064 -0.3825  0.1732
  163MOL   H22842672   2.807   3.690   3.089  3.5039 -0.8332 -0.0615
  163MOL   H22942673   2.745   3.469   2.891 -0.8040  1.5241 -0.2257
  163MOL   H23042674   2.870   3.743   2.858 -0.5522 -0.1741 -0.1422
  163MOL   H23142675   2.819   3.624   2.722 -1.5333  1.1583 -0.0954
  163MOL   H23242676   3.001   3.468   2.812  1.7521 -0.7524  2.3647
  163MOL   H23342677   3.023   3.574   2.963 -1.9810  2.0368  0.6724
  163MOL   H23442678   2.819   3.381   3.130 -2.4479  0.1344  0.4914
  163MOL   H23542679   2.955   3.477   3.160  0.2479 -0.0535  2.9605
  163MOL   C23642680   2.821   3.499   3.320  1.0041 -0.1265  0.1413
  163MOL   C23742681   2.902   3.615   3.366 -0.7673  0.2965  0.4690
  163MOL   C23842682   2.849   3.755   3.364  0.0330 -0.4238 -0.2057
  163MOL   C23942683   2.875   3.685   3.492 -0.0614 -0.2774 -0.8888
  163MOL   C24042684   2.870   3.373   3.386  0.3413  0.3780  0.3177
  163MOL   H24142685   2.716   3.517   3.341  0.9406 -0.9607  0.5640
  163MOL   H24242686   3.003   3.611   3.328 -1.9583 -0.3953 -2.7714
  163MOL   H24342687   2.919   3.831   3.328 -0.6291 -0.1410 -0.9242
  163MOL   H24442688   2.744   3.762   3.337 -1.0638 -4.4898  2.6911
  163MOL   H24542689   2.796   3.644   3.553 -0.4687 -2.0059 -2.5266
  163MOL   H24642690   2.952   3.739   3.547 -0.0979 -0.8638 -0.2531
  163MOL   H24742691   2.935   3.319   3.317  1.3667 -1.3689  2.5588
  163MOL   H24842692   2.937   3.382   3.472  0.3126 -2.9342  0.7645
  163MOL   C24942693   2.762   3.277   3.441  0.0615  0.4236 -0.6554
  163MOL   C25042694   2.668   3.228   3.330 -0.2244 -0.1070  0.6617
  163MOL   C25142695   2.706   3.140   3.217 -0.0562 -0.0516 -0.9323
  163MOL   C25242696   2.625   3.085   3.335 -1.0308 -0.2038  0.1196
  163MOL   C25342697   2.682   3.329   3.564  0.6915  0.4422  0.4219
  163MOL   H25442698   2.812   3.189   3.483 -1.9457 -0.7819 -0.7433
  163MOL   H25542699   2.588   3.299   3.312  0.1847  0.5212  1.2738
  163MOL   H25642700   2.670   3.165   3.118 -1.8048 -5.1843 -1.7670
  163MOL   H25742701   2.800   3.085   3.212  0.8529  1.1303  2.0702
  163MOL   H25842702   2.523   3.054   3.313 -1.2274  0.2184  0.4397
  163MOL   H25942703   2.676   3.036   3.418 -1.2973  0.7192  0.8343
  163MOL   H26042704   2.582   3.287   3.569  0.7031  0.4986  1.2035
  163MOL   H26142705   2.683   3.438   3.563  1.7280  0.4317 -1.3678
  163MOL   H26242706   2.738   3.310   3.655  0.1420  2.1713  1.1485
  164MOL     C142707   1.054   5.724   7.241  0.0121  0.1813 -0.6415
  164MOL     C242708   1.171   5.633   7.269  0.1691 -0.5915  0.2389
  164MOL     C342709   1.198   5.585   7.412 -0.4282  0.1203  0.5272
  164MOL     C442710   1.283   5.689   7.347  0.1629 -0.6257  0.1234
  164MOL     C542711   0.917   5.652   7.260  0.1462 -0.2314  0.1842
  164MOL     H642712   1.066   5.819   7.293  0.4251 -1.0008  1.5116
  164MOL     H742713   1.196   5.563   7.189  3.3122  0.9558 -0.2182
  164MOL     H842714   1.134   5.623   7.491  0.9761  0.6953  1.3952
  164MOL     H942715   1.245   5.487   7.423 -0.9769 -0.1847  0.1985
  164MOL    H1042716   1.383   5.656   7.321  0.3996 -0.9742  1.4339
  164MOL    H1142717   1.278   5.796   7.362 -3.5578 -0.4584 -1.7068
  164MOL    H1242718   0.923   5.618   7.363  0.8979 -0.9439 -0.0808
  164MOL    H1342719   0.918   5.559   7.202  1.6194  0.1771 -0.4785
  164MOL    H1442720   1.065   5.751   7.136  0.7150 -2.6199 -1.3400
  164MOL    C1542721   0.791   5.741   7.255  0.0499  0.1042 -0.4349
  164MOL    C1642722   0.676   5.651   7.287  0.6456  0.0048 -0.1866
  164MOL    C1742723   0.608   5.575   7.176  0.1349 -0.0832 -0.1234
  164MOL    C1842724   0.531   5.676   7.258  0.9581  0.6205 -0.0434
  164MOL    C1942725   0.783   5.865   7.341  0.3204  0.2082  0.0946
  164MOL    H2042726   0.776   5.759   7.149  1.7654  1.8435 -0.4072
  164MOL    H2142727   0.694   5.583   7.371 -0.0798  0.1353  0.0702
  164MOL    H2242728   0.577   5.472   7.194 -2.7850  0.2987 -2.4954
  164MOL    H2342729   0.615   5.599   7.070 -0.0174 -1.2575 -0.4112
  164MOL    H2442730   0.494   5.753   7.190  0.4809  1.0020  0.6438
  164MOL    H2542731   0.453   5.644   7.327  0.5626  0.7488 -0.4262
  164MOL    H2642732   0.708   5.940   7.318  0.5047  0.3966  0.1040
  164MOL    H2742733   0.870   5.920   7.304  0.0872 -0.1277 -0.9831
  164MOL    C2842734   0.792   5.846   7.493  0.4362 -1.0143 -0.9690
  164MOL    C2942735   0.679   5.919   7.567  0.0481 -0.0307  0.6845
  164MOL    C3042736   0.534   5.870   7.572  0.0917  0.2961  0.5168
  164MOL    C3142737   0.619   5.864   7.695 -0.2948  0.6110 -0.0751
  164MOL    C3242738   0.935   5.880   7.554  0.0618 -0.2420 -0.2948
  164MOL    H3342739   0.782   5.739   7.509 -2.3066 -1.1237 -3.1010
  164MOL    H3442740   0.696   6.025   7.584  0.7625 -0.1359  0.6212
  164MOL    H3542741   0.510   5.777   7.521 -1.0398 -1.1227  3.5130
  164MOL    H3642742   0.456   5.947   7.571  1.7404  1.9967  0.2077
  164MOL    H3742743   0.660   5.770   7.732  4.0409  1.9220 -1.2174
  164MOL    H3842744   0.603   5.934   7.776 -0.2511 -0.3300  0.7485
  164MOL    H3942745   0.950   5.983   7.521  0.6649 -0.0212  0.6425
  164MOL    H4042746   1.023   5.836   7.507  0.7700  1.8299 -0.9326
  164MOL    C4142747   0.964   5.868   7.703  0.1873  0.3395  0.2036
  164MOL    C4242748   1.086   5.951   7.740  0.1241  0.4218  0.0742
  164MOL    C4342749   1.102   6.022   0.025  0.2166 -0.1821 -0.2293
  164MOL    C4442750   1.083   6.104   7.737  0.6790  0.5524 -0.1671
  164MOL    C4542751   0.981   5.719   7.738  0.3889  0.1579 -0.6868
  164MOL    H4642752   0.877   5.910   7.752 -0.6961 -4.3530  2.9191
  164MOL    H4742753   1.176   5.908   7.695  1.3292  1.4661  1.4128
  164MOL    H4842754   1.021   6.030   0.097 -2.1824  0.2331 -2.8307
  164MOL    H4942755   1.200   6.017   0.070  0.9682  1.2671 -1.6454
  164MOL    H5042756   1.166   6.158   7.692  1.7514 -1.0193 -0.1483
  164MOL    H5142757   0.988   6.156   7.737  0.1519 -0.3725  2.4120
  164MOL    H5242758   1.056   5.682   7.669  0.3726  1.0335 -1.1798
  164MOL    H5342759   0.890   5.665   7.712 -1.4051  2.2408  0.9814
  164MOL    C5442760   1.030   5.682   0.042  0.1441  0.3893  0.0710
  164MOL    C5542761   0.919   5.666   0.138  0.1197 -0.4259  0.9239
  164MOL    C5642762   0.884   5.782   0.231 -0.0757  0.6390  0.1148
  164MOL    C5742763   0.951   5.651   0.289  0.0329 -0.2508  0.3134
  164MOL    C5842764   1.127   5.560   0.030 -0.2102  0.2571  0.0353
  164MOL    H5942765   1.088   5.762   0.087  2.4047 -1.0508 -0.2370
  164MOL    H6042766   0.834   5.617   0.091  1.2058 -0.3822 -1.1307
  164MOL    H6142767   0.951   5.867   0.242  0.9602 -0.3770  1.9188
  164MOL    H6242768   0.777   5.789   0.250 -0.1298 -0.6298  0.3798
  164MOL    H6342769   0.877   5.590   0.340 -0.9765 -0.6801 -1.5928
  164MOL    H6442770   1.051   5.648   0.332  0.6976  0.9884 -1.0773
  164MOL    H6542771   1.222   5.597   7.832 -0.6006 -0.5121 -1.7283
  164MOL    H6642772   1.159   5.525   0.128  0.4627  0.2001 -0.2035
  164MOL    C6742773   1.076   5.443   7.782 -0.5054 -1.1606 -0.1202
  164MOL    C6842774   1.190   5.334   7.796  0.5987  0.0559  0.4254
  164MOL    C6942775   1.239   5.239   7.683 -0.2327  0.2965  0.4179
  164MOL    C7042776   1.318   5.356   7.721  0.2441  0.5836 -0.1372
  164MOL    C7142777   0.933   5.389   7.799 -0.9227 -0.6957  0.5795
  164MOL    H7242778   1.082   5.472   7.677 -1.3809 -0.7783 -0.0667
  164MOL    H7342779   1.193   5.264   0.040  1.2397 -0.0064  0.3531
  164MOL    H7442780   1.281   5.143   7.714 -1.7063 -0.6198 -0.3801
  164MOL    H7542781   1.201   5.245   7.582 -1.6311 -0.1633  0.9128
  164MOL    H7642782   1.330   5.439   7.651  1.0234 -0.8894 -1.7990
  164MOL    H7742783   1.413   5.326   7.765  0.4312  0.6334 -0.5076
  164MOL    H7842784   0.864   5.473   7.789  2.0498  1.5835 -1.6650
  164MOL    H7942785   0.932   5.363   0.066 -2.0779  1.2342  1.0632
  164MOL    C8042786   0.877   5.282   7.699 -0.3502 -0.0750 -0.1576
  164MOL    C8142787   0.866   5.339   7.556  0.4594  0.6928 -0.7762
  164MOL    C8242788   0.827   5.262   7.435 -0.0338 -0.1084  0.5632
  164MOL    C8342789   0.963   5.319   7.443  0.9495 -0.5174  0.4910
  164MOL    C8442790   0.742   5.233   7.754 -0.1537  0.1262  0.1529
  164MOL    H8542791   0.944   5.197   7.688  0.7103  0.7730 -0.3467
  164MOL    H8642792   0.829   5.441   7.568 -1.0840  0.0025  0.6016
  164MOL    H8742793   0.769   5.310   7.357  1.6739  0.0432 -0.6316
  164MOL    H8842794   0.809   5.155   7.448  0.0920 -0.1471  0.4091
  164MOL    H8942795   1.044   5.247   7.455  2.1847  0.9226  1.1224
  164MOL    H9042796   0.978   5.392   7.364 -0.0088  0.6367  1.3574
  164MOL    H9142797   0.668   5.312   7.760 -0.4425  0.1526 -3.0679
  164MOL    H9242798   0.696   5.179   7.671  2.8759  0.5002 -1.8576
  164MOL    C9342799   0.740   5.148   0.045 -1.1612  0.5805  0.3488
  164MOL    C9442800   0.608   5.149   0.122 -0.2971  0.0517  0.5738
  164MOL    C9542801   0.582   5.120   0.270 -0.5544 -0.5579 -0.1163
  164MOL    C9642802   0.574   5.258   0.217  0.0974 -0.8530 -0.8994
  164MOL    C9742803   0.777   4.999   0.012  0.5268  0.3580  0.1652
  164MOL    H9842804   0.806   5.190   0.121 -1.4948  1.2626  0.2685
  164MOL    H9942805   0.525   5.134   0.053  0.8225 -0.1784 -0.7524
  164MOL   H10042806   0.489   5.068   0.288 -0.5373 -0.8881 -0.9524
  164MOL   H10142807   0.668   5.095   0.332 -0.7811 -1.1525 -0.0428
  164MOL   H10242808   0.476   5.305   0.221  0.7282  0.3598  2.3020
  164MOL   H10342809   0.655   5.321   0.252 -0.8798  1.4400 -2.6385
  164MOL   H10442810   0.813   4.999   7.749  0.7818 -2.2728  0.2215
  164MOL   H10542811   0.682   4.944   0.007 -0.7946  2.4494  1.3973
  164MOL   C10642812   0.878   4.938   0.115 -0.3182 -0.0861 -0.2547
  164MOL   C10742813   0.880   4.788   0.098 -0.9567 -0.3382  0.7534
  164MOL   C10842814   0.901   4.696   0.217 -0.1471 -0.0522  0.0532
  164MOL   C10942815   0.769   4.698   0.151 -0.7371  0.3084 -0.0481
  164MOL   C11042816   1.020   5.005   0.107  0.2207  0.8681 -0.2571
  164MOL   H11142817   0.835   4.943   0.215  2.3783 -1.5939  1.0349
  164MOL   H11242818   0.893   4.754   7.835 -0.2683  2.4457 -0.1109
  164MOL   H11342819   0.971   4.613   0.211  1.0648  0.8581  1.2487
  164MOL   H11442820   0.900   4.744   0.315  2.2594 -0.2281  0.1984
  164MOL   H11542821   0.681   4.747   0.190 -1.6856 -1.6801  0.3942
  164MOL   H11642822   0.745   4.621   0.078  2.2448  0.7460 -1.5822
  164MOL   H11742823   1.072   4.937   0.040 -1.6321 -1.3916  0.5066
  164MOL   H11842824   1.016   5.111   0.080 -1.2213  0.4384 -1.8518
  164MOL   C11942825   1.103   4.993   0.234 -0.8205 -0.0935 -0.2252
  164MOL   C12042826   1.256   4.997   0.198  1.1614 -0.0606  0.7193
  164MOL   C12142827   1.332   4.875   0.139  0.0368 -0.9057 -0.2419
  164MOL   C12242828   1.360   4.921   0.281 -0.1641 -0.6702 -0.8000
  164MOL   C12342829   1.072   5.102   0.346  0.2392 -0.3894  0.7052
  164MOL   H12442830   1.074   4.896   0.274  2.9151 -0.7792  1.0857
  164MOL   H12542831   1.289   5.085   0.144 -0.2038  0.7789  1.2094
  164MOL   H12642832   1.393   4.913   0.058 -0.6244  0.1542 -0.2558
  164MOL   H12742833   1.280   4.780   0.133 -0.6726 -0.6005  0.8702
  164MOL   H12842834   1.331   4.851   0.359  1.8727 -0.5116  0.1350
  164MOL   H12942835   1.448   4.981   0.305  1.0550 -1.6387 -2.6422
  164MOL   H13042836   1.127   5.193   0.322  1.1490 -0.8115  1.1821
  164MOL   H13142837   0.972   5.145   0.342  0.9618  1.4804  2.1151
  164MOL   C13242838   1.103   5.062   0.491  0.2284  0.0123  0.2239
  164MOL   C13342839   1.008   4.954   0.548 -0.4141  0.2523 -0.5046
  164MOL   C13442840   1.019   4.895   0.686 -0.3354  0.0234 -0.5991
  164MOL   C13542841   1.057   4.815   0.559  0.4404  0.1761 -0.0467
  164MOL   C13642842   1.121   5.188   0.575 -0.3214  0.0885  0.6060
  164MOL   H13742843   1.191   4.999   0.486 -1.5187 -2.4363 -1.0941
  164MOL   H13842844   0.907   4.970   0.510 -0.5911 -0.5829 -0.3914
  164MOL   H13942845   1.107   4.907   0.749 -1.9887  0.1567  1.7502
  164MOL   H14042846   0.929   4.879   0.745  0.4122 -0.6450  0.3645
  164MOL   H14142847   1.165   4.808   0.554  0.5832  0.2856  2.3400
  164MOL   H14242848   1.005   4.725   0.526  0.2529 -0.3604  1.6498
  164MOL   H14342849   1.041   5.258   0.552 -0.3286 -0.6602 -1.7509
  164MOL   H14442850   1.097   5.158   0.677  0.6854 -0.8192  0.5869
  164MOL   C14542851   1.262   5.258   0.592  0.4700  0.3684 -0.0240
  164MOL   C14642852   1.261   5.347   0.710 -0.3979  0.0396  0.3242
  164MOL   C14742853   1.323   5.483   0.713  0.4945  0.2341 -0.3256
  164MOL   C14842854   1.169   5.471   0.715  0.3162 -0.4395  0.3849
  164MOL   C14942855   1.369   5.154   0.588 -0.4311 -0.0822 -0.2985
  164MOL   H15042856   1.282   5.314   0.500 -0.4469  0.3038 -0.2778
  164MOL   H15142857   1.252   5.297   0.806  0.1100 -1.8226 -0.5708
  164MOL   H15242858   1.354   5.539   0.801  1.5660  1.1497 -1.2513
  164MOL   H15342859   1.369   5.535   0.629  0.5880 -0.0330 -0.4393
  164MOL   H15442860   1.129   5.504   0.619 -0.0277  0.3008  0.7744
  164MOL   H15542861   1.123   5.510   0.806 -3.4804  2.4340 -2.5840
  164MOL   H15642862   1.349   5.086   0.671 -0.2515  3.1386  2.4794
  164MOL   H15742863   1.364   5.098   0.495  0.2852 -2.3205  0.9746
  164MOL   C15842864   1.512   5.213   0.606 -0.1770  0.2182 -0.6255
  164MOL   C15942865   1.568   5.251   0.467  0.6043 -0.0132 -0.5861
  164MOL   C16042866   1.550   5.392   0.401 -0.1643  0.1199 -0.0055
  164MOL   C16142867   1.682   5.337   0.434 -0.5077 -0.0526 -0.4673
  164MOL   C16242868   1.602   5.114   0.666  0.5502  0.3144 -0.0258
  164MOL   H16342869   1.512   5.309   0.658  0.2035 -0.7697  1.2604
  164MOL   H16442870   1.565   5.169   0.396  1.2201 -1.8478  1.4650
  164MOL   H16542871   1.509   5.463   0.472 -0.2914  0.9107 -0.8624
  164MOL   H16642872   1.520   5.410   0.298  0.8933  0.2208 -0.3038
  164MOL   H16742873   1.747   5.315   0.349  0.2277  1.3792 -0.2906
  164MOL   H16842874   1.744   5.366   0.519  1.0664  1.9969 -2.2428
  164MOL   H16942875   1.698   5.125   0.615  0.7258  1.0371  0.4420
  164MOL   H17042876   1.557   5.016   0.660  0.9089  0.1425  0.0544
  164MOL   C17142877   1.635   5.135   0.820  0.2539 -0.1999 -0.8961
  164MOL   C17242878   1.708   5.269   0.841  0.1459 -0.3219  0.5506
  164MOL   C17342879   1.812   5.294   0.941  0.1990 -0.3743  1.0515
  164MOL   C17442880   1.849   5.272   0.793  0.3030 -0.4094 -0.0746
  164MOL   C17542881   1.512   5.116   0.914  0.4317  0.2912 -0.3143
  164MOL   H17642882   1.711   5.062   0.849  0.4825  0.1050 -0.7238
  164MOL   H17742883   1.644   5.356   0.826  0.6898 -0.2594 -1.6615
  164MOL   H17842884   1.835   5.392   0.980  0.9991 -0.4755  0.8278
  164MOL   H17942885   1.830   5.209   1.007 -1.5802 -1.9089 -0.3793
  164MOL   H18042886   1.890   5.173   0.773  2.9403  0.4050  1.1026
  164MOL   H18142887   1.874   5.355   0.727  2.0145  0.0896  1.1660
  164MOL   H18242888   1.441   5.049   0.864  1.0695 -0.9803  0.4710
  164MOL   H18342889   1.455   5.208   0.912 -0.7996 -0.4302  0.5391
  164MOL   C18442890   1.544   5.068   1.053  0.1718  0.0345  0.7614
  164MOL   C18542891   1.591   4.928   1.063 -0.4044  0.1901  0.0006
  164MOL   C18642892   1.661   4.871   1.185 -0.9724 -0.6780  0.0124
  164MOL   C18742893   1.735   4.894   1.057 -0.0437 -0.1690  0.0748
  164MOL   C18842894   1.421   5.077   1.143  0.0559  0.0685 -0.7273
  164MOL   H18942895   1.620   5.125   1.107 -0.7564  2.9175 -0.8541
  164MOL   H19042896   1.515   4.861   1.022 -0.2567  0.3864 -0.6083
  164MOL   H19142897   1.668   4.767   1.217  1.3770 -0.5622 -0.0848
  164MOL   H19242898   1.689   4.935   1.268 -3.7170 -0.3910  0.7902
  164MOL   H19342899   1.762   4.795   1.021  0.0300  0.2176 -0.9527
  164MOL   H19442900   1.808   4.975   1.051 -1.0459  0.5809 -2.9847
  164MOL   H19542901   1.445   5.024   1.235 -0.5920  0.5564 -0.2811
  164MOL   H19642902   1.340   5.016   1.104  0.6924 -0.8206 -0.6636
  164MOL   C19742903   1.363   5.214   1.171  0.1728  0.0924 -0.5842
  164MOL   C19842904   1.472   5.312   1.207  0.2704  0.2029  0.6779
  164MOL   C19942905   1.451   5.456   1.222 -0.2667 -0.1131  0.0187
  164MOL   C20042906   1.541   5.411   1.115 -0.3777  0.4926 -0.0364
  164MOL   C20142907   1.268   5.192   1.291 -0.2534 -0.2079 -0.2261
  164MOL   H20242908   1.305   5.248   1.085 -0.3159  2.4405  0.6382
  164MOL   H20342909   1.545   5.269   1.276 -1.3039 -3.4478  0.1955
  164MOL   H20442910   1.362   5.505   1.185  0.4866  1.8324  0.6924
  164MOL   H20542911   1.488   5.493   1.317 -1.1401  0.3177  0.1939
  164MOL   H20642912   1.500   5.420   1.014 -0.8903 -2.9845 -0.2033
  164MOL   H20742913   1.645   5.441   1.127  0.3534 -1.2948 -1.7413
  164MOL   H20842914   1.285   5.104   1.353 -1.4581  0.8405  1.6263
  164MOL   H20942915   1.290   5.277   1.355  0.1374  0.1633 -0.8530
  164MOL   C21042916   1.121   5.184   1.255  0.2239 -0.3940 -0.4131
  164MOL   C21142917   1.082   5.064   1.168  0.1377 -0.2138  0.1279
  164MOL   C21242918   0.965   5.057   1.076 -0.5973 -0.2573 -0.0204
  164MOL   C21342919   1.097   5.095   1.017 -0.2218 -0.0676 -0.0792
  164MOL   C21442920   1.030   5.179   1.385  0.3594 -0.3454  0.2747
  164MOL   H21542921   1.101   5.275   1.199 -0.0346 -0.0860  0.1708
  164MOL   H21642922   1.136   4.979   1.210 -1.4438 -1.8847 -1.1093
  164MOL   H21742923   0.927   4.965   1.032  2.1845 -0.5707 -1.9213
  164MOL   H21842924   0.887   5.124   1.111 -2.1413 -1.2369 -1.5307
  164MOL   H21942925   1.148   5.022   0.955  0.9216  0.5880  0.0840
  164MOL   H22042926   1.117   5.197   0.987  0.5243  0.0694  0.8518
  164MOL   H22142927   0.926   5.159   1.358 -0.2068 -1.5303  3.1307
  164MOL   H22242928   1.070   5.093   1.440  2.2036  0.6685  0.5358
  164MOL   C22342929   1.028   5.297   1.485 -0.0945 -0.2100  1.0610
  164MOL   C22442930   0.932   5.271   1.610 -0.3651  0.1909  0.2679
  164MOL   C22542931   0.994   5.184   1.721 -0.5109 -0.0151 -0.0356
  164MOL   C22642932   0.965   5.335   1.748 -0.2538 -0.3291  0.9468
  164MOL   C22742933   0.982   5.430   1.409 -0.0483  0.8320  0.1240
  164MOL   H22842934   1.131   5.310   1.518 -0.5257  1.6677  1.7457
  164MOL   H22942935   0.830   5.245   1.580 -0.8607  1.2575  1.0035
  164MOL   H23042936   1.091   5.151   1.686  0.4395  1.1214  1.4416
  164MOL   H23142937   0.935   5.115   1.781  0.1854  0.6211  1.4097
  164MOL   H23242938   0.876   5.362   1.805  0.1771  0.8623  1.0731
  164MOL   H23342939   1.053   5.398   1.760 -1.5713  1.6004  0.7335
  164MOL   H23442940   1.039   5.439   1.316  0.1213 -0.7799  0.0658
  164MOL   H23542941   0.877   5.421   1.380  0.2148 -2.2666 -0.0506
  164MOL   C23642942   1.023   5.557   1.480  0.6323 -0.0689 -0.6007
  164MOL   C23742943   0.937   5.667   1.423 -0.8706 -0.1171  0.0025
  164MOL   C23842944   0.802   5.706   1.468 -0.0145  0.1602 -0.1845
  164MOL   C23942945   0.914   5.796   1.501  0.2595 -0.0011  0.2081
  164MOL   C24042946   1.177   5.584   1.468  0.1100 -0.1439 -0.0158
  164MOL   H24142947   0.988   5.544   1.582  1.9899 -0.8335 -0.2276
  164MOL   H24242948   0.957   5.680   1.317 -0.5660  0.2354  0.1013
  164MOL   H24342949   0.734   5.728   1.386 -1.8802 -0.8318  1.0342
  164MOL   H24442950   0.761   5.651   1.553  0.2080  0.5452  0.1720
  164MOL   H24542951   0.920   5.812   1.608  2.6941 -0.7805  0.2209
  164MOL   H24642952   0.928   5.889   1.447 -3.1773 -0.6651 -1.9966
  164MOL   H24742953   1.248   5.502   1.461 -0.5387 -0.7128  0.0149
  164MOL   H24842954   1.193   5.628   1.369 -0.0548  2.0362  0.8971
  164MOL   C24942955   1.238   5.688   1.568  0.4630 -1.0773  0.7576
  164MOL   C25042956   1.385   5.727   1.527 -0.3962  0.1059 -0.0354
  164MOL   C25142957   1.417   5.820   1.415  0.2586  0.2683  0.1942
  164MOL   C25242958   1.444   5.861   1.563  0.9144 -0.6437 -0.2287
  164MOL   C25342959   1.241   5.621   1.710 -0.1608  0.2647 -0.5261
  164MOL   H25442960   1.175   5.777   1.568  1.1360 -0.5619 -1.6912
  164MOL   H25542961   1.447   5.637   1.531  1.7647  1.5548  0.2872
  164MOL   H25642962   1.503   5.799   1.351  0.4698 -0.1005  0.5951
  164MOL   H25742963   1.334   5.859   1.357  1.8138  1.9229 -0.9967
  164MOL   H25842964   1.544   5.853   1.605  0.5446 -0.8473  0.6231
  164MOL   H25942965   1.380   5.938   1.607 -0.5621 -1.6895 -0.5206
  164MOL   H26042966   1.297   5.682   1.781  0.2134 -1.8314  1.0162
  164MOL   H26142967   1.273   5.517   1.716 -1.6576 -0.2858 -1.7526
  164MOL   H26242968   1.138   5.621   1.744  0.1563 -0.7058  0.4588
  165MOL     C142969   5.833   3.542   6.259  0.1918  0.5040 -0.2305
  165MOL     C242970   5.922   3.630   6.169  0.5927 -0.6865  0.3650
  165MOL     C342971   5.979   3.582   6.033 -0.4468 -0.4762  0.0693
  165MOL     C442972   6.073   3.616   6.151  0.3292 -0.2473  0.0411
  165MOL     C542973   5.683   3.551   6.226 -0.2769  0.2523 -0.7053
  165MOL     H642974   5.877   3.444   6.239 -0.3822  0.2473 -0.2395
  165MOL     H742975   5.887   3.733   6.178 -0.2244 -0.7446 -1.8323
  165MOL     H842976   5.955   3.479   6.010  0.6016 -0.7394  0.1002
  165MOL     H942977   5.975   3.651   5.949 -0.2994 -0.2947  0.2098
  165MOL    H1042978   6.131   3.708   6.140 -1.6127  0.8380 -1.2721
  165MOL    H1142979   6.131   3.533   6.192 -0.6473 -0.3330  1.2913
  165MOL    H1242980   5.678   3.526   6.120  1.7630  0.0896 -0.7830
  165MOL    H1342981   5.678   3.660   6.233 -0.8573  0.1768  0.1883
  165MOL    H1442982   5.857   3.560   6.364 -0.9698  0.7157  0.0008
  165MOL    C1542983   5.588   3.462   6.309 -0.2830 -0.1630  0.1856
  165MOL    C1642984   5.445   3.497   6.276  0.0272 -0.2735  0.4741
  165MOL    C1742985   5.387   3.614   6.352 -1.1450 -0.0182  0.4060
  165MOL    C1842986   5.339   3.471   6.378  0.3826  0.0783  0.1806
  165MOL    C1942987   5.620   3.317   6.268 -0.7056  0.2068  0.5009
  165MOL    H2042988   5.617   3.472   6.414 -2.2557  2.1392  0.5423
  165MOL    H2142989   5.430   3.489   6.169  0.2171  0.2237  0.4130
  165MOL    H2242990   5.334   3.678   6.282  1.2219  0.0065 -1.4396
  165MOL    H2342991   5.450   3.666   6.424  1.8130 -0.5824 -1.6609
  165MOL    H2442992   5.369   3.420   6.469  0.3801  1.7670  1.1582
  165MOL    H2542993   5.239   3.443   6.347 -0.2607  1.8280  0.6002
  165MOL    H2642994   5.728   3.307   6.260 -0.6961  0.8251 -0.1984
  165MOL    H2742995   5.570   3.294   6.174  0.3900  0.3125 -0.1166
  165MOL    C2842996   5.585   3.207   6.377  0.4037  0.4162  0.3366
  165MOL    C2942997   5.676   3.220   6.506  0.2919  0.0432  0.2160
  165MOL    C3042998   5.641   3.323   6.613  0.0015  0.6541 -0.2859
  165MOL    C3142999   5.621   3.174   6.635  0.4816  0.0102  0.3651
  165MOL    C3243000   5.557   3.067   6.326  0.3427 -0.3230 -0.3193
  165MOL    H3343001   5.481   3.231   6.400  0.3261  0.2932  0.1204
  165MOL    H3443002   5.782   3.225   6.482  0.3014 -0.0161  0.2474
  165MOL    H3543003   5.558   3.390   6.594 -1.1301 -0.8616 -0.7689
  165MOL    H3643004   5.721   3.380   6.658  0.0421  0.8828 -0.6432
  165MOL    H3743005   5.525   3.123   6.632  0.7003 -0.4495  0.9758
  165MOL    H3843006   5.693   3.119   6.696  1.0852  0.4637  0.0666
  165MOL    H3943007   5.489   3.077   6.241 -1.6356  1.1091  1.3893
  165MOL    H4043008   5.502   3.013   6.404 -1.8804  3.5122  0.8758
  165MOL    C4143009   5.664   2.961   6.282  0.0677 -0.3534 -0.1350
  165MOL    C4243010   5.756   3.015   6.179 -0.1297  0.3106 -0.0698
  165MOL    C4343011   5.894   2.967   6.160 -0.4617  0.5302  0.5518
  165MOL    C4443012   5.870   3.096   6.226 -0.4970 -0.3067  0.4303
  165MOL    C4543013   5.599   2.825   6.236 -0.4213 -0.5612 -0.2932
  165MOL    H4643014   5.721   2.941   6.373 -0.8002  1.1937  0.7867
  165MOL    H4743015   5.693   3.058   6.100 -0.7016  1.8523  1.1954
  165MOL    H4843016   5.913   2.885   6.228 -0.4293  1.2810  1.4643
  165MOL    H4943017   5.929   2.965   6.057 -2.4518 -0.3897 -0.1188
  165MOL    H5043018   5.908   3.184   6.174  2.2201 -1.3501  0.5339
  165MOL    H5143019   5.874   3.096   6.334 -2.6025 -0.1646  0.5173
  165MOL    H5243020   5.636   2.800   6.136 -0.7191 -1.2342 -0.2372
  165MOL    H5343021   5.491   2.836   6.226 -0.7089 -1.5935  1.4877
  165MOL    C5443022   5.616   2.702   6.336  0.6977 -0.4892  0.3227
  165MOL    C5543023   5.760   2.658   6.343 -0.0375  0.1632  0.5810
  165MOL    C5643024   5.813   2.569   6.233  0.3733  0.5127  0.0784
  165MOL    C5743025   5.786   2.512   6.367 -0.3061  0.5794  0.0670
  165MOL    C5843026   5.561   2.726   6.479 -0.7964 -0.6862 -0.3617
  165MOL    H5943027   5.556   2.618   6.301 -0.2011 -0.3413  1.4846
  165MOL    H6043028   5.834   2.725   6.387  0.1134  0.1824  0.2945
  165MOL    H6143029   5.750   2.552   6.146 -1.2897 -0.1568  1.3837
  165MOL    H6243030   5.919   2.579   6.209  0.7126  2.7315  2.2765
  165MOL    H6343031   5.867   2.482   6.433  0.8708 -1.0086 -2.0332
  165MOL    H6443032   5.700   2.445   6.370 -2.4446  3.2661  0.7030
  165MOL    H6543033   5.584   2.647   6.549  0.0696  1.2878  1.6377
  165MOL    H6643034   5.620   2.814   6.507 -1.9090 -0.0653  0.0454
  165MOL    C6743035   5.407   2.752   6.490  0.3292 -0.4036 -0.0533
  165MOL    C6843036   5.332   2.621   6.497  0.7247  0.0268  0.1270
  165MOL    C6943037   5.193   2.610   6.442  0.4033  0.0857  0.1439
  165MOL    C7043038   5.303   2.530   6.375  0.2452 -0.4071  0.5504
  165MOL    C7143039   5.367   2.825   6.609  0.4440 -0.1842  0.1129
  165MOL    H7243040   5.384   2.812   6.402  0.9260 -1.0084 -0.6270
  165MOL    H7343041   5.347   2.561   6.586 -1.2224 -1.3692 -0.4407
  165MOL    H7443042   5.117   2.555   6.497  1.3231  0.7740  2.1539
  165MOL    H7543043   5.150   2.694   6.387  3.4400  0.8651 -1.1763
  165MOL    H7643044   5.336   2.564   6.278 -0.8656  0.3905  0.4377
  165MOL    H7743045   5.323   2.426   6.400 -4.2551 -1.6312 -0.4059
  165MOL    H7843046   5.446   2.900   6.623  2.1794 -2.2164  1.6647
  165MOL    H7943047   5.370   2.765   6.700 -0.9472 -1.6709 -0.7959
  165MOL    C8043048   5.227   2.896   6.607 -0.4843 -0.2901  0.7429
  165MOL    C8143049   5.225   3.021   6.521 -0.3259 -1.1292 -0.1602
  165MOL    C8243050   5.092   3.089   6.485 -0.8285  0.6343  0.0393
  165MOL    C8343051   5.186   3.030   6.377  0.4604  0.2853 -0.6090
  165MOL    C8443052   5.181   2.934   6.751  0.0460  0.7802 -0.3022
  165MOL    H8543053   5.145   2.834   6.572 -2.2559  1.2479  2.0295
  165MOL    H8643054   5.299   3.091   6.559 -1.5229 -0.5102  1.0654
  165MOL    H8743055   5.095   3.196   6.505  1.3089  0.7396 -0.8309
  165MOL    H8843056   4.999   3.037   6.509 -0.4272 -0.1771 -0.1679
  165MOL    H8943057   5.147   2.936   6.338  0.8808 -0.1241 -0.0533
  165MOL    H9043058   5.248   3.090   6.312  0.7377  1.3362  0.6046
  165MOL    H9143059   5.264   2.985   6.799 -0.0495  1.8791 -1.2740
  165MOL    H9243060   5.115   3.019   6.733 -0.7773 -0.0872 -1.4400
  165MOL    C9343061   5.113   2.830   6.843  0.0570 -0.0605  0.5350
  165MOL    C9443062   4.989   2.781   6.772 -0.1053  0.1906 -0.2448
  165MOL    C9543063   4.850   2.771   6.839  0.0283  0.0387  0.2389
  165MOL    C9643064   4.883   2.881   6.735  0.5590 -0.3644  0.8764
  165MOL    C9743065   5.208   2.713   6.884  0.4650  0.2578  0.4857
  165MOL    H9843066   5.077   2.881   6.932 -0.1065  1.1779 -0.2292
  165MOL    H9943067   5.007   2.708   6.694  0.1733 -1.2704  1.1599
  165MOL   H10043068   4.768   2.716   6.794 -1.8132  1.8590  1.2630
  165MOL   H10143069   4.834   2.793   6.944  0.7565  0.6551  0.2268
  165MOL   H10243070   4.869   2.876   6.628 -0.2175 -1.8775  1.0262
  165MOL   H10343071   4.881   2.983   6.772 -1.0610 -0.2620  0.5447
  165MOL   H10443072   5.300   2.759   6.922  0.0615  1.6156 -0.1422
  165MOL   H10543073   5.240   2.649   6.802  0.4677  0.4995  0.2999
  165MOL   C10643074   5.141   2.619   6.991  0.2286  0.1194 -0.3803
  165MOL   C10743075   5.093   2.478   6.943 -0.4508 -0.0717  0.2300
  165MOL   C10843076   5.027   2.368   7.019 -0.0641  0.2471 -0.2382
  165MOL   C10943077   4.946   2.455   6.929 -0.3263 -0.9114  0.0365
  165MOL   C11043078   5.231   2.605   7.122 -0.4773 -0.4573 -0.7135
  165MOL   H11143079   5.057   2.679   7.027  0.0827  0.7985 -1.8304
  165MOL   H11243080   5.167   2.444   6.871 -0.3612  1.4123 -0.4142
  165MOL   H11343081   5.022   2.264   6.989 -1.5401 -0.1892  1.4270
  165MOL   H11443082   5.022   2.373   7.128 -2.3618 -4.7327  0.0030
  165MOL   H11543083   4.869   2.508   6.984 -2.3303 -1.3716 -2.2612
  165MOL   H11643084   4.917   2.428   6.828  0.6555 -2.8682  0.2524
  165MOL   H11743085   5.190   2.544   7.202  1.5644 -0.7623  0.1260
  165MOL   H11843086   5.318   2.544   7.096  0.0548 -0.0004 -0.0135
  165MOL   C11943087   5.288   2.736   7.187  0.7095 -0.1334  0.7501
  165MOL   C12043088   5.163   2.821   7.229 -0.5836 -0.9921  0.3083
  165MOL   C12143089   5.151   2.905   7.354  0.0308  0.2485  0.0204
  165MOL   C12243090   5.073   2.775   7.342  0.1950 -0.8512  0.1868
  165MOL   C12343091   5.387   2.710   7.302 -0.5448 -0.3410 -0.5973
  165MOL   H12443092   5.348   2.795   7.117 -1.1339 -1.4816 -2.0594
  165MOL   H12543093   5.117   2.868   7.143  0.8054  0.9169  0.5903
  165MOL   H12643094   5.090   2.994   7.343  0.7192  0.5410 -1.6119
  165MOL   H12743095   5.242   2.910   7.414  0.4619 -0.5987 -0.5621
  165MOL   H12843096   5.097   2.696   7.413 -3.0132 -0.1468  2.1462
  165MOL   H12943097   4.966   2.779   7.323 -0.1404 -1.4216  1.8518
  165MOL   H13043098   5.410   2.807   7.347 -0.6362 -0.4713 -0.2675
  165MOL   H13143099   5.341   2.645   7.377  1.5014 -0.8884  0.2084
  165MOL   C13243100   5.521   2.649   7.257  0.6239 -0.2634 -0.0566
  165MOL   C13343101   5.593   2.613   7.383  0.2841  0.6125  0.7550
  165MOL   C13443102   5.693   2.505   7.382 -0.4996  0.5204 -0.6178
  165MOL   C13543103   5.569   2.478   7.455  0.4232  0.1907 -0.4197
  165MOL   C13643104   5.610   2.751   7.174 -0.1464 -0.1223 -0.1671
  165MOL   H13743105   5.516   2.556   7.200 -1.0452 -0.5906  0.5891
  165MOL   H13843106   5.620   2.695   7.449 -0.2935  0.1301  1.6034
  165MOL   H13943107   5.724   2.449   7.294 -1.1986 -0.1169 -0.4587
  165MOL   H14043108   5.778   2.542   7.440  0.7943  0.5402 -2.4866
  165MOL   H14143109   5.506   2.412   7.396 -0.5566  1.2389 -0.5529
  165MOL   H14243110   5.567   2.481   7.564 -2.0000  1.3208 -0.4587
  165MOL   H14343111   5.564   2.850   7.175 -2.3801 -1.0849 -2.7064
  165MOL   H14443112   5.705   2.759   7.228 -0.1223  0.1490 -0.2485
  165MOL   C14543113   5.639   2.707   7.023  0.2071  0.3027 -1.1855
  165MOL   C14643114   5.681   2.831   6.941 -0.3192  0.1008 -0.2756
  165MOL   C14743115   5.642   2.840   6.794 -0.7223  0.3644  0.2334
  165MOL   C14843116   5.582   2.936   6.905 -0.1350 -0.4485  0.3055
  165MOL   C14943117   5.732   2.590   7.016 -0.6822  0.2638 -0.3482
  165MOL   H15043118   5.544   2.669   6.986 -0.7014  4.3264 -3.3380
  165MOL   H15143119   5.781   2.864   6.966 -0.4022 -0.4190  0.7948
  165MOL   H15243120   5.702   2.881   6.713 -1.8263 -1.1252 -1.3981
  165MOL   H15343121   5.580   2.756   6.762 -1.7049  1.1350  0.0760
  165MOL   H15443122   5.474   2.921   6.901 -0.0756 -0.4918 -1.9377
  165MOL   H15543123   5.619   3.039   6.898  0.6552 -0.8072 -0.9459
  165MOL   H15643124   5.835   2.604   7.051 -1.0506 -1.1328  1.3277
  165MOL   H15743125   5.703   2.520   7.093  1.6451 -0.3807 -0.0058
  165MOL   C15843126   5.720   2.510   6.881  0.9444 -0.0938  1.1989
  165MOL   C15943127   5.612   2.405   6.882 -0.5806 -0.0275 -0.0304
  165MOL   C16043128   5.470   2.445   6.845  0.2139  0.2963 -0.2776
  165MOL   C16143129   5.554   2.357   6.752 -0.5842  0.3780 -0.2224
  165MOL   C16243130   5.858   2.443   6.842  0.5215 -0.6612  0.3723
  165MOL   H16343131   5.706   2.585   6.803  0.3585  0.3365  1.7148
  165MOL   H16443132   5.618   2.333   6.963  1.8823  1.7479  1.4337
  165MOL   H16543133   5.448   2.541   6.799  0.9638  0.1067 -1.0550
  165MOL   H16643134   5.392   2.391   6.899  1.5353 -0.3447  1.0487
  165MOL   H16743135   5.600   2.414   6.671  0.1963  0.7403  0.4654
  165MOL   H16843136   5.536   2.250   6.738 -0.2371  0.4940 -1.7203
  165MOL   H16943137   5.840   2.393   6.747  0.3768  0.1725 -0.0405
  165MOL   H17043138   5.885   2.363   6.912 -0.9015 -2.1078 -0.6802
  165MOL   C17143139   5.986   2.526   6.827 -0.6930  1.0577 -0.0257
  165MOL   C17243140   6.113   2.442   6.797  0.3437 -0.2104  0.3121
  165MOL   C17343141   6.240   2.480   6.864 -0.0048  0.4750  0.1507
  165MOL   C17443142   6.179   2.343   6.891 -0.3260  0.2053 -0.0391
  165MOL   C17543143   5.973   2.626   6.708 -0.0356 -0.3585  0.1052
  165MOL   H17643144   6.010   2.586   6.915  0.4007  1.1961 -0.4036
  165MOL   H17743145   6.121   2.415   6.692  1.4506  1.2240  0.0133
  165MOL   H17843146   6.314   2.486   6.784 -0.0613 -0.1241  0.0514
  165MOL   H17943147   6.238   2.551   6.947  1.7174  2.1973 -1.2171
  165MOL   H18043148   6.154   2.336   6.996  1.9777 -0.3871  0.5131
  165MOL   H18143149   6.231   2.258   6.847  1.0353  1.6806 -1.3610
  165MOL   H18243150   5.876   2.674   6.720  0.3584  0.2351  0.9311
  165MOL   H18343151   5.968   2.572   6.614 -0.8649  1.0343 -0.6776
  165MOL   C18443152   6.080   2.740   6.706 -0.2741  0.3775  0.1403
  165MOL   C18543153   6.008   2.880   6.716  0.4502 -0.1155  0.0057
  165MOL   C18643154   6.089   3.005   6.748  0.3884 -0.0847 -0.8117
  165MOL   C18743155   5.991   2.950   6.848  0.4813  0.5880 -0.2541
  165MOL   C18843156   6.168   2.723   6.590 -0.0418  0.1883 -0.1798
  165MOL   H18943157   6.148   2.739   6.792 -0.3032 -1.3827  0.1622
  165MOL   H19043158   5.926   2.889   6.645 -0.2625 -2.0354  0.5685
  165MOL   H19143159   6.060   3.096   6.696  2.3998  0.0237 -1.7892
  165MOL   H19243160   6.195   2.996   6.770  0.5520 -1.4064 -2.0698
  165MOL   H19343161   5.905   3.016   6.853 -0.2698 -0.4362  0.6843
  165MOL   H19443162   6.018   2.875   6.922 -0.4875 -0.0200 -0.5118
  165MOL   H19543163   6.113   2.759   6.503  0.0623 -1.5868 -0.9911
  165MOL   H19643164   6.198   2.620   6.575  1.2543  0.2256  1.9188
  165MOL   C19743165   6.306   2.796   6.577 -0.0673  0.1531  0.1970
  165MOL   C19843166   6.345   2.769   6.429  0.2056  0.2152  0.4246
  165MOL   C19943167   6.426   2.859   6.340  0.3402 -1.0246  0.7951
  165MOL   C20043168   6.275   2.852   6.329  0.2651 -0.1234  0.2994
  165MOL   C20143169   6.411   2.738   6.676  0.2960  0.1430 -0.3359
  165MOL   H20243170   6.286   2.901   6.597 -1.8206 -0.2639  0.6921
  165MOL   H20343171   6.343   2.664   6.400 -0.9007  0.3079  0.1160
  165MOL   H20443172   6.441   2.955   6.389 -1.1907 -0.4430  0.1466
  165MOL   H20543173   6.498   2.828   6.264 -0.3244 -1.8458  0.4978
  165MOL   H20643174   6.230   2.948   6.353 -1.2896 -0.9863  0.9262
  165MOL   H20743175   6.240   2.799   6.240 -1.0600  2.6847 -0.9407
  165MOL   H20843176   6.366   2.755   6.774 -2.1670 -1.3033 -1.1859
  165MOL   H20943177   6.434   2.633   6.660  1.0120  0.3836 -0.9347
  165MOL   C21043178   6.547   2.821   6.672 -0.3363 -0.4060 -0.3968
  165MOL   C21143179   6.533   2.948   6.758 -0.5321  0.2688  0.4408
  165MOL   C21243180   6.601   3.080   6.724 -0.1388 -0.1587  0.0388
  165MOL   C21343181   6.452   3.058   6.702  0.1176  0.3005 -0.1760
  165MOL   C21443182   6.679   2.750   6.700 -0.3510  0.5499 -0.3591
  165MOL   H21543183   6.544   2.850   6.566  0.5283 -0.9125 -0.5651
  165MOL   H21643184   6.529   2.928   6.865 -0.0700 -0.1391  0.3845
  165MOL   H21743185   6.628   3.138   6.812 -0.2037  1.3186 -0.8855
  165MOL   H21843186   6.663   3.092   6.635  0.0124  0.5735  0.2402
  165MOL   H21943187   6.377   3.106   6.766 -2.1322 -1.8977 -1.0643
  165MOL   H22043188   6.429   3.066   6.596 -0.9405 -1.6311 -0.1205
  165MOL   H22143189   6.759   2.821   6.680  0.3877 -0.5837 -1.5569
  165MOL   H22243190   6.684   2.722   6.805 -1.6630 -1.1518 -0.7217
  165MOL   C22343191   6.721   2.629   6.618 -0.2638 -0.5029  0.3428
  165MOL   C22443192   6.835   2.555   6.679  0.2993 -0.3662  0.2890
  165MOL   C22543193   6.821   2.473   6.800 -0.5385  0.4672 -0.1924
  165MOL   C22643194   6.853   2.403   6.670 -0.4346  0.0957  0.4023
  165MOL   C22743195   6.758   2.674   6.475 -0.0535  0.6345 -0.1876
  165MOL   H22843196   6.634   2.563   6.609 -1.1442  0.4744  1.6080
  165MOL   H22943197   6.920   2.619   6.696 -0.4112  0.2454  1.5877
  165MOL   H23043198   6.719   2.451   6.829  0.5549 -0.4645  3.1286
  165MOL   H23143199   6.902   2.479   6.872 -0.3961  0.1114 -0.3194
  165MOL   H23243200   6.955   2.374   6.647 -0.3683 -0.4064  1.2998
  165MOL   H23343201   6.778   2.343   6.618 -0.0528  1.1050 -1.3256
  165MOL   H23443202   6.699   2.754   6.429 -1.1150 -0.0363  0.0103
  165MOL   H23543203   6.858   2.719   6.481  0.8601 -1.4117  0.2998
  165MOL   C23643204   6.763   2.558   6.366 -0.6263  0.8302 -0.1310
  165MOL   C23743205   6.795   2.624   6.230 -0.7224  0.2657 -0.4119
  165MOL   C23843206   6.932   2.691   6.213  0.3950  0.6002 -0.0462
  165MOL   C23943207   6.900   2.565   6.138 -0.0824  0.0014 -0.5647
  165MOL   C24043208   6.636   2.471   6.360  0.1351  0.7254 -0.7086
  165MOL   H24143209   6.852   2.503   6.397  0.4223  0.9822 -2.7351
  165MOL   H24243210   6.717   2.685   6.185 -1.3364  0.4103  0.8161
  165MOL   H24343211   6.931   2.789   6.164 -0.7668  0.2897 -0.6640
  165MOL   H24443212   7.003   2.677   6.294 -0.6350  0.5918  0.8543
  165MOL   H24543213   6.973   2.492   6.170 -0.6631 -0.4391 -0.2370
  165MOL   H24643214   6.877   2.572   6.032 -1.0801  0.5747 -0.3211
  165MOL   H24743215   6.615   2.407   6.446 -1.3184 -0.8639 -2.1858
  165MOL   H24843216   6.561   2.549   6.367  1.3177  1.9830 -1.8462
  165MOL   C24943217   6.610   2.383   6.227 -0.2005  0.1256 -0.4273
  165MOL   C25043218   6.461   2.351   6.209  0.2610  0.1635 -0.0444
  165MOL   C25143219   6.370   2.454   6.171  0.2512  0.2887 -0.1226
  165MOL   C25243220   6.387   2.342   6.075 -0.2940  0.2004  0.5546
  165MOL   C25343221   6.703   2.260   6.217 -0.0840  0.1410  0.5368
  165MOL   H25443222   6.634   2.445   6.141 -0.0361 -0.6968 -0.9818
  165MOL   H25543223   6.431   2.273   6.279 -2.1814 -1.5750 -2.9019
  165MOL   H25643224   6.296   2.443   6.250 -0.6600  0.8584 -0.8875
  165MOL   H25743225   6.410   2.547   6.132  1.5195 -0.5870 -0.9541
  165MOL   H25843226   6.328   2.251   6.077  0.0037  0.0025  0.3466
  165MOL   H25943227   6.430   2.371   5.979 -0.9310  2.4673  0.9195
  165MOL   H26043228   6.701   2.191   6.301  0.5792  0.0299  0.4630
  165MOL   H26143229   6.807   2.292   6.216 -0.3637  1.0522  0.5931
  165MOL   H26243230   6.681   2.199   6.130  0.3681 -0.3328  0.7558
  166MOL     C143231   6.562   0.057   0.299 -0.4224  0.9076  0.1422
  166MOL     C243232   6.412   0.073   0.335  0.3639  0.0128 -0.0852
  166MOL     C343233   6.311   7.797   0.316 -0.2716 -0.0844  0.4940
  166MOL     C443234   6.307   0.083   0.231  0.1358  0.5858 -0.4675
  166MOL     C543235   6.615   0.196   0.251  0.5417 -0.7416  0.4365
  166MOL     H643236   6.614   0.036   0.393  0.6084 -3.7515 -1.3577
  166MOL     H743237   6.398   0.137   0.422 -0.0644 -2.4164  1.7098
  166MOL     H843238   6.348   7.705   0.271 -0.4192  0.4405 -0.7106
  166MOL     H943239   6.225   7.789   0.383  0.3884 -1.1366  1.2365
  166MOL    H1043240   6.234   0.159   0.256 -1.3693 -1.6250  2.1918
  166MOL    H1143241   6.345   0.075   0.130  1.5379 -2.0270  0.2087
  166MOL    H1243242   6.578   0.280   0.310 -1.1655 -1.0563 -0.1322
  166MOL    H1343243   6.562   0.221   0.159  1.9817  0.3118 -0.1211
  166MOL    H1443244   6.579   7.810   0.236 -1.9621  0.5361  0.2134
  166MOL    C1543245   6.768   0.206   0.246  0.4651 -0.2506  0.8502
  166MOL    C1643246   6.821   0.119   0.130  0.0263  0.6202 -0.1732
  166MOL    C1743247   6.858   7.811   0.137 -0.1557 -0.0051  0.2490
  166MOL    C1843248   6.969   0.073   0.125 -0.6884 -0.4751  0.0777
  166MOL    C1943249   6.823   0.353   0.216 -0.2961  0.4945  0.0220
  166MOL    H2043250   6.810   0.176   0.342 -0.2115 -0.8095  0.9778
  166MOL    H2143251   6.778   0.140   0.032 -1.0469 -1.8150 -0.2562
  166MOL    H2243252   6.837   7.749   0.050  1.0785 -1.2853  0.8627
  166MOL    H2343253   6.849   7.762   0.233 -0.7975 -1.1379 -0.3775
  166MOL    H2443254   7.033   0.104   0.207 -0.3649 -0.0884 -0.3209
  166MOL    H2543255   7.017   0.074   0.027 -2.2367 -1.3896 -0.7012
  166MOL    H2643256   6.758   0.407   0.147 -0.4502  1.4797  0.9222
  166MOL    H2743257   6.923   0.347   0.174 -0.2239 -1.3440  0.3781
  166MOL    C2843258   6.843   0.440   0.350  0.6924  0.3588 -0.1691
  166MOL    C2943259   6.708   0.505   0.387 -0.3311  0.4276  0.5250
  166MOL    C3043260   6.648   0.483   0.517 -0.0593 -0.5103 -0.3163
  166MOL    C3143261   6.700   0.617   0.482  0.6373 -0.3636 -0.2791
  166MOL    C3243262   6.959   0.547   0.331  0.0359  0.0318 -0.2826
  166MOL    H3343263   6.878   0.379   0.432  2.3603  1.2173 -0.2307
  166MOL    H3443264   6.642   0.514   0.300 -1.1355 -2.0015  0.8580
  166MOL    H3543265   6.540   0.467   0.514 -0.1443  0.3604 -3.8701
  166MOL    H3643266   6.692   0.434   0.604 -2.8151  0.1424  1.5307
  166MOL    H3743267   6.795   0.653   0.521  1.6756 -0.8026 -2.3591
  166MOL    H3843268   6.634   0.704   0.487  1.8945  0.5492  0.9160
  166MOL    H3943269   6.922   0.644   0.365 -1.3924 -0.4991 -0.3007
  166MOL    H4043270   6.979   0.554   0.224  1.3806  0.0406 -0.0421
  166MOL    C4143271   7.088   0.527   0.418  0.2268 -0.2433  0.2799
  166MOL    C4243272   7.064   0.563   0.561  0.1983  0.5420 -0.4309
  166MOL    C4343273   7.144   0.504   0.673 -0.7645 -0.0621  0.1232
  166MOL    C4443274   6.998   0.469   0.654  0.0167 -0.2009  0.2867
  166MOL    C4543275   7.202   0.614   0.361 -0.0835  0.0131  0.3803
  166MOL    H4643276   7.115   0.422   0.405  0.2941 -0.2771  0.6732
  166MOL    H4743277   7.029   0.666   0.568 -0.3341  0.3322  0.0941
  166MOL    H4843278   7.224   0.435   0.650  1.3271  2.7300 -1.2857
  166MOL    H4943279   7.170   0.565   0.760 -0.3168  1.5333 -1.1094
  166MOL    H5043280   6.922   0.509   0.720 -2.2311 -0.8392 -1.8117
  166MOL    H5143281   6.988   0.366   0.623 -1.5627  0.0934 -0.2365
  166MOL    H5243282   7.205   0.720   0.385  0.9488 -0.1043  0.8129
  166MOL    H5343283   7.184   0.618   0.254 -2.6794  0.1192  0.7887
  166MOL    C5443284   7.345   0.548   0.392 -0.3600 -0.5156 -0.1552
  166MOL    C5543285   7.360   0.410   0.323  0.2266  0.5673  0.2606
  166MOL    C5643286   7.377   0.279   0.401 -0.0502 -0.2312 -0.4687
  166MOL    C5743287   7.494   0.333   0.332  0.9711 -0.3527 -0.2014
  166MOL    C5843288   7.446   0.651   0.331  0.4188 -0.0142 -0.1418
  166MOL    H5943289   7.350   0.548   0.501  0.2739  0.9765 -0.1701
  166MOL    H6043290   7.300   0.395   0.234  1.4337 -2.7688 -0.0806
  166MOL    H6143291   7.387   0.279   0.510 -3.0671 -0.8268 -0.1510
  166MOL    H6243292   7.334   0.185   0.367 -0.1956 -0.1474 -0.5178
  166MOL    H6343293   7.522   0.289   0.237 -0.2410  0.6412 -1.0256
  166MOL    H6443294   7.571   0.367   0.401  2.2114 -1.9647 -0.7597
  166MOL    H6543295   7.534   0.615   0.277  0.5920  0.2409 -0.0304
  166MOL    H6643296   7.397   0.711   0.254 -0.0361  1.3901  1.2269
  166MOL    C6743297   7.512   0.738   0.434  0.1591  1.0933  0.0671
  166MOL    C6843298   7.419   0.818   0.519 -0.5930 -0.1500  0.1539
  166MOL    C6943299   7.449   0.952   0.566  0.3880  0.1487  0.2679
  166MOL    C7043300   7.342   0.927   0.464  0.7124  0.7686  0.0820
  166MOL    C7143301   7.621   0.680   0.531 -0.1392  0.2195  0.1653
  166MOL    H7243302   7.559   0.815   0.371  1.5933  1.2456  1.2764
  166MOL    H7343303   7.373   0.754   0.594 -1.4555  1.2830  0.8722
  166MOL    H7443304   7.404   0.981   0.660 -3.6876  0.7788 -1.7824
  166MOL    H7543305   7.543   1.001   0.540  0.0311  0.4476 -0.4521
  166MOL    H7643306   7.356   0.955   0.360  0.8595  2.2467  0.4869
  166MOL    H7743307   7.238   0.927   0.497  0.2716 -1.8935 -1.1280
  166MOL    H7843308   7.565   0.601   0.582 -2.0327  1.7002  0.4555
  166MOL    H7943309   7.644   0.741   0.618  2.4797 -0.2547 -0.1586
  166MOL    C8043310   7.758   0.630   0.464  0.4828  0.4083 -0.7649
  166MOL    C8143311   7.836   0.565   0.574 -0.1231  0.2303  0.1556
  166MOL    C8243312   0.077   0.440   0.539  0.1813 -0.2782  0.7770
  166MOL    C8343313   7.796   0.433   0.634  0.2256 -0.4227 -0.0007
  166MOL    C8443314   0.001   0.749   0.409  0.2591  0.2167  0.6364
  166MOL    H8543315   7.717   0.555   0.397 -0.3018  0.1668 -0.0172
  166MOL    H8643316   0.047   0.627   0.647  0.6293  0.3609 -0.4662
  166MOL    H8743317   0.174   0.418   0.585  1.3619  2.0707 -0.5174
  166MOL    H8843318   0.065   0.387   0.445 -0.9955  0.2666  0.6123
  166MOL    H8943319   7.709   0.387   0.587  0.4661 -0.0319 -0.8401
  166MOL    H9043320   7.805   0.423   0.742  1.0282 -0.0823 -0.0376
  166MOL    H9143321   7.780   0.831   0.371 -0.1547  0.1813  1.2200
  166MOL    H9243322   0.063   0.785   0.491  0.6145 -0.1318  0.5244
  166MOL    C9343323   0.103   0.700   0.303  0.3760 -0.8298  0.0749
  166MOL    C9443324   0.037   0.658   0.172  0.1686 -0.4137  0.9861
  166MOL    C9543325   0.113   0.569   0.066 -0.4682 -0.1988  0.4577
  166MOL    C9643326   7.824   0.519   0.137  0.4781 -0.3106  0.3266
  166MOL    C9743327   0.208   0.800   0.265 -0.3281 -0.7963  0.0970
  166MOL    H9843328   0.161   0.616   0.341  0.9825 -0.6256 -0.3804
  166MOL    H9943329   7.799   0.730   0.146 -0.0461 -2.2627 -3.8592
  166MOL   H10043330   0.101   0.595   7.801 -3.1890  0.5821  0.9337
  166MOL   H10143331   0.195   0.498   0.077 -0.1544 -0.4620 -3.0244
  166MOL   H10243332   7.724   0.503   0.097  0.5467  0.3195 -0.1059
  166MOL   H10343333   7.839   0.435   0.205 -1.3138 -0.5520  0.4563
  166MOL   H10443334   0.159   0.897   0.258  1.3659  0.3319  2.7844
  166MOL   H10543335   0.245   0.771   0.167 -0.8099 -2.4965  0.3979
  166MOL   C10643336   0.323   0.835   0.362  0.6981 -0.6947  0.1517
  166MOL   C10743337   0.407   0.714   0.391  0.6474  0.2153  0.0541
  166MOL   C10843338   0.515   0.726   0.509 -0.0914  0.2510  0.4785
  166MOL   C10943339   0.391   0.633   0.514  0.0354  0.3192 -0.2877
  166MOL   C11043340   0.417   0.945   0.312  0.0832 -0.5264  0.3234
  166MOL   H11143341   0.280   0.882   0.450 -0.6101 -0.2398 -0.7145
  166MOL   H11243342   0.431   0.650   0.307  2.3517 -0.1803  0.8177
  166MOL   H11343343   0.508   0.809   0.580 -2.6956 -0.3466  0.9539
  166MOL   H11443344   0.617   0.693   0.490 -0.3720 -0.0670 -0.4687
  166MOL   H11543345   0.333   0.660   0.602  0.6883 -1.4487  0.7359
  166MOL   H11643346   0.414   0.526   0.507  1.7506  0.6617 -0.1728
  166MOL   H11743347   0.502   0.964   0.378 -1.2367  2.0354  1.3307
  166MOL   H11843348   0.477   0.912   0.227  0.7363 -0.2522  0.6773
  166MOL   C11943349   0.356   1.081   0.265 -0.1175 -0.3252 -1.0193
  166MOL   C12043350   0.301   1.174   0.380 -0.5415 -0.0866 -0.4172
  166MOL   C12143351   0.169   1.150   0.447  0.4333  0.2386 -0.6356
  166MOL   C12243352   0.187   1.274   0.364 -1.0011  0.0749  0.0511
  166MOL   C12343353   0.460   1.166   0.184  0.0972 -0.4303  0.0747
  166MOL   H12443354   0.272   1.062   0.198  0.3056  0.3771 -1.7599
  166MOL   H12543355   0.380   1.211   0.445  0.0190 -0.4436 -0.8892
  166MOL   H12643356   0.159   1.164   0.554 -1.4461 -1.4262 -0.5568
  166MOL   H12743357   0.108   1.067   0.411 -1.4761  1.4271 -0.2325
  166MOL   H12843358   0.152   1.262   0.262  0.1415  0.1231 -0.3428
  166MOL   H12943359   0.190   1.373   0.408 -1.0107 -0.4703  1.3065
  166MOL   H13043360   0.430   1.270   0.175 -0.1772 -0.5324 -0.1930
  166MOL   H13143361   0.549   1.159   0.247 -0.5632 -1.4881  0.9055
  166MOL   C13243362   0.478   1.122   0.041  0.2064  0.6137  0.1587
  166MOL   C13343363   0.620   1.145   7.828  0.0659 -0.3781 -0.0357
  166MOL   C13443364   0.691   1.035   7.747 -0.2866 -0.0075 -0.6260
  166MOL   C13543365   0.734   1.069   0.052 -0.1635  0.0799  0.0695
  166MOL   C13643366   0.376   1.186   7.773 -1.3717 -0.0938 -0.2205
  166MOL   H13743367   0.468   1.014   0.042 -2.0573  0.7811 -0.4892
  166MOL   H13843368   0.636   1.246   7.791  0.8160 -0.9910 -1.4423
  166MOL   H13943369   0.636   0.943   7.733  0.5507 -0.6899  0.4558
  166MOL   H14043370   0.759   1.065   7.668  1.2495  1.5689  1.2278
  166MOL   H14143371   0.714   0.985   0.119 -0.8081  0.5550  0.4843
  166MOL   H14243372   0.838   1.098   0.063 -0.6410  1.8397 -0.0182
  166MOL   H14343373   0.278   1.194   7.821 -0.2449 -1.3530  2.4459
  166MOL   H14443374   0.413   1.286   7.750 -2.5645  0.9106  1.9991
  166MOL   C14543375   0.360   1.115   7.643  0.4745  0.4484 -0.1163
  166MOL   C14643376   0.236   1.023   7.644 -0.8812 -0.4670 -0.0994
  166MOL   C14743377   0.204   0.925   7.532  0.1986 -0.6042 -0.0900
  166MOL   C14843378   0.248   0.874   7.671  0.3640 -0.2583  0.1130
  166MOL   C14943379   0.356   1.219   7.519  0.4674  0.1236  0.0259
  166MOL   H15043380   0.440   1.041   7.632 -0.4663 -0.6319  0.1983
  166MOL   H15143381   0.149   1.073   7.687  0.6297  1.2862  0.9434
  166MOL   H15243382   0.098   0.915   7.509 -0.0504 -1.4768  1.3968
  166MOL   H15343383   0.273   0.926   7.448  0.1454 -0.0430 -0.1298
  166MOL   H15443384   0.349   0.853   7.706  0.6620 -0.3597 -0.7953
  166MOL   H15543385   0.173   0.824   7.732 -0.3665  0.4558 -0.2057
  166MOL   H15643386   0.332   1.165   7.427 -0.7217 -1.6801  1.3554
  166MOL   H15743387   0.268   1.276   7.550  1.3137  1.5380 -0.1453
  166MOL   C15843388   0.475   1.311   7.481 -0.3062  0.1716 -0.8892
  166MOL   C15943389   0.427   1.413   7.379 -0.1036  0.0938  0.6473
  166MOL   C16043390   0.323   1.516   7.415  0.0547 -0.2186 -0.4148
  166MOL   C16143391   0.474   1.549   7.411 -0.5296  0.6699  0.0990
  166MOL   C16243392   0.577   1.215   7.416 -0.2648 -0.3998  0.1857
  166MOL   H16343393   0.515   1.354   7.573 -0.2180 -1.6999 -0.0216
  166MOL   H16443394   0.408   1.370   7.281  1.0141 -1.0825  0.9396
  166MOL   H16543395   0.285   1.505   7.516 -0.1004 -1.2390 -0.5793
  166MOL   H16643396   0.258   1.560   7.340 -1.2812 -0.7047  0.4486
  166MOL   H16743397   0.497   1.611   7.324  1.1997 -1.7593 -1.2434
  166MOL   H16843398   0.515   1.581   7.507 -1.0130 -0.3955  0.6678
  166MOL   H16943399   0.532   1.165   7.331 -0.5784  1.7835 -0.9578
  166MOL   H17043400   0.605   1.137   7.488 -1.3812 -0.1644  0.8908
  166MOL   C17143401   0.707   1.284   7.358  0.4617 -0.1926  0.2954
  166MOL   C17243402   0.814   1.273   7.462  0.0565 -0.1906 -0.1024
  166MOL   C17343403   0.907   1.393   7.494 -0.2224  0.2992 -0.2965
  166MOL   C17443404   0.806   1.348   7.595  0.3470 -0.1054 -0.1091
  166MOL   C17543405   0.750   1.233   7.216 -0.3316 -0.3555  0.6436
  166MOL   H17643406   0.695   1.392   7.349 -3.9721 -0.6079 -0.3386
  166MOL   H17743407   0.861   1.177   7.481 -1.5997 -1.1994 -0.9930
  166MOL   H17843408   1.010   1.361   7.485  0.0919  0.0580  3.2744
  166MOL   H17943409   0.881   1.479   7.433 -0.1261  1.4166  1.2138
  166MOL   H18043410   0.726   1.421   7.607 -0.1639 -0.8816  1.3110
  166MOL   H18143411   0.849   1.301   7.683 -0.0504  0.1894  0.2463
  166MOL   H18243412   0.740   1.124   7.220  1.6468 -0.6257 -0.9968
  166MOL   H18343413   0.856   1.244   7.193 -0.0258 -1.8890  1.2185
  166MOL   C18443414   0.669   1.288   7.095  0.0656  0.0874 -0.3420
  166MOL   C18543415   0.700   1.205   6.967  0.3450 -0.2807 -0.6180
  166MOL   C18643416   0.609   1.190   6.849  0.4252 -0.2901 -0.3121
  166MOL   C18743417   0.612   1.077   6.957  1.0221  0.3043 -0.3164
  166MOL   C18843418   0.721   1.437   7.079  0.1627  0.4033  0.1262
  166MOL   H18943419   0.562   1.289   7.114  0.0775 -0.4816 -0.2547
  166MOL   H19043420   0.806   1.212   6.943  0.2520  0.6665 -0.7658
  166MOL   H19143421   0.656   1.164   6.754  1.0556 -0.0532 -0.0645
  166MOL   H19243422   0.514   1.241   6.834  0.7706  0.7054  0.7741
  166MOL   H19343423   0.663   0.982   6.942  1.0812  0.4281 -0.9243
  166MOL   H19443424   0.520   1.072   7.014  0.5245  1.0085 -1.0505
  166MOL   H19543425   0.829   1.430   7.065  0.1864  0.7788  0.1116
  166MOL   H19643426   0.713   1.492   7.172  1.0388  1.3764 -0.3583
  166MOL   C19743427   0.648   1.525   6.972  0.7521 -0.0244 -0.1300
  166MOL   C19843428   0.728   1.647   6.921 -0.5148 -0.3057  0.1306
  166MOL   C19943429   0.741   1.673   6.771 -0.0394  0.1868  0.5873
  166MOL   C20043430   0.865   1.645   6.851  0.2795 -0.0686 -0.2477
  166MOL   C20143431   0.504   1.566   7.012 -0.5551 -0.0012  0.4839
  166MOL   H20243432   0.647   1.461   6.883  0.4145 -1.9044  1.1954
  166MOL   H20343433   0.707   1.731   6.986 -2.0229  0.3557 -1.1719
  166MOL   H20443434   0.701   1.590   6.712  0.8795 -1.1842  1.8550
  166MOL   H20543435   0.711   1.766   6.724 -2.5863 -0.1075  1.5193
  166MOL   H20643436   0.901   1.542   6.862 -0.0061 -0.3450 -1.7790
  166MOL   H20743437   0.930   1.732   6.855 -0.6943  0.7144 -1.2814
  166MOL   H20843438   0.454   1.490   7.072 -1.1360  0.7199  0.9326
  166MOL   H20943439   0.505   1.654   7.076 -0.8106 -1.5692  2.6998
  166MOL   C21043440   0.417   1.604   6.894 -0.2271 -0.0071  0.4292
  166MOL   C21143441   0.361   1.492   6.809  0.1549 -0.4590  0.1021
  166MOL   C21243442   0.300   1.524   6.668 -0.3767  0.9427  0.0492
  166MOL   C21343443   0.427   1.446   6.681  0.5657  0.2409 -0.8319
  166MOL   C21443444   0.302   1.692   6.928 -0.1088 -0.2448 -0.1560
  166MOL   H21543445   0.488   1.657   6.831 -0.4063  0.2304  0.4227
  166MOL   H21643446   0.308   1.422   6.874 -2.3402  1.8182  0.6308
  166MOL   H21743447   0.205   1.473   6.654 -0.0618  0.0152  1.3010
  166MOL   H21843448   0.318   1.626   6.632  2.0577  1.5080  2.7007
  166MOL   H21943449   0.417   1.341   6.656  3.1700 -0.8091  2.2772
  166MOL   H22043450   0.513   1.499   6.640  2.2820 -0.2873  1.9598
  166MOL   H22143451   0.215   1.682   6.863 -1.2907 -0.8241  1.4746
  166MOL   H22243452   0.271   1.651   7.024 -1.8325 -0.6141 -0.8648
  166MOL   C22343453   0.327   1.838   6.947 -0.4306 -0.8201  0.2162
  166MOL   C22443454   0.231   1.900   7.046 -0.3037 -0.7701  0.1064
  166MOL   C22543455   0.248   1.867   7.196 -0.0203  0.0252  0.3817
  166MOL   C22643456   0.261   2.007   7.146 -0.5853 -0.6059 -0.7218
  166MOL   C22743457   0.333   1.927   6.812  0.6055  0.1861 -0.0214
  166MOL   H22843458   0.426   1.839   6.992 -0.5880 -2.1249  0.6099
  166MOL   H22943459   0.130   1.909   7.008 -0.2463  0.6437  0.2653
  166MOL   H23043460   0.330   1.797   7.212 -0.4267 -0.5806 -0.1492
  166MOL   H23143461   0.154   1.845   7.246 -1.3588 -0.1126 -2.0804
  166MOL   H23243462   0.180   2.066   7.189 -0.1668 -1.3967  1.2022
  166MOL   H23343463   0.353   2.065   7.144  0.0259 -1.4260  1.8222
  166MOL   H23443464   0.383   1.870   6.734 -0.0514 -1.9824  1.1080
  166MOL   H23543465   0.237   1.914   6.762  0.7037 -1.6773  0.2403
  166MOL   C23643466   0.372   2.080   6.818 -0.5084  0.3004 -0.5747
  166MOL   C23743467   0.359   2.146   6.682 -0.1436  0.2672 -0.3456
  166MOL   C23843468   0.221   2.163   6.632 -0.0494  0.2165 -1.3370
  166MOL   C23943469   0.306   2.285   6.655 -0.4390 -1.1685 -0.2170
  166MOL   C24043470   0.510   2.095   6.882 -0.1734 -0.2701 -0.2519
  166MOL   H24143471   0.304   2.140   6.879 -0.6301 -0.0420 -0.3728
  166MOL   H24243472   0.441   2.117   6.617  1.5772 -2.0038  2.7319
  166MOL   H24343473   0.203   2.152   6.526  0.1870  2.2366 -1.6070
  166MOL   H24443474   0.146   2.122   6.699  0.1674  1.7221 -0.1350
  166MOL   H24543475   0.278   2.337   6.746 -0.0362 -0.8616 -0.2650
  166MOL   H24643476   0.369   2.345   6.590  3.5989 -1.1591  3.4566
  166MOL   H24743477   0.520   2.027   6.966 -3.0261 -0.2537  0.1645
  166MOL   H24843478   0.578   2.057   6.806  1.4479 -0.3308  1.2079
  166MOL   C24943479   0.547   2.236   6.920 -0.2614  0.1165  0.1905
  166MOL   C25043480   0.695   2.256   6.951 -0.1644 -0.1215 -0.4434
  166MOL   C25143481   0.792   2.323   6.847 -0.1675  0.2012  0.0982
  166MOL   C25243482   0.742   2.399   6.968 -0.0676  0.1377 -0.3799
  166MOL   C25343483   0.473   2.277   7.039  0.1419 -0.1979  0.0273
  166MOL   H25443484   0.519   2.307   6.841  0.4907 -0.5276 -0.6625
  166MOL   H25543485   0.745   2.188   7.019 -1.9163 -0.5073  0.4707
  166MOL   H25643486   0.896   2.293   6.850 -0.0914  0.5504  1.3953
  166MOL   H25743487   0.745   2.313   6.749 -0.2329  0.0681  0.1438
  166MOL   H25843488   0.809   2.425   7.050 -0.1955  2.8515 -1.0600
  166MOL   H25943489   0.659   2.467   6.946  0.8975  1.0851 -1.1483
  166MOL   H26043490   0.509   2.217   7.123  2.5728  0.6317 -0.3820
  166MOL   H26143491   0.364   2.276   7.029  0.0853  2.0072  0.2427
  166MOL   H26243492   0.493   2.378   7.076  1.2493 -1.0603  1.8650
  167MOL     C143493   6.214   2.972   4.017 -0.0706  0.6236  0.3651
  167MOL     C243494   6.179   3.125   4.022  0.1435 -0.2129  0.2137
  167MOL     C343495   6.092   3.169   4.140  0.4794  0.5572 -0.4029
  167MOL     C443496   6.037   3.172   3.998  0.1054  0.1089  0.0157
  167MOL     C543497   6.340   2.948   4.097 -0.6836 -0.5572  0.0223
  167MOL     H643498   6.132   2.904   4.039  1.0870 -0.9520 -0.1416
  167MOL     H743499   6.257   3.192   3.988 -0.1028 -0.7123 -1.3834
  167MOL     H843500   6.056   3.082   4.194  0.9691 -0.0281 -1.0166
  167MOL     H943501   6.113   3.257   4.201  0.5013  0.8650 -0.8440
  167MOL    H1043502   6.037   3.270   3.950 -0.7429 -0.4073 -1.0713
  167MOL    H1143503   5.970   3.091   3.967 -0.3643  1.0564 -1.4983
  167MOL    H1243504   6.326   2.963   4.204 -2.4542 -0.4571 -0.2073
  167MOL    H1343505   6.416   3.020   4.066 -0.6656 -1.3045 -1.7201
  167MOL    H1443506   6.233   2.966   3.910  2.0247 -0.2454  0.7638
  167MOL    C1543507   6.413   2.816   4.067 -0.0597  0.4539 -0.1485
  167MOL    C1643508   6.335   2.697   4.123 -0.0062 -0.9966 -0.0518
  167MOL    C1743509   6.346   2.654   4.273 -0.8797 -0.3691  0.1007
  167MOL    C1843510   6.397   2.566   4.164 -0.2695 -0.9799 -0.1918
  167MOL    C1943511   6.472   2.785   3.930  0.3914  0.3021  0.7742
  167MOL    H2043512   6.503   2.817   4.129 -0.2054 -0.1409  0.0785
  167MOL    H2143513   6.240   2.687   4.070  0.6780 -0.7130 -1.3406
  167MOL    H2243514   6.259   2.624   4.330 -1.9348  0.3698 -1.0880
  167MOL    H2343515   6.417   2.715   4.328 -0.5497 -1.3501  0.7540
  167MOL    H2443516   6.503   2.560   4.143  0.8050 -1.7438  4.8467
  167MOL    H2543517   6.346   2.472   4.145  1.1791 -1.7084 -0.5473
  167MOL    H2643518   6.393   2.795   3.855 -1.4347 -2.1627  2.3068
  167MOL    H2743519   6.515   2.685   3.932  1.6648  0.7381 -1.8077
  167MOL    C2843520   6.583   2.884   3.862 -0.9345 -0.0724 -0.2771
  167MOL    C2943521   6.623   2.840   3.732  0.6747 -0.8446  0.2497
  167MOL    C3043522   6.526   2.841   3.618  0.3838  0.7284  0.3862
  167MOL    C3143523   6.644   2.937   3.615 -0.3452  0.1510  0.2881
  167MOL    C3243524   6.704   2.892   3.960  0.3524  0.6211  0.4741
  167MOL    H3343525   6.535   2.981   3.861 -0.0301  0.3784 -1.7139
  167MOL    H3443526   6.691   2.755   3.737  1.6968 -0.0926 -0.5539
  167MOL    H3543527   6.429   2.891   3.621  0.6648  1.3151 -0.0842
  167MOL    H3643528   6.526   2.763   3.542 -1.3700  0.0347  1.0676
  167MOL    H3743529   6.620   3.041   3.634 -1.3530  0.0176 -0.2265
  167MOL    H3843530   6.732   2.916   3.554  0.0458 -1.3761  1.3622
  167MOL    H3943531   6.742   2.790   3.967  0.1837  0.4002 -1.4966
  167MOL    H4043532   6.673   2.920   4.061 -0.2276 -1.3555  0.8756
  167MOL    C4143533   6.813   3.000   3.925  0.5141 -0.3085  0.5824
  167MOL    C4243534   6.941   2.969   3.996 -0.7059 -0.5527 -0.2818
  167MOL    C4343535   7.081   2.994   3.937 -0.5169  0.6548  0.2233
  167MOL    C4443536   7.028   2.851   3.962 -0.1281  0.5163 -0.1922
  167MOL    C4543537   6.764   3.146   3.969  0.2214 -0.4385  0.1253
  167MOL    H4643538   6.828   3.005   3.817  0.9438  0.7289  0.6937
  167MOL    H4743539   6.924   2.995   4.100 -3.4655 -0.5677 -0.7034
  167MOL    H4843540   7.084   3.025   3.833 -0.2808 -0.9834 -0.2678
  167MOL    H4943541   7.164   3.018   4.002  0.2528  1.1907 -0.9437
  167MOL    H5043542   7.042   2.793   4.053  1.2031  1.3710  0.1521
  167MOL    H5143543   6.993   2.797   3.874  0.5256 -0.7764  0.3326
  167MOL    H5243544   6.762   3.152   4.078 -1.0585 -1.7204  0.1924
  167MOL    H5343545   6.660   3.166   3.943  0.7752  0.8821 -1.1570
  167MOL    C5443546   6.845   3.257   3.897 -0.1555 -0.0597 -0.6477
  167MOL    C5543547   6.793   3.317   3.765 -0.3782 -0.0958 -0.4887
  167MOL    C5643548   6.831   3.253   3.636  0.3863  0.0199  0.6173
  167MOL    C5743549   6.882   3.389   3.670 -0.1590  0.1956  0.1031
  167MOL    C5843550   6.863   3.378   3.992  0.2533 -0.9528 -0.2241
  167MOL    H5943551   6.942   3.221   3.864  0.1651  0.0797  0.1450
  167MOL    H6043552   6.692   3.357   3.779 -1.0939 -2.2016  0.5812
  167MOL    H6143553   6.907   3.175   3.627 -1.7206 -2.0009 -0.4509
  167MOL    H6243554   6.748   3.253   3.565  0.3758  0.9217  0.6291
  167MOL    H6343555   6.832   3.483   3.646 -0.1649 -0.0440 -0.8382
  167MOL    H6443556   6.985   3.403   3.703 -0.6560  1.8212  1.0785
  167MOL    H6543557   6.890   3.469   3.939  1.7125 -0.1649  1.7626
  167MOL    H6643558   6.766   3.399   4.036 -0.2910 -3.7528  0.0049
  167MOL    C6743559   6.974   3.362   4.103  0.8249 -0.5533 -0.5503
  167MOL    C6843560   7.112   3.344   4.038  0.2480  0.5455  0.7735
  167MOL    C6943561   7.189   3.460   3.987  0.1626 -0.3989  0.0132
  167MOL    C7043562   7.231   3.387   4.109 -0.5524  0.0097 -0.1151
  167MOL    C7143563   6.955   3.479   4.202 -0.1604 -0.4173  0.0003
  167MOL    H7243564   6.951   3.270   4.156  0.6928 -0.3772 -0.3007
  167MOL    H7343565   7.135   3.257   3.976  2.8830  1.5949  0.2091
  167MOL    H7443566   7.236   3.434   3.892 -1.1527  0.2720 -0.8506
  167MOL    H7543567   7.137   3.556   3.992  0.0972 -0.2690 -2.5551
  167MOL    H7643568   7.231   3.441   4.204 -1.5859  2.0638 -1.2573
  167MOL    H7743569   7.313   3.315   4.105 -0.1447  0.6149 -3.6314
  167MOL    H7843570   6.947   3.572   4.145  0.6892  0.4129  1.1948
  167MOL    H7943571   7.048   3.492   4.256  1.0928 -0.9157 -1.9970
  167MOL    C8043572   6.836   3.460   4.307 -0.5747  0.0064  0.0140
  167MOL    C8143573   6.832   3.584   4.394 -0.0003  0.3099  0.4181
  167MOL    C8243574   6.712   3.648   4.448  0.1619  0.1330  0.1063
  167MOL    C8343575   6.790   3.721   4.345  0.4804 -0.9049 -0.3428
  167MOL    C8443576   6.849   3.332   4.396  1.0121 -0.6913 -0.5778
  167MOL    H8543577   6.742   3.455   4.253 -0.2128  1.9326 -0.8244
  167MOL    H8643578   6.902   3.582   4.477 -0.5794  0.0064  0.9031
  167MOL    H8743579   6.721   3.685   4.549 -1.6296 -0.9516  0.6740
  167MOL    H8843580   6.612   3.613   4.424 -0.8405  2.5500  0.6256
  167MOL    H8943581   6.739   3.723   4.248  0.2418  0.8241 -0.2047
  167MOL    H9043582   6.848   3.809   4.373 -0.9723  0.6468 -1.9934
  167MOL    H9143583   6.873   3.244   4.337  0.8089 -1.5168  0.5573
  167MOL    H9243584   6.933   3.347   4.463  0.4362  0.4673 -0.0974
  167MOL    C9343585   6.727   3.288   4.480  0.6279 -0.7047 -0.5172
  167MOL    C9443586   6.610   3.249   4.384 -0.7990 -0.3090  0.4272
  167MOL    C9543587   6.465   3.240   4.442  0.0435  0.3282 -0.0760
  167MOL    C9643588   6.499   3.325   4.322 -0.6757  0.7597  0.3715
  167MOL    C9743589   6.772   3.178   4.584  0.7714  0.6369  0.0215
  167MOL    H9843590   6.691   3.378   4.531 -1.7060 -2.6189  1.3024
  167MOL    H9943591   6.634   3.157   4.330 -1.8124 -0.5131  0.3208
  167MOL   H10043592   6.402   3.154   4.418  1.1182 -0.3870 -0.3884
  167MOL   H10143593   6.448   3.281   4.541  1.3552 -1.3303  0.8781
  167MOL   H10243594   6.441   3.300   4.234 -0.2542  1.0095  0.0178
  167MOL   H10343595   6.481   3.423   4.365  0.6706  0.5508  1.4752
  167MOL   H10443596   6.813   3.101   4.518  0.1428  0.7794 -0.5367
  167MOL   H10543597   6.686   3.124   4.622  1.2002  0.1797  0.3619
  167MOL   C10643598   6.858   3.222   4.707 -0.0078 -0.0741  0.0156
  167MOL   C10743599   6.772   3.247   4.830 -0.5229 -0.1301 -0.0211
  167MOL   C10843600   6.797   3.356   4.934  0.4256 -0.2019  0.2373
  167MOL   C10943601   6.687   3.377   4.838 -0.3929  0.6096  0.0877
  167MOL   C11043602   6.979   3.139   4.748 -0.3364 -0.1153 -0.1895
  167MOL   H11143603   6.898   3.319   4.676 -1.1973 -0.0199 -1.3812
  167MOL   H11243604   6.724   3.156   4.863  0.7012 -1.3143 -1.4351
  167MOL   H11343605   6.776   3.327   5.037 -0.6038 -0.5466 -0.0675
  167MOL   H11443606   6.887   3.416   4.926 -0.2692  0.5879 -2.0560
  167MOL   H11543607   6.710   3.461   4.774  2.9519  1.5702  2.3878
  167MOL   H11643608   6.586   3.368   4.877 -0.6347 -1.7879 -1.0202
  167MOL   H11743609   7.005   3.161   4.852  1.2642 -3.5093  0.1696
  167MOL   H11843610   6.939   3.038   4.745  0.3513 -0.4064  0.3148
  167MOL   C11943611   7.103   3.144   4.654  0.0714  0.1239 -0.5660
  167MOL   C12043612   7.198   3.262   4.699  0.3046  0.1954 -0.0161
  167MOL   C12143613   7.273   3.263   4.829  0.4454 -0.0623 -0.2078
  167MOL   C12243614   7.176   3.374   4.799  0.1804  0.2827  0.2158
  167MOL   C12343615   7.169   3.011   4.636 -0.3589 -0.1039  0.3088
  167MOL   H12443616   7.054   3.172   4.561 -3.0520 -1.1793  0.6086
  167MOL   H12543617   7.256   3.280   4.609 -0.9637 -0.7078 -1.0316
  167MOL   H12643618   7.378   3.286   4.812  0.5224 -1.1776 -1.3200
  167MOL   H12743619   7.247   3.206   4.918  2.8973  0.2546  0.7339
  167MOL   H12843620   7.082   3.370   4.854  0.9063 -0.2412  1.4493
  167MOL   H12943621   7.204   3.477   4.777  1.2664  0.5755  2.7220
  167MOL   H13043622   7.186   2.981   4.739  0.9526 -0.4636 -0.0023
  167MOL   H13143623   7.100   2.950   4.578 -2.0870  1.0549  1.0934
  167MOL   C13243624   7.306   3.003   4.551 -0.3976  0.8809 -0.2068
  167MOL   C13343625   7.279   2.990   4.404 -0.1470  0.5159 -0.9260
  167MOL   C13443626   7.339   3.065   4.294  0.0086  0.6234  0.7332
  167MOL   C13543627   7.204   3.108   4.348 -1.1214 -0.2660 -1.1788
  167MOL   C13643628   7.399   2.884   4.603  0.0043  0.0540 -0.5691
  167MOL   H13743629   7.363   3.091   4.580 -1.7294  1.8076 -0.3398
  167MOL   H13843630   7.229   2.898   4.375  1.1281 -0.2267 -0.8307
  167MOL   H13943631   7.426   3.126   4.314 -0.9546  2.7739 -1.3738
  167MOL   H14043632   7.350   2.997   4.209 -0.1470  0.2828  0.9825
  167MOL   H14143633   7.200   3.195   4.414  3.0621 -1.8634  1.3386
  167MOL   H14243634   7.110   3.071   4.308 -0.3276  0.1697 -3.5336
  167MOL   H14343635   7.409   2.908   4.708 -1.6839  0.5596 -0.5011
  167MOL   H14443636   7.350   2.786   4.601  1.2478 -0.5803 -0.1806
  167MOL   C14543637   7.541   2.860   4.539 -0.6364  0.4122  0.5874
  167MOL   C14643638   7.637   2.801   4.647  0.4350 -0.0963  0.2464
  167MOL   C14743639   7.780   2.846   4.672  0.7085 -0.0205 -0.6109
  167MOL   C14843640   7.676   2.879   4.776 -0.2740  0.1720  0.3373
  167MOL   C14943641   7.532   2.761   4.420 -0.1617  0.7325  0.1228
  167MOL   H15043642   7.575   2.953   4.493  1.9423 -2.1362 -2.9013
  167MOL   H15143643   7.627   2.693   4.654 -0.6419 -0.0335 -0.1349
  167MOL   H15243644   0.019   2.777   4.701 -0.0780 -0.1394  1.3424
  167MOL   H15343645   7.818   2.937   4.625  2.6224 -0.5589 -0.1454
  167MOL   H15443646   7.635   2.979   4.783  0.1938  0.3295  0.8002
  167MOL   H15543647   7.679   2.830   4.874 -0.0660  1.7550  1.1319
  167MOL   H15643648   7.490   2.664   4.444 -0.4263  0.5543 -1.0200
  167MOL   H15743649   7.453   2.810   4.363 -0.8461  1.4322  1.6482
  167MOL   C15843650   7.668   2.743   4.337  0.4081  0.5557 -0.2812
  167MOL   C15943651   7.671   2.844   4.224 -0.6033  0.1564  0.1667
  167MOL   C16043652   7.722   2.983   4.244  0.1433 -0.0864  0.0881
  167MOL   C16143653   7.803   2.884   4.164  0.4270  0.2575 -0.1325
  167MOL   C16243654   7.666   2.596   4.281  0.4475 -0.4564 -0.4664
  167MOL   H16343655   7.756   2.756   4.400  0.9689  1.6955 -1.2786
  167MOL   H16443656   7.597   2.827   4.147  0.4081  0.4626 -0.8777
  167MOL   H16543657   7.755   3.009   4.344  2.0064 -0.1050 -0.4874
  167MOL   H16643658   7.675   3.067   4.195 -2.2660  0.8732  3.8540
  167MOL   H16743659   7.814   2.897   4.056  0.5990  1.5436  0.0360
  167MOL   H16843660   0.053   2.853   4.218 -1.1581 -4.4782 -0.0332
  167MOL   H16943661   7.583   2.600   4.211 -0.2214  1.5679  0.4225
  167MOL   H17043662   7.645   2.540   4.372 -1.3608  0.1847 -0.4753
  167MOL   C17143663   7.792   2.533   4.224  0.1065  0.7532 -0.3844
  167MOL   C17243664   0.045   2.474   4.330  0.3687 -0.0000  0.1325
  167MOL   C17343665   0.201   2.478   4.330 -0.2008 -0.3580  0.0725
  167MOL   C17443666   0.121   2.565   4.424  0.5391  0.0210 -0.1920
  167MOL   C17543667   7.768   2.417   4.127  0.1775 -0.0815  0.5693
  167MOL   H17643668   0.016   2.597   4.162  1.5840 -1.3278 -1.0409
  167MOL   H17743669   0.004   2.378   4.361 -0.0546  0.1339 -0.0042
  167MOL   H17843670   0.261   2.403   4.380  0.4794  1.2297  1.7102
  167MOL   H17943671   0.241   2.530   4.243 -3.3451  3.2927  0.6502
  167MOL   H18043672   0.134   2.673   4.410  0.6898  0.1218  0.6871
  167MOL   H18143673   0.144   2.539   4.527 -0.2622 -0.9959 -0.2661
  167MOL   H18243674   7.701   2.353   4.184  0.5361  0.0521  1.1489
  167MOL   H18343675   0.022   2.365   4.102 -0.0952 -0.4195  0.2414
  167MOL   C18443676   7.704   2.448   3.986  0.3261 -0.1902  0.2767
  167MOL   C18543677   7.632   2.323   3.915 -0.1689  0.5903 -0.6636
  167MOL   C18643678   7.510   2.332   3.818  0.2588  0.0984 -0.4199
  167MOL   C18743679   7.506   2.261   3.951  0.5007  0.6905  0.5310
  167MOL   C18843680   7.806   2.513   3.882 -0.0020 -0.4497 -0.2504
  167MOL   H18943681   7.620   2.513   4.012 -1.6353 -1.7478 -1.9427
  167MOL   H19043682   7.707   2.247   3.891 -1.5198 -0.1604 -2.6441
  167MOL   H19143683   7.485   2.293   3.720 -2.0760 -1.5794  0.8050
  167MOL   H19243684   7.467   2.432   3.816 -0.3411 -0.1345  0.3403
  167MOL   H19343685   7.496   2.154   3.936  0.3962  0.5537  1.5153
  167MOL   H19443686   7.442   2.318   4.018 -0.5223  0.8683 -0.5839
  167MOL   H19543687   0.045   2.442   3.858  1.2727  0.6131  0.7012
  167MOL   H19643688   0.023   2.592   3.931 -2.4740  2.7094 -2.2357
  167MOL   C19743689   7.755   2.564   3.749  0.2613 -0.3050  0.3768
  167MOL   C19843690   0.029   2.607   3.647  0.3995 -0.2347 -0.0333
  167MOL   C19943691   0.170   2.546   3.657 -0.3186 -0.2999  0.2605
  167MOL   C20043692   0.152   2.691   3.690 -0.4407  0.4224  0.5465
  167MOL   C20143693   7.664   2.686   3.766 -0.1325 -0.2235 -0.1265
  167MOL   H20243694   7.691   2.484   3.710 -0.2097  0.1087  0.2923
  167MOL   H20343695   7.833   2.625   3.546  1.3345  0.9587 -0.1642
  167MOL   H20443696   0.201   2.481   3.739 -1.0531 -0.6759  0.2392
  167MOL   H20543697   0.221   2.547   3.561 -1.4773 -1.5084 -0.3736
  167MOL   H20643698   0.159   2.717   3.795  1.0078 -1.6922  1.0202
  167MOL   H20743699   0.202   2.749   3.614 -2.0117  0.1376 -0.7359
  167MOL   H20843700   7.593   2.651   3.841 -0.1519 -1.1375 -0.5648
  167MOL   H20943701   7.720   2.763   3.818  0.7555 -0.3428 -0.9014
  167MOL   C21043702   7.590   2.752   3.648  0.4161 -0.0066  0.1090
  167MOL   C21143703   7.486   2.659   3.590 -0.4521  0.5108 -0.3392
  167MOL   C21243704   7.439   2.672   3.447  0.2267 -0.6405  0.1509
  167MOL   C21343705   7.518   2.550   3.491  0.4391 -0.6406  0.3615
  167MOL   C21443706   7.518   2.890   3.678 -0.1733 -0.1230  0.2860
  167MOL   H21543707   7.656   2.768   3.563  0.4113 -2.1447 -0.3276
  167MOL   H21643708   7.405   2.636   3.660  0.8654  1.4635  1.5422
  167MOL   H21743709   7.332   2.657   3.430  0.2325 -1.3170  0.6580
  167MOL   H21843710   7.495   2.735   3.378 -0.8817  0.7579  0.5078
  167MOL   H21943711   7.461   2.457   3.478  0.7856 -0.5451 -2.0954
  167MOL   H22043712   7.616   2.550   3.445 -0.9523  1.9706 -2.8009
  167MOL   H22143713   7.473   2.936   3.589  0.0709  1.6883  1.0645
  167MOL   H22243714   7.434   2.868   3.743  0.2151 -3.3411 -0.2210
  167MOL   C22343715   7.594   3.004   3.745 -0.2696  0.2591  0.9116
  167MOL   C22443716   7.508   3.124   3.760 -0.1626  0.2303 -0.2766
  167MOL   C22543717   7.397   3.118   3.862 -0.8093 -0.0423  0.7069
  167MOL   C22643718   7.508   3.222   3.878 -0.0464 -0.3300 -0.8332
  167MOL   C22743719   7.712   3.048   3.658 -0.2072  0.0059  0.1063
  167MOL   H22843720   7.619   2.966   3.844 -1.1437  0.0768  1.0595
  167MOL   H22943721   7.476   3.166   3.665 -2.5201  2.7061  1.5077
  167MOL   H23043722   7.395   3.040   3.937  1.2567  1.4843  2.4264
  167MOL   H23143723   7.299   3.153   3.831 -0.7836 -0.2003  0.4469
  167MOL   H23243724   7.487   3.326   3.852 -1.5489 -0.2006  0.8212
  167MOL   H23343725   7.581   3.210   3.958 -2.9853  1.2886  2.2500
  167MOL   H23443726   7.765   2.959   3.624 -1.0564 -0.5453  0.2127
  167MOL   H23543727   7.671   3.086   3.564 -0.2066  0.7388  0.3959
  167MOL   C23643728   7.813   3.152   3.714  0.3294 -0.1771 -0.7159
  167MOL   C23743729   0.059   3.219   3.604  0.5233 -0.0680  0.1204
  167MOL   C23843730   7.827   3.311   3.508  0.2390  0.0774  0.2166
  167MOL   C23943731   0.102   3.363   3.600  0.3999  0.1625 -0.0786
  167MOL   C24043732   0.056   3.098   3.829  0.1163  0.2482  0.1677
  167MOL   H24143733   7.756   3.236   3.753 -0.9009 -1.2457 -0.1746
  167MOL   H24243734   0.133   3.153   3.560 -0.1701 -1.2553  0.7150
  167MOL   H24343735   0.016   3.286   3.406  3.5205 -0.2444  1.1303
  167MOL   H24443736   7.721   3.326   3.529  0.5877  1.4603  1.0347
  167MOL   H24543737   0.070   3.440   3.670  0.8943  1.7901 -1.6097
  167MOL   H24643738   0.201   3.373   3.554  0.2636 -0.6971 -0.5680
  167MOL   H24743739   7.828   3.062   3.907  0.5435  0.5754  0.6979
  167MOL   H24843740   0.104   3.010   3.786 -0.7331 -0.7600  1.2477
  167MOL   C24943741   0.161   3.194   3.898  0.4151 -0.7359  0.0089
  167MOL   C25043742   0.272   3.105   3.959  0.8703  0.2329  0.5861
  167MOL   C25143743   0.388   3.055   3.879 -0.1285 -0.0963 -0.2405
  167MOL   C25243744   0.409   3.166   3.977  0.0533  0.4712 -0.5646
  167MOL   C25343745   0.095   3.286   4.003 -0.0461 -0.1824  0.4054
  167MOL   H25443746   0.217   3.252   3.826 -3.6243  2.4762 -0.7722
  167MOL   H25543747   0.244   3.022   4.024  0.5535  0.4493  0.7228
  167MOL   H25643748   0.446   2.966   3.904  0.4469  0.4334  0.3158
  167MOL   H25743749   0.387   3.088   3.775 -2.1906  0.4685 -0.0579
  167MOL   H25843750   0.458   3.126   4.066 -3.0086 -1.5432  0.2972
  167MOL   H25943751   0.414   3.269   3.942  0.3185  1.4051  2.1434
  167MOL   H26043752   0.166   3.359   4.042  0.3508 -0.0228 -0.6034
  167MOL   H26143753   0.057   3.229   4.088 -0.7151  0.6017  0.6374
  167MOL   H26243754   0.004   3.330   3.962 -0.2746 -1.6002 -0.6384
  168MOL     C143755   5.280   7.814   0.344  0.1325 -0.3151 -0.8872
  168MOL     C243756   5.368   0.031   0.237 -0.2501 -0.0604 -0.1944
  168MOL     C343757   5.391   7.803   0.107  0.1147 -0.9547 -0.7718
  168MOL     C443758   5.506   7.829   0.195 -0.4630  0.2188  0.4040
  168MOL     C543759   5.330   7.839   0.484 -0.8090  0.0737  0.4410
  168MOL     H643760   5.179   0.010   0.320 -0.0381 -0.3135 -0.1760
  168MOL     H743761   5.353   0.138   0.230 -1.1345 -0.1274  0.5762
  168MOL     H843762   5.359   7.699   0.094 -3.5874 -0.1036  0.9066
  168MOL     H943763   5.365   0.023   0.020  1.3538  0.2123 -0.3594
  168MOL    H1043764   5.577   0.059   0.150 -1.1574  0.0228 -1.0121
  168MOL    H1143765   5.546   7.739   0.241 -2.3121 -0.3004  1.0340
  168MOL    H1243766   5.322   0.107   0.503 -1.8223  0.2798 -1.0540
  168MOL    H1343767   5.431   7.801   0.496 -0.8639 -0.0190  0.6165
  168MOL    H1443768   5.268   7.708   0.324 -2.6255  0.1898 -2.1856
  168MOL    C1543769   5.251   7.782   0.601  0.5892 -0.0298  0.3289
  168MOL    C1643770   5.332   7.807   0.726 -0.4487 -0.5077 -0.6367
  168MOL    C1743771   5.438   7.720   0.788 -0.6605  0.1130 -0.6254
  168MOL    C1843772   5.296   7.721   0.845 -0.4583 -0.1533  0.0646
  168MOL    C1943773   5.113   0.024   0.613  0.0977  0.6998  0.2614
  168MOL    H2043774   5.231   7.676   0.587 -0.4996  0.4002 -1.5123
  168MOL    H2143775   5.360   0.073   0.731 -0.7525 -0.4492 -0.1198
  168MOL    H2243776   5.517   7.766   0.847 -0.2279 -0.6249 -0.6204
  168MOL    H2343777   5.465   7.630   0.734 -0.9743 -0.4731  0.1813
  168MOL    H2443778   5.234   7.637   0.816 -1.2172  0.1524  0.8076
  168MOL    H2543779   5.294   7.763   0.946  1.3603 -0.5582  0.2889
  168MOL    H2643780   5.062   0.026   0.517 -2.0837 -0.0886  1.3577
  168MOL    H2743781   5.117   0.126   0.653 -0.3559  0.5620  0.6600
  168MOL    C2843782   5.010   7.801   0.706  0.5516 -0.5875 -0.3996
  168MOL    C2943783   4.942   7.683   0.639  0.2271 -0.1464 -0.4454
  168MOL    C3043784   4.973   7.533   0.667  0.0758  0.4389  0.2386
  168MOL    C3143785   4.842   7.596   0.706  0.2586 -0.4294  0.5711
  168MOL    C3243786   4.895   0.076   0.735 -0.0561  0.3654 -0.0677
  168MOL    H3343787   5.043   7.768   0.804 -0.1477 -0.0970  0.0130
  168MOL    H3443788   4.919   7.699   0.534 -0.3366  0.0823 -0.2880
  168MOL    H3543789   5.048   7.522   0.745  1.7223  0.0557 -1.3863
  168MOL    H3643790   4.976   7.458   0.589  2.1195 -1.4679  2.0718
  168MOL    H3743791   4.814   7.617   0.809 -0.7558 -1.6055  0.5430
  168MOL    H3843792   4.762   7.552   0.646  1.0281 -0.6814 -0.2846
  168MOL    H3943793   4.811   0.025   0.782 -0.2707 -0.1893 -1.0310
  168MOL    H4043794   4.863   0.093   0.632 -0.7047 -0.5074 -0.0153
  168MOL    C4143795   4.914   0.198   0.822 -0.1592  0.5739  0.4535
  168MOL    C4243796   4.996   0.171   0.946 -0.0109 -0.4185  0.7731
  168MOL    C4343797   5.052   0.289   1.017  0.6608  0.2591  0.2111
  168MOL    C4443798   5.144   0.185   0.962 -0.3356  0.8626  1.0937
  168MOL    C4543799   4.785   0.277   0.860 -0.2437  0.0129 -1.1107
  168MOL    H4643800   4.959   0.283   0.770 -2.0692  1.3453  0.0033
  168MOL    H4743801   4.945   0.105   1.015  1.2327 -1.1803  0.9818
  168MOL    H4843802   5.055   0.387   0.970  1.3795  1.0434  1.8135
  168MOL    H4943803   5.051   0.298   1.126 -0.4387 -1.4172  0.3567
  168MOL    H5043804   5.193   0.118   1.033 -1.0245  0.4016  1.1379
  168MOL    H5143805   5.198   0.200   0.869 -0.5711 -0.6432  0.7006
  168MOL    H5243806   4.790   0.289   0.968 -2.4947 -2.7415 -0.6278
  168MOL    H5343807   4.698   0.211   0.850 -0.1507 -0.3791  0.5492
  168MOL    C5443808   4.749   0.406   0.778  0.1509 -0.7453  0.4297
  168MOL    C5543809   4.717   0.361   0.632 -0.0816 -0.3285  0.0781
  168MOL    C5643810   4.824   0.348   0.530 -0.3326 -0.0344  0.1450
  168MOL    C5743811   4.710   0.453   0.512 -0.1285  0.3123  0.0573
  168MOL    C5843812   4.634   0.498   0.835 -0.6847 -0.1041 -0.7988
  168MOL    H5943813   4.840   0.465   0.777 -1.9394  2.5582 -0.6442
  168MOL    H6043814   4.643   0.282   0.623  0.4011 -0.7622 -0.1638
  168MOL    H6143815   4.922   0.386   0.557 -0.1121  0.5326 -1.4366
  168MOL    H6243816   4.827   0.259   0.467  1.4820  0.0358  0.1003
  168MOL    H6343817   4.629   0.433   0.442 -0.6064 -0.7671  0.8920
  168MOL    H6443818   4.747   0.553   0.529  0.4215  0.1621 -0.2314
  168MOL    H6543819   4.604   0.562   0.752 -1.1203 -1.3177 -1.6039
  168MOL    H6643820   4.550   0.430   0.852 -1.4241  1.1066  0.4121
  168MOL    C6743821   4.669   0.586   0.962 -0.0633 -0.1373 -0.3388
  168MOL    C6843822   4.621   0.520   1.093 -0.1451  0.9560 -0.2115
  168MOL    C6943823   4.565   0.600   1.205  0.1958 -0.0785 -0.9353
  168MOL    C7043824   4.479   0.500   1.127 -0.5929  0.1977 -0.6200
  168MOL    C7143825   4.810   0.658   0.983 -0.1585 -0.5355  0.5508
  168MOL    H7243826   4.593   0.663   0.954 -0.3149 -0.2282  1.0697
  168MOL    H7343827   4.677   0.431   1.117 -1.4430 -0.2875 -1.7038
  168MOL    H7443828   4.596   0.576   1.306  0.4340  1.0295 -0.7345
  168MOL    H7543829   4.522   0.699   1.191  0.1850  0.0440 -0.0326
  168MOL    H7643830   4.402   0.552   1.070  0.2264  1.1547 -0.8649
  168MOL    H7743831   4.448   0.414   1.186 -1.0086  0.0619 -1.0316
  168MOL    H7843832   4.888   0.586   0.959 -2.5612 -2.6063 -1.3353
  168MOL    H7943833   4.838   0.693   1.082  0.7470 -1.3390  0.5942
  168MOL    C8043834   4.828   0.771   0.883  0.5403  0.4949 -1.1386
  168MOL    C8143835   4.972   0.798   0.851 -0.3981  1.0395 -0.2065
  168MOL    C8243836   5.021   0.861   0.726 -0.4131  0.1404 -0.5734
  168MOL    C8343837   5.044   0.716   0.756 -0.6030  0.1119  0.3000
  168MOL    C8443838   4.755   0.897   0.927  0.0182 -0.3645  0.2713
  168MOL    H8543839   4.790   0.734   0.788  0.1749  0.4306 -0.9699
  168MOL    H8643840   5.022   0.835   0.941 -0.1561  0.1554  0.0332
  168MOL    H8743841   5.111   0.922   0.736 -0.2831 -0.0190 -0.7636
  168MOL    H8843842   4.954   0.894   0.648 -1.3562  0.1366  0.2252
  168MOL    H8943843   4.982   0.639   0.711  2.4265 -2.5697  0.5234
  168MOL    H9043844   5.144   0.684   0.785 -1.0092 -0.9832  0.4987
  168MOL    H9143845   4.680   0.869   1.000 -1.8742 -0.6423 -1.7294
  168MOL    H9243846   4.826   0.955   0.987 -0.9040 -1.6444  2.6210
  168MOL    C9343847   4.698   0.992   0.822  0.4150 -0.0889 -0.3852
  168MOL    C9443848   4.581   0.932   0.740  0.5194  0.6680  0.3971
  168MOL    C9543849   4.541   0.997   0.609 -0.3566 -0.5965 -0.4262
  168MOL    C9643850   4.592   0.856   0.613 -0.2924  0.1972 -0.4827
  168MOL    C9743851   4.642   1.125   0.871  0.4286 -0.0723 -0.2806
  168MOL    H9843852   4.763   1.009   0.736  0.3716  1.5371 -0.1265
  168MOL    H9943853   4.495   0.911   0.804  1.2978  0.8437  1.5171
  168MOL   H10043854   4.435   1.015   0.597  0.2150  2.0816 -1.9243
  168MOL   H10143855   4.609   1.078   0.582  0.3835 -1.1917 -0.3878
  168MOL   H10243856   4.517   0.778   0.599 -0.9325  0.7648 -0.2929
  168MOL   H10343857   4.694   0.839   0.580 -0.8855 -0.5825 -1.9640
  168MOL   H10443858   4.576   1.123   0.957  0.1350 -0.0379 -0.5065
  168MOL   H10543859   4.595   1.182   0.791  3.2228  0.4460 -1.6189
  168MOL   C10643860   4.757   1.217   0.924 -0.1192  0.8088 -0.3092
  168MOL   C10743861   4.852   1.262   0.811  0.5690  0.2837  0.2847
  168MOL   C10843862   4.991   1.313   0.833 -0.1189 -0.3080 -0.2456
  168MOL   C10943863   4.974   1.178   0.774 -0.1359  0.1977  0.1768
  168MOL   C11043864   4.694   1.335   0.997  0.3606  0.2253 -0.0524
  168MOL   H11143865   4.814   1.166   1.001  2.5287  2.6971 -0.9375
  168MOL   H11243866   4.815   1.329   0.734 -0.6686  0.4401  1.0042
  168MOL   H11343867   5.042   1.380   0.764  2.6455 -0.3596  1.7047
  168MOL   H11443868   5.024   1.323   0.936  0.6852  1.0995 -0.6333
  168MOL   H11543869   5.003   1.099   0.843 -1.0751  1.1264  1.6835
  168MOL   H11643870   4.999   1.166   0.669 -1.9121 -0.0790 -0.2397
  168MOL   H11743871   4.772   1.408   1.020 -0.5627  0.6987  1.6662
  168MOL   H11843872   4.609   1.380   0.945 -1.4448 -3.1247 -0.1092
  168MOL   C11943873   4.641   1.311   1.146 -0.9144  0.2086  1.5067
  168MOL   C12043874   4.755   1.325   1.246  0.4886 -0.6845  0.1980
  168MOL   C12143875   4.841   1.211   1.289  0.0785  0.2211 -0.3059
  168MOL   C12243876   4.746   1.274   1.384 -0.0313 -0.0588 -1.1317
  168MOL   C12343877   4.526   1.407   1.180 -0.2465  0.7291 -0.4876
  168MOL   H12443878   4.594   1.212   1.146 -1.6614  0.5255 -0.7843
  168MOL   H12543879   4.814   1.415   1.232 -1.5264  0.2834 -2.5752
  168MOL   H12643880   4.943   1.232   1.320 -0.1795 -0.7707  1.2625
  168MOL   H12743881   4.830   1.120   1.230  0.2068  0.2471 -0.3712
  168MOL   H12843882   4.663   1.209   1.411  1.6141 -1.8452 -0.2169
  168MOL   H12943883   4.785   1.340   1.461 -1.8404  0.8296 -0.9537
  168MOL   H13043884   4.537   1.442   1.282 -1.0812 -1.8072  0.5230
  168MOL   H13143885   4.529   1.500   1.123  0.5628  1.4275  0.6850
  168MOL   C13243886   4.381   1.345   1.173  0.5406  0.2234  0.0704
  168MOL   C13343887   4.275   1.452   1.143 -0.2419 -0.5996 -0.3688
  168MOL   C13443888   4.148   1.429   1.064  0.0710  0.4067 -0.8821
  168MOL   C13543889   4.265   1.509   1.012 -0.5253  0.0540  0.0927
  168MOL   C13643890   4.356   1.271   1.307 -0.3120 -0.0322 -0.0333
  168MOL   H13743891   4.379   1.264   1.100 -1.5864  2.2833 -2.2566
  168MOL   H13843892   4.262   1.521   1.226  1.1013 -0.3014 -0.3966
  168MOL   H13943893   4.133   1.334   1.013 -0.5207 -1.0874  2.0139
  168MOL   H14043894   4.062   1.483   1.104  0.9905  0.5664  0.9343
  168MOL   H14143895   4.321   1.456   0.935 -0.0664 -1.7324  1.6318
  168MOL   H14243896   4.262   1.618   1.006  0.8654  0.0954  0.0560
  168MOL   H14343897   4.451   1.242   1.352  0.6187 -0.1159 -1.9785
  168MOL   H14443898   4.309   1.341   1.375 -0.9879  1.7036 -2.2189
  168MOL   C14543899   4.259   1.151   1.303 -0.2925  0.2898  0.6737
  168MOL   C14643900   4.340   1.023   1.267 -0.2630  0.3914 -0.2279
  168MOL   C14743901   4.281   0.899   1.214  0.7034  0.7868  0.6195
  168MOL   C14843902   4.360   0.983   1.121  0.3239 -0.8701 -0.9003
  168MOL   C14943903   4.195   1.121   1.442  0.4183  0.0701  0.5487
  168MOL   H15043904   4.189   1.173   1.223  2.3378  3.5500 -0.8467
  168MOL   H15143905   4.423   1.010   1.335 -0.1170 -3.0879 -1.0062
  168MOL   H15243906   4.305   0.814   1.278  0.5688  1.8568  2.1337
  168MOL   H15343907   4.173   0.915   1.207  0.7929  0.3748 -1.9041
  168MOL   H15443908   4.303   1.045   1.052 -0.9119 -1.4733 -0.4319
  168MOL   H15543909   4.461   0.956   1.091  0.0269 -0.9051 -1.8982
  168MOL   H15643910   4.207   1.015   1.465 -2.4225 -0.0443  1.7408
  168MOL   H15743911   4.239   1.175   1.526 -0.9654 -2.6977  3.1507
  168MOL   C15843912   4.042   1.144   1.446  0.0372 -0.0830 -1.1293
  168MOL   C15943913   3.971   1.056   1.345 -0.3905 -0.3687  0.5200
  168MOL   C16043914   3.949   0.908   1.368 -0.7683 -0.0622 -0.3811
  168MOL   C16143915   3.839   1.006   1.381  0.8130  0.1348  0.4421
  168MOL   C16243916   3.999   1.287   1.431 -0.1852 -0.0569  0.0039
  168MOL   H16343917   4.019   1.102   1.544  0.9101 -0.1646 -0.9574
  168MOL   H16443918   3.974   1.087   1.241  1.1196 -2.0381  0.0250
  168MOL   H16543919   3.974   0.864   1.464 -0.9602  1.9608  0.6284
  168MOL   H16643920   3.930   0.834   1.291  2.0659 -2.9414  1.5549
  168MOL   H16743921   3.766   1.014   1.301 -0.0083  1.0981  1.2638
  168MOL   H16843922   3.795   1.029   1.478  0.1825  1.6794 -0.1935
  168MOL   H16943923   3.986   1.314   1.326 -1.3231  1.6432  0.5635
  168MOL   H17043924   4.089   1.344   1.453  0.9540 -1.7867 -0.0900
  168MOL   C17143925   3.879   1.338   1.514  0.8420 -0.4728 -0.0754
  168MOL   C17243926   3.896   1.331   1.669 -0.3470  0.0194  0.3366
  168MOL   C17343927   3.780   1.320   1.764 -1.2124  0.0270  0.6983
  168MOL   C17443928   3.858   1.198   1.735 -0.2430 -0.1833  0.0498
  168MOL   C17543929   3.839   1.481   1.470 -0.6125 -0.3552 -0.8954
  168MOL   H17643930   3.793   1.275   1.492  0.7822 -0.0069 -1.2636
  168MOL   H17743931   3.989   1.373   1.707 -0.3847 -1.0340  1.6238
  168MOL   H17843932   3.796   1.387   1.848  2.7791  0.6613 -0.4527
  168MOL   H17943933   3.686   1.329   1.710 -0.7283  2.2822  0.1349
  168MOL   H18043934   3.917   1.150   1.812  0.5538  0.6737 -0.0147
  168MOL   H18143935   3.803   1.134   1.666  1.3324 -0.2630 -1.1623
  168MOL   H18243936   3.927   1.530   1.428 -0.7187 -0.9613 -1.8526
  168MOL   H18343937   3.796   1.532   1.556 -2.7620 -2.1647 -0.8365
  168MOL   C18443938   3.720   1.508   1.371  0.0079  0.2908  1.0637
  168MOL   C18543939   3.735   1.447   1.233 -0.4265 -0.1195  0.2992
  168MOL   C18643940   3.613   1.406   1.156 -0.2540  0.0697 -0.4205
  168MOL   C18743941   3.711   1.305   1.202 -0.3870  0.7203 -0.3923
  168MOL   C18843942   3.685   1.662   1.359  0.5078 -0.1555  0.0672
  168MOL   H18943943   3.628   1.462   1.407 -0.5357  0.6481  0.1525
  168MOL   H19043944   3.819   1.495   1.183 -0.6994  1.2066  1.0937
  168MOL   H19143945   3.625   1.442   1.054  2.9228  1.1043  0.2725
  168MOL   H19243946   3.518   1.411   1.210 -0.7213 -0.5352 -1.1771
  168MOL   H19343947   3.775   1.265   1.124 -0.2015 -0.2300  0.2379
  168MOL   H19443948   3.676   1.234   1.277 -0.3577  0.3962 -0.6859
  168MOL   H19543949   3.616   1.677   1.276  0.6004 -0.3082 -0.0388
  168MOL   H19643950   3.774   1.717   1.327  0.1686  0.0504 -0.5159
  168MOL   C19743951   3.618   1.737   1.476  1.1838 -0.0483  0.1891
  168MOL   C19843952   3.502   1.666   1.546  0.8190  0.3610 -0.0552
  168MOL   C19943953   3.437   1.716   1.677  0.2688  0.1646 -1.0459
  168MOL   C20043954   3.517   1.591   1.671 -1.0970  0.6441 -0.1634
  168MOL   C20143955   3.581   1.878   1.428 -0.1115 -0.4279 -0.5294
  168MOL   H20243956   3.698   1.745   1.549  1.2048 -0.8450  0.2488
  168MOL   H20343957   3.429   1.628   1.474 -0.9596  1.2887  1.2345
  168MOL   H20443958   3.472   1.812   1.713  0.4478 -0.3680  0.2438
  168MOL   H20543959   3.329   1.704   1.689  0.2325  0.2266 -1.3096
  168MOL   H20643960   3.615   1.587   1.718 -1.0834 -1.4937 -0.3547
  168MOL   H20743961   3.460   1.501   1.689  0.7253 -0.4593  0.2378
  168MOL   H20843962   3.505   1.867   1.351  0.7766  1.6316 -1.7600
  168MOL   H20943963   3.520   1.914   1.511  1.9967  0.7911  0.5374
  168MOL   C21043964   3.679   1.993   1.415 -0.0494 -0.2595 -0.1044
  168MOL   C21143965   3.793   1.990   1.529 -0.0327  0.2037  0.6661
  168MOL   C21243966   3.846   2.114   1.592 -0.1458 -0.0138  1.0957
  168MOL   C21343967   3.755   2.020   1.672  0.3952 -0.0026  0.5159
  168MOL   C21443968   3.744   2.009   1.275  0.3535 -0.3103 -0.9107
  168MOL   H21543969   3.618   2.080   1.437  0.7294 -0.0334  1.2205
  168MOL   H21643970   3.868   1.912   1.521 -1.5444 -1.1935 -0.2117
  168MOL   H21743971   3.945   2.127   1.635  1.4568 -0.5915 -2.2447
  168MOL   H21843972   3.803   2.203   1.547  0.2896 -0.1632  0.3838
  168MOL   H21943973   3.801   1.957   1.748  3.7505 -0.2487 -1.6446
  168MOL   H22043974   3.647   2.036   1.676  0.3085 -0.7486  1.2302
  168MOL   H22143975   3.805   2.099   1.278  1.4923 -1.1201  1.0818
  168MOL   H22243976   3.812   1.926   1.262 -0.2997 -1.2932  1.6455
  168MOL   C22343977   3.642   2.001   1.152 -0.1594  0.4102  0.2096
  168MOL   C22443978   3.727   1.951   1.036  0.3518  0.5756  0.1289
  168MOL   C22543979   3.768   1.805   1.020 -0.2221  0.0757  0.2469
  168MOL   C22643980   3.677   1.871   0.922 -0.2008 -0.0117 -0.4886
  168MOL   C22743981   3.581   2.142   1.121  0.4090  0.0462 -0.8646
  168MOL   H22843982   3.563   1.927   1.158 -0.9459  1.0492 -1.8772
  168MOL   H22943983   3.805   2.020   1.005 -0.2296  1.0572 -0.2774
  168MOL   H23043984   3.729   1.733   1.092 -0.7762  2.1409  2.0738
  168MOL   H23143985   3.864   1.765   0.987 -1.1157 -1.4946 -0.5135
  168MOL   H23243986   3.732   1.870   0.828 -0.7652  0.5248 -0.8230
  168MOL   H23343987   3.577   1.830   0.927 -0.1647 -0.1067 -0.5564
  168MOL   H23443988   3.541   2.183   1.214 -1.2277  0.5357 -1.7683
  168MOL   H23543989   3.656   2.213   1.087  0.8845 -0.9453 -1.9056
  168MOL   C23643990   3.469   2.138   1.013 -0.6252 -0.4215  0.1031
  168MOL   C23743991   3.493   2.249   0.903 -0.5681 -0.5128 -0.3923
  168MOL   C23843992   3.584   2.239   0.789 -0.5153 -0.4036 -1.0654
  168MOL   C23943993   3.438   2.222   0.762 -0.1683 -0.2228  0.1392
  168MOL   C24043994   3.330   2.146   1.082 -1.2031 -0.2483  0.8067
  168MOL   H24143995   3.485   2.039   0.970 -0.1983 -0.6233  0.7270
  168MOL   H24243996   3.498   2.350   0.943 -0.2875 -1.0406  0.9178
  168MOL   H24343997   3.629   2.334   0.762 -0.4414  0.1879  1.0756
  168MOL   H24443998   3.655   2.156   0.792  1.1817  1.0642  2.6984
  168MOL   H24543999   3.406   2.118   0.748 -0.2324 -0.3823  1.4195
  168MOL   H24644000   3.381   2.300   0.713 -1.8812 -1.8798 -0.5777
  168MOL   H24744001   3.323   2.125   1.188 -1.7949  1.2766  1.0781
  168MOL   H24844002   3.306   2.252   1.092 -0.0522  0.3008 -1.8040
  168MOL   C24944003   3.214   2.077   1.010  0.0036  0.6120  0.2959
  168MOL   C25044004   3.084   2.158   1.024  0.4958 -0.4026 -0.7744
  168MOL   C25144005   3.051   2.278   0.943  0.5169 -0.0501 -0.0521
  168MOL   C25244006   2.981   2.148   0.915  0.5154 -0.5900  0.0632
  168MOL   C25344007   3.192   1.931   1.050  0.0798 -0.4829 -0.6696
  168MOL   H25444008   3.250   2.082   0.908  1.4240 -1.9494  0.6495
  168MOL   H25544009   3.045   2.168   1.125 -0.2037 -1.0529 -0.9751
  168MOL   H25644010   2.999   2.361   0.991  1.4013  0.7564 -0.4805
  168MOL   H25744011   3.121   2.321   0.872  0.5510 -0.7804 -0.4651
  168MOL   H25844012   2.877   2.160   0.944  0.2029  0.1777 -1.3442
  168MOL   H25944013   2.997   2.097   0.820 -0.2628  0.7571 -0.8005
  168MOL   H26044014   3.093   1.894   1.023 -0.6306  1.2146 -0.4648
  168MOL   H26144015   3.201   1.926   1.158  1.0855  1.9421 -0.6154
  168MOL   H26244016   3.261   1.850   1.023  1.7284  1.0083 -1.0499
  169MOL     C144017   6.971   5.215   1.913  0.2775  0.7440 -0.1723
  169MOL     C244018   6.885   5.086   1.907  0.3209 -0.2746 -0.4149
  169MOL     C344019   6.761   5.072   1.984  0.5350  0.0394 -0.0539
  169MOL     C444020   6.876   4.981   2.017  0.2704  0.3064  0.6662
  169MOL     C544021   7.121   5.180   1.882 -0.0494  0.0913  0.8646
  169MOL     H644022   6.925   5.288   1.846 -0.8515 -0.6762 -0.9635
  169MOL     H744023   6.858   5.061   1.805  0.1445  0.1579 -0.4722
  169MOL     H844024   6.747   5.157   2.051  1.4444  1.0061 -1.0746
  169MOL     H944025   6.675   5.037   1.927 -0.7712  1.2528  1.1098
  169MOL    H1044026   6.890   4.881   1.977  0.8601 -0.3104  2.3656
  169MOL    H1144027   6.946   5.008   2.096 -0.7854  0.6719  1.4831
  169MOL    H1244028   7.116   5.137   1.782  1.0749  3.9479 -0.9457
  169MOL    H1344029   7.154   5.103   1.952  0.0319 -0.6538  0.0164
  169MOL    H1444030   6.958   5.253   2.014 -0.6076  1.6550 -0.6230
  169MOL    C1544031   7.222   5.300   1.881 -0.9287  0.3813  0.5607
  169MOL    C1644032   7.252   5.351   2.027  0.0250  0.2685  0.2309
  169MOL    C1744033   7.167   5.457   2.090 -0.7282 -0.3560  0.3921
  169MOL    C1844034   7.309   5.486   2.058 -0.1548 -0.2946  0.3657
  169MOL    C1944035   7.360   5.258   1.816 -0.5096 -0.0947  0.0050
  169MOL    H2044036   7.184   5.383   1.822  1.6007  2.5866  1.9626
  169MOL    H2144037   7.291   5.267   2.085 -1.6326  0.0790  1.1068
  169MOL    H2244038   7.135   5.448   2.193 -1.0342 -2.4796  0.1333
  169MOL    H2344039   7.099   5.507   2.021  0.3880 -1.1433 -1.3146
  169MOL    H2444040   7.329   5.551   1.973 -1.8478 -0.5278 -0.2193
  169MOL    H2544041   7.372   5.504   2.145 -0.5306  1.7924  0.2404
  169MOL    H2644042   7.410   5.181   1.875  2.1679  2.3454  0.9873
  169MOL    H2744043   7.433   5.337   1.831  1.1428 -1.7477  0.7883
  169MOL    C2844044   7.366   5.209   1.668  0.5026  0.2928  0.5301
  169MOL    C2944045   7.509   5.190   1.622 -0.0946  0.5613  0.0511
  169MOL    C3044046   7.597   5.087   1.699 -0.3734  0.3236 -0.5769
  169MOL    C3144047   7.560   5.057   1.559 -0.1539 -0.1067 -0.1795
  169MOL    C3244048   7.311   5.312   1.568  0.0976 -0.0501 -0.5672
  169MOL    H3344049   7.316   5.113   1.660  0.8511  0.3081 -2.3857
  169MOL    H3444050   7.568   5.280   1.605  0.2831  0.2596 -0.2558
  169MOL    H3544051   7.550   5.039   1.784  0.8011  1.2479  0.6306
  169MOL    H3644052   7.705   5.103   1.709 -0.4455  0.3720  0.1795
  169MOL    H3744053   7.482   4.984   1.539 -0.7445  0.4831 -0.0305
  169MOL    H3844054   7.630   5.072   1.476  2.0285 -0.7339  1.5191
  169MOL    H3944055   7.362   5.407   1.583  1.7269 -0.7166 -1.7042
  169MOL    H4044056   7.211   5.336   1.603 -0.1122 -1.7336  0.0167
  169MOL    C4144057   7.310   5.274   1.417  0.1717  0.1944  0.2493
  169MOL    C4244058   7.299   5.409   1.341 -0.0836 -0.1329  0.2928
  169MOL    C4344059   7.371   5.422   1.207 -0.5680  0.1753 -0.2166
  169MOL    C4444060   7.418   5.500   1.330 -0.5444 -0.5672  0.1613
  169MOL    C4544061   7.188   5.184   1.380 -0.0358  0.4971 -0.2288
  169MOL    H4644062   7.405   5.226   1.394  0.0403 -0.1409  0.4129
  169MOL    H4744063   7.200   5.452   1.352 -0.0584 -0.2290  0.8945
  169MOL    H4844064   7.433   5.339   1.175  0.0935  0.0755  1.2558
  169MOL    H4944065   7.308   5.460   1.127  1.0486  1.3795 -0.9268
  169MOL    H5044066   7.397   5.607   1.338  0.3731 -0.2803 -1.0276
  169MOL    H5144067   7.512   5.463   1.371  0.5618 -0.3297 -2.0906
  169MOL    H5244068   7.104   5.251   1.370 -0.5134 -0.1887 -0.8724
  169MOL    H5344069   7.169   5.124   1.469  1.0320 -1.3961 -1.2402
  169MOL    C5444070   7.209   5.101   1.257  1.2385 -0.0338 -0.5129
  169MOL    C5544071   7.308   4.986   1.290  0.2473 -0.8372  0.1948
  169MOL    C5644072   7.460   4.977   1.256  0.2481  0.3180 -0.1086
  169MOL    C5744073   7.358   4.898   1.182 -0.0753 -0.1019  0.7328
  169MOL    C5844074   7.076   5.040   1.203  0.3129  0.2001  1.1373
  169MOL    H5944075   7.258   5.151   1.174  2.4835  0.0003  0.2299
  169MOL    H6044076   7.303   4.948   1.392 -1.8567 -1.6985 -0.1920
  169MOL    H6144077   7.508   5.047   1.188 -1.3909 -2.0690 -3.8873
  169MOL    H6244078   7.528   4.914   1.312  1.6651  2.1850  0.2932
  169MOL    H6344079   7.327   4.796   1.203 -0.2745  0.1286  1.5949
  169MOL    H6444080   7.336   4.928   1.080  0.8770 -0.5821  0.3825
  169MOL    H6544081   7.103   4.965   1.129 -0.5952 -0.2984  1.2968
  169MOL    H6644082   7.034   4.973   1.278 -0.3748 -3.2144 -2.1168
  169MOL    C6744083   6.965   5.131   1.149  1.0252  0.4628  0.1728
  169MOL    C6844084   7.014   5.203   1.029 -0.4484 -0.7827 -0.0818
  169MOL    C6944085   6.939   5.331   0.987  0.0020 -0.3194  0.0828
  169MOL    C7044086   7.080   5.344   1.053  0.2805  0.1850  0.8985
  169MOL    C7144087   6.830   5.052   1.129  0.2102  0.4202 -0.0857
  169MOL    H7244088   6.942   5.203   1.227 -0.7316 -2.3382  2.3256
  169MOL    H7344089   7.033   5.140   0.943 -0.9427  1.3057 -1.7433
  169MOL    H7444090   6.942   5.357   0.882 -0.2100 -1.7625 -0.2957
  169MOL    H7544091   6.865   5.381   1.049 -0.7477 -2.4707  0.9832
  169MOL    H7644092   7.085   5.388   1.152 -2.7060  0.4595  0.9628
  169MOL    H7744093   7.161   5.376   0.988 -0.8076  0.0669 -0.5328
  169MOL    H7844094   6.843   4.946   1.112 -0.5154  0.1989  0.6831
  169MOL    H7944095   6.790   5.095   1.037 -0.9533  0.3039  0.3550
  169MOL    C8044096   6.734   5.060   1.250  0.3132  0.0822  0.1690
  169MOL    C8144097   6.634   4.948   1.255 -0.3064  0.2159 -0.3013
  169MOL    C8244098   6.588   4.870   1.383 -0.7920 -0.1750  0.2283
  169MOL    C8344099   6.683   4.809   1.288 -0.2056 -0.3095  0.6735
  169MOL    C8444100   6.666   5.198   1.263 -0.1575 -0.0946 -0.2063
  169MOL    H8544101   6.802   5.037   1.332 -1.9460 -3.0684  1.2390
  169MOL    H8644102   6.569   4.949   1.168 -0.7584  0.1218  0.0296
  169MOL    H8744103   6.482   4.845   1.377 -0.6584 -0.2624 -2.7827
  169MOL    H8844104   6.621   4.914   1.476  0.8253  1.1189 -0.9159
  169MOL    H8944105   6.786   4.798   1.319  0.2845 -0.3840 -0.9360
  169MOL    H9044106   6.643   4.730   1.223  0.9057 -1.5864  1.5120
  169MOL    H9144107   6.719   5.279   1.213  1.2575 -0.5821  0.4610
  169MOL    H9244108   6.579   5.183   1.199 -1.7348  1.5988  1.4607
  169MOL    C9344109   6.611   5.224   1.404  0.2278  0.5801 -0.3523
  169MOL    C9444110   6.723   5.280   1.497  0.6835  0.1637 -0.1480
  169MOL    C9544111   6.723   5.242   1.642 -0.3214 -0.2661  0.5266
  169MOL    C9644112   6.837   5.199   1.555 -0.8032  0.9746  0.1899
  169MOL    C9744113   6.486   5.320   1.395  0.2977  1.6947  0.3048
  169MOL    H9844114   6.577   5.131   1.450 -2.0313  0.9292 -1.2521
  169MOL    H9944115   6.744   5.386   1.485  0.9351  0.1455  0.1116
  169MOL   H10044116   6.748   5.321   1.712  1.1078 -1.3976  1.3116
  169MOL   H10144117   6.669   5.153   1.675 -0.6656 -0.8593 -1.5746
  169MOL   H10244118   6.933   5.243   1.584 -0.8431  0.8785  0.4681
  169MOL   H10344119   6.826   5.091   1.550  0.1663  0.8839 -0.0969
  169MOL   H10444120   6.406   5.287   1.328 -0.6354  0.3284  2.0410
  169MOL   H10544121   6.528   5.416   1.365  2.0825  0.7866 -0.2370
  169MOL   C10644122   6.418   5.352   1.533  0.2280  0.5823 -0.3800
  169MOL   C10744123   6.299   5.452   1.515  0.4065  0.1293  0.6419
  169MOL   C10844124   6.270   5.569   1.604 -0.4673  0.5186  0.6866
  169MOL   C10944125   6.325   5.589   1.461 -0.5132  0.2389 -0.1558
  169MOL   C11044126   6.368   5.220   1.602 -0.0696  0.1287  0.1639
  169MOL   H11144127   6.485   5.407   1.599  1.9188 -1.6928 -0.1910
  169MOL   H11244128   6.209   5.406   1.475  1.3196 -2.1029  1.0875
  169MOL   H11344129   6.166   5.601   1.612 -0.4507  1.0156 -0.8426
  169MOL   H11444130   6.334   5.606   1.684  0.9630 -0.6895  0.1293
  169MOL   H11544131   6.420   5.642   1.462  0.5435 -1.6445  1.7651
  169MOL   H11644132   6.261   5.627   1.382 -0.3518 -0.5329 -0.6659
  169MOL   H11744133   6.304   5.164   1.534 -2.9309  0.5108  2.4362
  169MOL   H11844134   6.456   5.156   1.611 -1.1802 -1.1434  2.2819
  169MOL   C11944135   6.298   5.221   1.742 -0.0720 -0.4592 -0.0564
  169MOL   C12044136   6.244   5.077   1.778 -0.4523 -0.1742 -0.0820
  169MOL   C12144137   6.328   4.953   1.771 -0.2602 -0.4560  0.0959
  169MOL   C12244138   6.201   4.962   1.684  0.2353 -0.6486  0.1967
  169MOL   C12344139   6.396   5.273   1.852  0.1281  0.2413 -0.4349
  169MOL   H12444140   6.204   5.275   1.740  0.6814  0.8410 -0.7072
  169MOL   H12544141   6.187   5.078   1.870 -0.0781 -0.1214  0.1512
  169MOL   H12644142   6.331   4.884   1.856 -0.1990  1.6108  1.8124
  169MOL   H12744143   6.430   4.971   1.738 -0.2351 -0.8448 -0.0435
  169MOL   H12844144   6.213   4.964   1.576  1.2267  2.1183  0.3031
  169MOL   H12944145   6.111   4.918   1.725  0.9658 -1.4716  0.9541
  169MOL   H13044146   6.444   5.181   1.887  1.4145  0.2468 -2.0867
  169MOL   H13144147   6.469   5.330   1.794  0.3448 -0.4577 -0.8635
  169MOL   C13244148   6.335   5.360   1.961  0.3680 -0.2599  0.6727
  169MOL   C13344149   6.442   5.423   2.036 -0.0709  0.3319 -0.4428
  169MOL   C13444150   6.416   5.537   2.135  0.4033  0.3975  0.3048
  169MOL   C13544151   6.484   5.557   2.001 -0.0727  0.4713 -0.1443
  169MOL   C13644152   6.243   5.290   2.062 -0.4739  0.0526  0.0149
  169MOL   H13744153   6.278   5.443   1.920 -0.4534  0.1108  2.5143
  169MOL   H13844154   6.517   5.354   2.074 -1.7460 -0.1450  2.1526
  169MOL   H13944155   6.310   5.555   2.150  0.0887  0.4239 -1.7882
  169MOL   H14044156   6.485   5.536   2.220  2.5158  1.7833 -1.3565
  169MOL   H14144157   6.427   5.614   1.928 -0.5500 -1.7758 -1.5501
  169MOL   H14244158   6.590   5.579   1.989 -0.3721  2.0213 -0.1506
  169MOL   H14344159   6.226   5.189   2.025  0.7555 -0.0871 -0.1668
  169MOL   H14444160   6.296   5.274   2.156 -0.9076 -0.8000  0.1232
  169MOL   C14544161   6.106   5.351   2.092 -0.2552 -0.2656  0.6295
  169MOL   C14644162   5.999   5.318   1.982 -0.2955 -0.1916 -0.3194
  169MOL   C14744163   5.880   5.408   1.955  0.0718  0.3383  0.4367
  169MOL   C14844164   5.990   5.397   1.851  0.4755 -0.5275  0.1386
  169MOL   C14944165   6.052   5.302   2.226  0.6903 -0.0381 -0.2855
  169MOL   H15044166   6.115   5.459   2.097  2.1733 -0.4414  0.3558
  169MOL   H15144167   5.982   5.211   1.991 -0.6580 -0.1606 -0.6511
  169MOL   H15244168   5.786   5.354   1.949 -0.8459  1.9392  0.1977
  169MOL   H15344169   5.872   5.504   2.006 -0.6054  0.1604  0.6774
  169MOL   H15444170   6.060   5.480   1.842 -0.0654  0.1369  1.9065
  169MOL   H15544171   5.960   5.352   1.756 -0.4774  2.1497 -0.8675
  169MOL   H15644172   5.946   5.328   2.228  0.9117  0.9209 -0.7443
  169MOL   H15744173   6.053   5.194   2.236  0.9336  0.0450  0.5808
  169MOL   C15844174   6.126   5.347   2.357  0.1550 -0.2683 -0.8960
  169MOL   C15944175   6.075   5.272   2.477  0.3192 -0.3041 -0.6207
  169MOL   C16044176   6.092   5.124   2.484  0.3353 -0.5723 -0.6156
  169MOL   C16144177   6.176   5.204   2.571 -0.0687 -0.2063  0.1116
  169MOL   C16244178   6.124   5.500   2.383 -0.1453 -0.1313  0.6068
  169MOL   H16344179   6.230   5.319   2.340  0.1139 -1.0589  0.1492
  169MOL   H16444180   5.984   5.301   2.528 -0.4507 -0.2571 -1.9995
  169MOL   H16544181   6.145   5.070   2.405  1.0290  1.7543 -1.7837
  169MOL   H16644182   6.010   5.066   2.525  0.1103  0.8111  0.9031
  169MOL   H16744183   6.163   5.224   2.677  0.5049 -0.9992  0.3349
  169MOL   H16844184   6.282   5.199   2.547 -0.4848  1.3995 -2.2390
  169MOL   H16944185   6.181   5.542   2.300 -0.8220 -0.8911 -0.2539
  169MOL   H17044186   6.206   5.513   2.453  0.1373 -2.5868  0.7865
  169MOL   C17144187   5.987   5.566   2.421  0.2669 -1.5474 -0.0778
  169MOL   C17244188   6.002   5.667   2.543  0.4298  0.1695  0.0101
  169MOL   C17344189   5.903   5.711   2.653 -0.6741  0.2708  0.4182
  169MOL   C17444190   6.014   5.605   2.680  0.5934  0.7193  0.5284
  169MOL   C17544191   5.930   5.642   2.298  0.0814  0.2591 -0.3610
  169MOL   H17644192   5.915   5.490   2.451 -2.3029  1.3875  1.4978
  169MOL   H17744193   6.077   5.744   2.525 -1.0560  1.5884 -0.3472
  169MOL   H17844194   5.913   5.813   2.690  2.0662  0.2168 -0.0308
  169MOL   H17944195   5.803   5.676   2.630  0.2853 -1.6354 -1.0255
  169MOL   H18044196   5.979   5.503   2.693  2.8915 -0.2354 -0.4799
  169MOL   H18144197   6.096   5.641   2.741  2.3142  0.9999 -1.8998
  169MOL   H18244198   5.960   5.584   2.211 -0.1034  0.2354 -0.4091
  169MOL   H18344199   5.985   5.731   2.271  1.1197 -0.6130 -1.1479
  169MOL   C18444200   5.777   5.689   2.282 -0.3474 -0.2696 -1.3193
  169MOL   C18544201   5.684   5.572   2.256 -0.6773 -0.1292 -0.5840
  169MOL   C18644202   5.536   5.586   2.282 -0.4222  0.5718 -0.4170
  169MOL   C18744203   5.617   5.506   2.380 -0.3630 -0.1823  0.2885
  169MOL   C18844204   5.768   5.772   2.153 -0.3362 -0.0866  0.3064
  169MOL   H18944205   5.754   5.750   2.369  0.0727 -0.0358 -1.3707
  169MOL   H19044206   5.722   5.503   2.181  2.1531  2.3988 -1.5726
  169MOL   H19144207   5.467   5.537   2.214 -0.3756  0.0000 -0.0564
  169MOL   H19244208   5.495   5.681   2.318 -2.8145  0.7564 -3.4943
  169MOL   H19344209   5.638   5.400   2.366  1.6123  0.2210  0.0252
  169MOL   H19444210   5.638   5.558   2.474  0.2902 -1.9101  1.1183
  169MOL   H19544211   5.663   5.775   2.127 -0.1325 -0.5905 -0.5951
  169MOL   H19644212   5.824   5.718   2.076 -0.1326  1.8833 -0.9469
  169MOL   C19744213   5.802   5.927   2.174 -0.7984  0.4818  0.4301
  169MOL   C19844214   5.692   5.994   2.248 -0.1461  0.3933  0.1270
  169MOL   C19944215   5.721   6.129   2.313  0.1380  0.9154 -0.2686
  169MOL   C20044216   5.691   6.008   2.402  0.3221  0.1788  0.0421
  169MOL   C20144217   5.841   5.994   2.042 -0.5124 -0.0354  0.4449
  169MOL   H20244218   5.887   5.924   2.243  0.1102  0.5264 -0.6604
  169MOL   H20344219   5.594   5.968   2.209 -0.7250  1.6055  0.7447
  169MOL   H20444220   5.824   6.162   2.300  0.4276 -0.3303 -1.2404
  169MOL   H20544221   5.635   6.194   2.331  0.5524  1.1335  0.9652
  169MOL   H20644222   5.778   5.959   2.446  0.4368 -0.6297 -1.0738
  169MOL   H20744223   5.593   6.010   2.448  0.7635  0.3273  0.9836
  169MOL   H20844224   5.768   5.954   1.972 -0.6961  1.1539 -0.0572
  169MOL   H20944225   5.822   6.101   2.043  0.0301  0.0651 -0.0009
  169MOL   C21044226   5.985   5.964   2.002 -0.5422 -0.4879  0.2383
  169MOL   C21144227   6.012   5.936   1.856 -0.2757  0.5824 -0.3955
  169MOL   C21244228   6.110   5.827   1.805  0.6631  0.3954  0.2244
  169MOL   C21344229   5.960   5.815   1.785 -0.4899  0.4466  0.1871
  169MOL   C21444230   6.075   6.077   2.060 -0.1533  0.4256 -0.8672
  169MOL   H21544231   6.013   5.872   2.053  0.3421  0.5993  1.7803
  169MOL   H21644232   6.026   6.028   1.799  0.0441 -0.7300 -2.4964
  169MOL   H21744233   6.178   5.841   1.722  0.3000  1.9335  0.1820
  169MOL   H21844234   6.148   5.766   1.887  0.5704 -0.4437 -0.3457
  169MOL   H21944235   5.925   5.818   1.683 -1.5048 -0.7917  0.4877
  169MOL   H22044236   5.906   5.732   1.831 -0.4702 -0.1192 -0.8109
  169MOL   H22144237   6.037   6.173   2.025 -1.0786  0.3355 -0.1270
  169MOL   H22244238   6.054   6.087   2.167 -0.3797  0.4789 -0.9158
  169MOL   C22344239   6.229   6.067   2.056 -0.0669 -0.4054 -0.2271
  169MOL   C22444240   6.276   6.012   2.193  0.5110 -0.5893  0.0215
  169MOL   C22544241   6.261   5.863   2.220  0.0708  0.5285  0.3175
  169MOL   C22644242   6.396   5.931   2.206 -0.5134  0.3183 -0.2784
  169MOL   C22744243   6.294   6.192   2.019 -0.0210  0.1006  0.2518
  169MOL   H22844244   6.249   5.987   1.984 -1.9101 -1.8453  0.8287
  169MOL   H22944245   6.266   6.082   2.276  0.0661 -1.1345  0.4247
  169MOL   H23044246   6.203   5.815   2.141  0.0149  1.4096 -0.1751
  169MOL   H23144247   6.227   5.833   2.319 -0.0019  2.9021  1.0270
  169MOL   H23244248   6.460   5.966   2.287  2.8596 -3.1158 -1.3420
  169MOL   H23344249   6.459   5.898   2.125  0.1168  0.1461  0.2762
  169MOL   H23444250   6.234   6.261   1.961  1.1672  0.3283 -0.7502
  169MOL   H23544251   6.297   6.254   2.108  0.1850  0.6103 -0.1042
  169MOL   C23644252   6.427   6.180   1.950 -0.4754  0.5770 -0.3356
  169MOL   C23744253   6.517   6.293   1.989 -0.8559 -0.5784 -0.0157
  169MOL   C23844254   6.581   6.303   2.122  0.1477 -0.2516  0.1560
  169MOL   C23944255   6.674   6.289   1.995 -0.1414  0.1639 -0.2449
  169MOL   C24044256   6.418   6.161   1.797  0.2642  0.1778 -0.0303
  169MOL   H24144257   6.477   6.086   1.975 -1.9638  0.2005  1.3177
  169MOL   H24244258   6.471   6.389   1.971  0.2474 -0.1443 -0.6166
  169MOL   H24344259   6.572   6.400   2.170  1.1479 -1.0298  1.9579
  169MOL   H24444260   6.555   6.215   2.180 -0.5894  0.9126  1.6327
  169MOL   H24544261   6.729   6.196   1.988 -1.0913 -0.4808  0.8263
  169MOL   H24644262   6.729   6.378   1.962 -2.1287  0.8584 -1.7871
  169MOL   H24744263   6.362   6.069   1.782  2.5457 -1.2135 -0.1455
  169MOL   H24844264   6.377   6.253   1.755  2.4798  0.7788 -0.9482
  169MOL   C24944265   6.549   6.149   1.717 -0.3710 -0.0496  0.2314
  169MOL   C25044266   6.511   6.151   1.572 -0.2227  0.1241  0.8007
  169MOL   C25144267   6.480   6.279   1.500  0.4642  0.2504  0.0967
  169MOL   C25244268   6.604   6.189   1.460 -1.3327 -0.7908 -0.5327
  169MOL   C25344269   6.638   6.026   1.762  0.5882 -1.1755  0.1814
  169MOL   H25444270   6.599   6.245   1.730  1.7580 -1.1139  0.1796
  169MOL   H25544271   6.441   6.073   1.544 -0.9781  0.5762  1.3963
  169MOL   H25644272   6.386   6.279   1.445 -0.6970 -1.2451  1.9931
  169MOL   H25744273   6.495   6.381   1.535 -3.1639  1.4077 -1.5211
  169MOL   H25844274   6.585   6.124   1.376 -2.3447  0.6789 -1.4658
  169MOL   H25944275   6.703   6.225   1.487 -1.2563 -1.7220  0.4674
  169MOL   H26044276   6.594   5.929   1.742 -0.2920 -0.6795 -0.3144
  169MOL   H26144277   6.680   6.028   1.863  1.2952  0.3637 -0.1247
  169MOL   H26244278   6.718   6.030   1.688 -2.2828  0.1945 -2.9641
  170MOL     C144279   7.480   2.839   7.663 -0.2301  0.4555  0.2719
  170MOL     C244280   7.490   2.775   7.802 -0.4510 -0.5870 -0.1289
  170MOL     C344281   7.582   2.838   0.067 -0.1314  0.1554 -0.1637
  170MOL     C444282   7.624   2.706   0.010  0.0906 -0.2470  0.6331
  170MOL     C544283   7.459   2.717   7.566  0.5965 -0.0044  0.0240
  170MOL     H644284   7.400   2.913   7.659 -0.5783  0.1352  1.3230
  170MOL     H744285   7.397   2.741   0.007 -1.6146  2.3624 -0.2034
  170MOL     H844286   7.639   2.929   0.049 -0.7746  0.6341  0.1836
  170MOL     H944287   7.552   2.834   0.172 -0.3694  2.0419 -0.1433
  170MOL    H1044288   7.622   2.607   0.056 -0.1529 -0.8338 -0.6180
  170MOL    H1144289   7.711   2.720   7.786 -0.6377 -0.1565 -0.3559
  170MOL    H1244290   7.361   2.681   7.594  0.0597  1.9219  0.6954
  170MOL    H1344291   7.528   2.633   7.575 -1.3874 -1.4439  1.9810
  170MOL    H1444292   7.579   2.879   7.639  0.7498 -2.6452 -1.0715
  170MOL    C1544293   7.439   2.750   7.419 -0.3636 -0.1440 -0.5450
  170MOL    C1644294   7.572   2.765   7.347  0.5032  0.7403  0.0225
  170MOL    C1744295   7.644   2.894   7.355  0.0588  0.1137 -0.2131
  170MOL    C1844296   7.566   2.861   7.232 -0.0759  0.3152  0.1065
  170MOL    C1944297   7.367   2.626   7.355  0.2829 -0.0892 -0.0829
  170MOL    H2044298   7.380   2.842   7.414 -0.9615 -0.3926  1.3080
  170MOL    H2144299   7.638   2.679   7.338  0.9477  0.9837  0.9058
  170MOL    H2244300   7.751   2.881   7.343 -0.3489 -1.5994 -2.3107
  170MOL    H2344301   7.610   2.969   7.427 -0.5668 -0.0864 -0.2953
  170MOL    H2444302   7.469   2.907   7.216 -0.6945 -0.1682  2.3350
  170MOL    H2544303   7.612   2.827   7.139 -0.8010 -0.0465 -0.1229
  170MOL    H2644304   7.399   2.544   7.420 -0.4356 -0.0521  0.3265
  170MOL    H2744305   7.401   2.600   7.255 -1.5950 -0.8856 -0.5140
  170MOL    C2844306   7.213   2.617   7.351 -0.4950 -0.4087 -0.5389
  170MOL    C2944307   7.156   2.478   7.333 -0.1598  0.8061  0.0878
  170MOL    C3044308   7.156   2.386   7.451  0.2735 -0.6352 -0.4207
  170MOL    C3144309   7.025   2.427   7.397  0.4360 -0.7048  0.5560
  170MOL    C3244310   7.168   2.709   7.230 -0.1052  0.5831  0.1896
  170MOL    H3344311   7.178   2.651   7.448  0.6183 -1.4366  0.2325
  170MOL    H3444312   7.181   2.426   7.241 -0.7052 -3.5898  2.3047
  170MOL    H3544313   7.184   2.432   7.545 -2.1327 -0.1916  0.1294
  170MOL    H3644314   7.170   2.278   7.449 -1.6188 -0.9020 -0.5172
  170MOL    H3744315   6.973   2.506   7.451 -1.1581 -0.0874 -1.8228
  170MOL    H3844316   6.971   2.343   7.353 -1.8678  1.3032 -0.5587
  170MOL    H3944317   7.221   2.672   7.143 -1.4914 -1.6196  0.2246
  170MOL    H4044318   7.205   2.810   7.244  1.0029  0.4410 -1.6812
  170MOL    C4144319   7.019   2.740   7.210  0.2557  0.4344 -0.6400
  170MOL    C4244320   7.010   2.832   7.085 -0.3075  0.2852 -0.5612
  170MOL    C4344321   6.894   2.802   6.989 -0.2664 -0.6087  0.1923
  170MOL    C4444322   7.037   2.777   6.946 -0.7343 -0.1323 -0.3650
  170MOL    C4544323   6.954   2.813   7.326 -0.4164 -0.6701  0.6101
  170MOL    H4644324   6.968   2.644   7.199  2.2343 -0.9072  1.5236
  170MOL    H4744325   7.029   2.937   7.102  0.0281  0.2146 -0.4994
  170MOL    H4844326   6.829   2.717   7.007  0.0695 -0.4015  2.4062
  170MOL    H4944327   6.844   2.885   6.938  1.1334  0.4854  0.5640
  170MOL    H5044328   7.077   2.845   6.871  1.1642  0.5589  1.2587
  170MOL    H5144329   7.053   2.672   6.923 -1.4129  0.3280 -3.1357
  170MOL    H5244330   6.983   2.918   7.331 -2.0262 -0.1409 -0.6864
  170MOL    H5344331   6.982   2.772   7.423 -1.2815 -1.5849  0.4862
  170MOL    C5444332   6.797   2.816   7.313 -0.3050 -0.4541 -0.5846
  170MOL    C5544333   6.731   2.680   7.343  0.2755 -0.5113  0.5462
  170MOL    C5644334   6.707   2.572   7.236 -0.0289 -0.1235  0.5344
  170MOL    C5744335   6.592   2.649   7.295  0.1411 -0.0723 -0.2287
  170MOL    C5844336   6.740   2.927   7.398  0.1370  0.1795  0.4400
  170MOL    H5944337   6.771   2.859   7.216 -1.2313  0.9489  0.2507
  170MOL    H6044338   6.759   2.641   7.440  0.3208  1.1147  1.2064
  170MOL    H6144339   6.722   2.588   7.130 -1.4550  1.9458  0.6190
  170MOL    H6244340   6.727   2.473   7.278  2.0460  0.8612  1.9340
  170MOL    H6344341   6.526   2.598   7.364 -0.6739 -0.0299 -0.9620
  170MOL    H6444342   6.549   2.717   7.221 -0.4040 -0.4300 -0.2443
  170MOL    H6544343   6.633   2.906   7.406  0.2801 -1.0434 -0.6429
  170MOL    H6644344   6.790   2.913   7.494  0.8011  0.2343  0.1071
  170MOL    C6744345   6.750   3.078   7.364  0.3145 -0.1176 -0.8651
  170MOL    C6844346   6.660   3.114   7.250  0.0278  0.0815  1.2347
  170MOL    C6944347   6.681   3.248   7.173 -0.5479  0.0348 -0.5546
  170MOL    C7044348   6.708   3.116   7.108 -0.2025  0.7816  0.0449
  170MOL    C7144349   6.716   3.169   7.496 -0.5697  0.0373 -0.1724
  170MOL    H7244350   6.851   3.106   7.335  0.8823 -0.7731  0.4151
  170MOL    H7344351   6.555   3.083   7.252  0.4719 -1.6545 -0.6619
  170MOL    H7444352   6.595   3.311   7.149 -1.4714 -1.6314 -1.7259
  170MOL    H7544353   6.772   3.302   7.194 -0.4436 -0.7927  1.1615
  170MOL    H7644354   6.637   3.071   7.039 -1.6435 -0.1795  2.1053
  170MOL    H7744355   6.814   3.101   7.087 -0.7942 -1.7907 -1.2711
  170MOL    H7844356   6.613   3.147   7.524 -0.2653 -0.8861  0.2190
  170MOL    H7944357   6.701   3.273   7.468 -1.4222 -0.2864 -0.9637
  170MOL    C8044358   6.813   3.143   7.610  0.5772 -0.0007 -0.2695
  170MOL    C8144359   6.770   3.228   7.721  0.2331 -0.0266 -0.4759
  170MOL    C8244360   6.770   3.166   0.021  1.0018 -0.5122 -0.2298
  170MOL    C8344361   6.641   3.193   7.793  0.1472  0.4968 -0.6615
  170MOL    C8444362   6.968   3.168   7.576 -0.4968 -0.2302  0.3267
  170MOL    H8544363   6.806   3.039   7.642 -1.3050 -0.4357 -1.9760
  170MOL    H8644364   6.802   3.331   7.710  2.7206 -0.9129 -1.8533
  170MOL    H8744365   6.798   3.235   0.101 -0.0731  0.5094 -0.7211
  170MOL    H8844366   6.805   3.063   0.027  0.1992 -0.7767  0.0343
  170MOL    H8944367   6.581   3.113   7.751  0.2435 -0.0525  0.2421
  170MOL    H9044368   6.590   3.284   7.826 -0.8283  0.1990 -1.3014
  170MOL    H9144369   6.998   3.127   7.480  1.7382 -0.7083  1.1898
  170MOL    H9244370   6.989   3.275   7.575 -1.1379 -0.1092 -0.5232
  170MOL    C9344371   7.070   3.114   7.670  0.4046 -0.0237  0.6593
  170MOL    C9444372   7.093   2.971   7.653 -0.0653  0.4992 -0.7593
  170MOL    C9544373   7.153   2.895   7.764 -0.4639 -0.1410  0.6380
  170MOL    C9644374   7.008   2.873   7.731  0.1506  0.9905 -0.5221
  170MOL    C9744375   7.199   3.205   7.680  0.2050 -0.2832 -0.7064
  170MOL    H9844376   7.032   3.132   7.771 -1.2469 -1.6444  0.3447
  170MOL    H9944377   7.149   2.939   7.565  1.5670 -0.3318  0.5401
  170MOL   H10044378   7.212   2.806   7.743  0.6184  0.7781 -0.3102
  170MOL   H10144379   7.178   2.954   0.013  1.2863  1.1858 -0.7065
  170MOL   H10244380   6.972   2.788   7.673  2.1745 -0.1297 -0.1855
  170MOL   H10344381   6.944   2.907   7.812  1.1676 -0.7992  1.0946
  170MOL   H10444382   7.260   3.185   7.768  1.4447  0.9655 -1.2563
  170MOL   H10544383   7.167   3.304   7.711  6.1124  1.1878  1.3835
  170MOL   C10644384   7.303   3.203   7.562  0.0031  0.1806 -0.4601
  170MOL   C10744385   7.253   3.221   7.418  0.2696 -0.1187 -0.0751
  170MOL   C10844386   7.334   3.168   7.300 -0.8417  0.1988  0.3177
  170MOL   C10944387   7.202   3.103   7.333 -0.4240 -0.1680 -0.6007
  170MOL   C11044388   7.426   3.293   7.580  0.7152  0.4675 -0.2935
  170MOL   H11144389   7.337   3.099   7.567 -1.9568 -0.4795 -0.2183
  170MOL   H11244390   7.203   3.317   7.404  0.7166  0.5718  2.6772
  170MOL   H11344391   7.325   3.207   7.199 -0.5286 -2.3360 -0.7454
  170MOL   H11444392   7.428   3.117   7.320 -0.6608  0.0217 -0.9338
  170MOL   H11544393   7.213   2.998   7.359 -0.9410 -0.0397  0.1465
  170MOL   H11644394   7.114   3.113   7.271 -1.5383 -1.7412  0.6860
  170MOL   H11744395   7.501   3.263   7.507  0.2922  1.2863 -1.0693
  170MOL   H11844396   7.398   3.393   7.547 -2.0607 -0.1574  0.0638
  170MOL   C11944397   7.499   3.283   7.721 -0.0771  0.3221 -0.2430
  170MOL   C12044398   7.653   3.289   7.716  0.1937 -0.5097  0.0299
  170MOL   C12144399   7.735   3.287   7.585  0.2857  0.0353 -0.6737
  170MOL   C12244400   7.737   3.175   7.680 -0.1203 -0.1344  0.6824
  170MOL   C12344401   7.447   3.394   7.820  0.2050 -0.5728  0.0364
  170MOL   H12444402   7.475   3.181   7.752  1.0484  0.3027  0.5813
  170MOL   H12544403   7.701   3.360   7.783  0.5858 -0.4989 -0.2615
  170MOL   H12644404   7.805   3.370   7.581 -0.3145  0.5084 -1.9329
  170MOL   H12744405   7.707   3.267   7.482 -2.1682  1.4242 -0.3121
  170MOL   H12844406   7.688   3.081   7.656 -1.3795  0.3801  1.2111
  170MOL   H12944407   7.821   3.148   7.744  0.6707  0.6310 -0.0133
  170MOL   H13044408   7.504   3.487   7.811 -0.7327 -0.1126 -1.2903
  170MOL   H13144409   7.343   3.421   7.804 -0.3621 -1.0098  2.8320
  170MOL   C13244410   7.458   3.363   0.130 -0.3542 -0.2615 -0.2886
  170MOL   C13344411   7.377   3.237   0.181 -0.0446  0.3355 -0.2488
  170MOL   C13444412   7.407   3.177   0.317  0.3449  0.2223  0.6927
  170MOL   C13544413   7.445   3.108   0.186  0.0217 -0.9391 -0.3646
  170MOL   C13644414   7.410   3.485   0.217  0.0736  0.3801 -0.0565
  170MOL   H13744415   7.562   3.338   0.148 -0.4575 -2.4152 -2.4819
  170MOL   H13844416   7.273   3.235   0.150 -0.4411  2.0407  0.9214
  170MOL   H13944417   7.492   3.208   0.379 -0.7827  0.3882  2.1749
  170MOL   H14044418   7.320   3.146   0.374 -0.1641  1.7284  0.7467
  170MOL   H14144419   7.547   3.110   0.147 -0.0769 -3.1387 -0.8127
  170MOL   H14244420   7.394   3.021   0.146 -0.0330  0.1727 -2.8012
  170MOL   H14344421   7.349   3.558   0.164  1.2468  0.7404 -0.9184
  170MOL   H14444422   7.337   3.450   0.290 -0.8727  1.0328 -0.6753
  170MOL   C14544423   7.526   3.556   0.297 -0.2026 -0.1745 -0.3941
  170MOL   C14644424   7.660   3.581   0.221  0.2604 -0.1050 -0.0282
  170MOL   C14744425   7.785   3.625   0.294  0.6534 -0.0684  0.2300
  170MOL   C14844426   7.775   3.487   0.236 -0.0091 -0.2350 -0.8839
  170MOL   C14944427   7.498   3.690   0.373 -0.0645 -0.2456 -0.2743
  170MOL   H15044428   7.558   3.483   0.371  1.3963  2.5748  1.7277
  170MOL   H15144429   7.638   3.632   0.128  2.2079  0.1569 -0.3669
  170MOL   H15244430   0.015   3.687   0.238  0.8873  0.3455  0.9708
  170MOL   H15344431   7.785   3.620   0.403 -2.1767  1.3962  0.3478
  170MOL   H15444432   7.753   3.405   0.304 -0.6291  2.2496  2.0747
  170MOL   H15544433   7.826   3.469   0.142 -2.8007  0.2749 -2.5648
  170MOL   H15644434   7.573   3.761   0.337 -0.5786  0.4406 -0.0201
  170MOL   H15744435   7.403   3.730   0.338 -0.2992 -0.5594  0.0068
  170MOL   C15844436   7.517   3.690   0.527 -0.1847 -0.5855 -1.0779
  170MOL   C15944437   7.402   3.624   0.591 -0.1785  0.2333 -0.6034
  170MOL   C16044438   7.377   3.480   0.583  0.2404  0.7381  0.4802
  170MOL   C16144439   7.410   3.542   0.716 -0.2944 -0.7581 -0.1480
  170MOL   C16244440   7.543   3.830   0.589  0.1549 -0.1086  0.0345
  170MOL   H16344441   7.608   3.634   0.544 -1.2292 -1.8094  0.7641
  170MOL   H16444442   7.307   3.678   0.594 -0.3914 -0.2170  1.2273
  170MOL   H16544443   7.447   3.403   0.552 -0.2417 -0.4815  2.2982
  170MOL   H16644444   7.274   3.451   0.564 -0.0047  0.0079  2.7539
  170MOL   H16744445   7.329   3.554   0.788 -0.3609  0.9645 -0.4877
  170MOL   H16844446   7.508   3.517   0.757 -0.4198  2.0593  2.0597
  170MOL   H16944447   7.512   3.841   0.693 -1.0533  1.6251 -0.4758
  170MOL   H17044448   7.462   3.894   0.554 -0.3069 -0.6800  0.0542
  170MOL   C17144449   7.686   3.877   0.567  0.1135  0.0244  0.8024
  170MOL   C17244450   7.681   4.022   0.515 -0.6155 -0.2905  0.6474
  170MOL   C17344451   7.798   4.089   0.440  0.6304  0.5881  0.0932
  170MOL   C17444452   7.665   4.049   0.367 -0.1310 -0.3587 -0.2952
  170MOL   C17544453   7.779   3.882   0.688 -0.7255 -0.1234  0.3072
  170MOL   H17644454   7.730   3.820   0.485  0.2490 -1.8210  2.1318
  170MOL   H17744455   7.655   4.095   0.591 -0.3277 -0.6379  1.0771
  170MOL   H17844456   7.808   4.196   0.455  1.1912  0.2204  2.6217
  170MOL   H17944457   0.047   4.024   0.440  0.5779  0.5076  1.3445
  170MOL   H18044458   7.659   3.970   0.293 -0.4864  0.4211 -1.1122
  170MOL   H18144459   7.593   4.129   0.351 -0.9142 -1.4996 -2.6039
  170MOL   H18244460   7.714   3.920   0.767 -0.0982  0.6989  0.4282
  170MOL   H18344461   0.017   3.959   0.686  0.3922 -1.2215 -3.5576
  170MOL   C18444462   0.007   3.747   0.719  0.3641  0.5493 -0.0041
  170MOL   C18544463   0.006   3.718   0.864 -0.9386  0.0607  0.2505
  170MOL   C18644464   7.804   3.586   0.922 -0.6000 -0.0070 -0.4648
  170MOL   C18744465   7.710   3.704   0.933 -0.8914 -0.2018  0.8451
  170MOL   C18844466   0.150   3.728   0.656  0.3377  1.3531 -0.8836
  170MOL   H18944467   7.784   3.677   0.663  0.5742 -1.1734  1.8893
  170MOL   H19044468   0.068   3.789   0.918  0.3157 -0.1973 -0.8209
  170MOL   H19144469   0.017   3.553   1.012 -2.3285 -1.2370  0.1220
  170MOL   H19244470   7.774   3.503   0.858  1.1125  0.3933 -1.8073
  170MOL   H19344471   7.701   3.736   1.036 -0.4556 -0.8924  1.1024
  170MOL   H19444472   7.623   3.706   0.867  0.9822  2.0806 -1.6553
  170MOL   H19544473   0.209   3.812   0.694  0.7769  0.4260  0.5408
  170MOL   H19644474   0.137   3.741   0.549 -1.0467 -0.7265 -0.9816
  170MOL   C19744475   0.231   3.602   0.694 -0.6302  0.3187  0.5036
  170MOL   C19844476   0.376   3.623   0.668 -0.4951 -0.2180  0.0809
  170MOL   C19944477   0.451   3.745   0.624  0.1957  0.3252  0.1151
  170MOL   C20044478   0.428   3.623   0.531  0.0738  0.6814 -0.8328
  170MOL   C20144479   0.164   3.481   0.630 -0.0829  0.0165  0.4590
  170MOL   H20244480   0.234   3.588   0.802 -0.8951 -0.3835  0.4205
  170MOL   H20344481   0.438   3.562   0.734  0.3394  1.8274  1.2292
  170MOL   H20444482   0.424   3.843   0.586 -0.3164 -0.0111 -0.3942
  170MOL   H20544483   0.548   3.759   0.672  0.5090 -0.7386 -0.1743
  170MOL   H20644484   0.362   3.621   0.445 -2.0891 -0.5986  0.7936
  170MOL   H20744485   0.518   3.564   0.515 -1.5044 -2.1388  0.1789
  170MOL   H20844486   0.060   3.470   0.660  0.5089 -3.4856  1.4206
  170MOL   H20944487   0.170   3.512   0.525 -1.9753  1.9883  0.9044
  170MOL   C21044488   0.233   3.345   0.648  0.6298 -0.0870  0.0516
  170MOL   C21144489   0.202   3.291   0.783  0.2388  0.3609 -0.1904
  170MOL   C21244490   0.294   3.194   0.847  0.3362  0.0483 -0.2361
  170MOL   C21344491   0.288   3.334   0.903  0.4837 -0.1820  0.5270
  170MOL   C21444492   0.193   3.234   0.550 -0.0814 -0.1542 -0.6551
  170MOL   H21544493   0.340   3.356   0.636  0.5717  1.1671  0.6081
  170MOL   H21644494   0.096   3.286   0.805  0.0310  1.4573 -0.8915
  170MOL   H21744495   0.259   3.118   0.916 -1.1570  0.4360 -0.5501
  170MOL   H21844496   0.379   3.166   0.785  0.2595 -0.6415 -0.0340
  170MOL   H21944497   0.240   3.356   0.998 -2.2356  1.3016 -1.1301
  170MOL   H22044498   0.379   3.392   0.888 -1.2703  2.3332 -0.7349
  170MOL   H22144499   0.239   3.138   0.575 -2.1375 -0.9799  0.0109
  170MOL   H22244500   0.088   3.214   0.572 -0.0912  1.1682  0.6226
  170MOL   C22344501   0.212   3.251   0.401 -0.3028 -0.6329 -0.7894
  170MOL   C22444502   0.148   3.133   0.330 -0.3619  0.4192 -0.1402
  170MOL   C22544503   7.839   3.107   0.327  0.0816  0.3354  0.2354
  170MOL   C22644504   0.075   3.144   0.201  0.1616 -0.1674  0.3701
  170MOL   C22744505   0.362   3.264   0.365 -0.1309  0.3391 -0.1741
  170MOL   H22844506   0.163   3.344   0.374 -0.9099 -0.4165  0.9920
  170MOL   H22944507   0.210   3.045   0.343 -1.6369 -0.4134  0.3542
  170MOL   H23044508   7.770   3.181   0.366 -0.4978 -0.9703  1.7164
  170MOL   H23144509   7.806   3.006   0.352 -0.6558  0.4089 -0.4062
  170MOL   H23244510   0.079   3.066   0.126  0.7746 -1.9805  2.2332
  170MOL   H23344511   0.066   3.247   0.167 -2.3532 -0.1427  0.9778
  170MOL   H23444512   0.409   3.344   0.422 -0.6356  0.0713  0.6282
  170MOL   H23544513   0.406   3.171   0.401  1.2969  0.8684 -0.5023
  170MOL   C23644514   0.382   3.280   0.212  0.0609 -0.1905  0.6117
  170MOL   C23744515   0.527   3.249   0.161  0.1434 -0.4393 -0.5208
  170MOL   C23844516   0.587   3.110   0.172  0.2143 -0.7710  0.0459
  170MOL   C23944517   0.550   3.166   0.035 -0.1554  0.2269  0.2337
  170MOL   C24044518   0.351   3.420   0.169  0.3550  0.0384  0.2500
  170MOL   H24144519   0.307   3.223   0.158  0.9207  0.3574 -1.2085
  170MOL   H24244520   0.602   3.322   0.190 -2.3105  2.1666 -0.4612
  170MOL   H24344521   0.690   3.110   0.208 -0.2164  0.2337  1.3195
  170MOL   H24444522   0.520   3.035   0.213 -1.3035  0.9921  0.8607
  170MOL   H24544523   0.474   3.113   7.816  0.7989 -0.6002 -0.2883
  170MOL   H24644524   0.639   3.184   7.814 -0.2379 -2.8302 -0.9252
  170MOL   H24744525   0.250   3.436   0.205 -0.3641 -1.8234 -0.8659
  170MOL   H24844526   0.416   3.482   0.231 -0.1838 -0.4815  1.3513
  170MOL   C24944527   0.357   3.446   0.014  0.6514  0.7551  0.2570
  170MOL   C25044528   0.341   3.593   7.833 -0.2402  0.0447  0.1247
  170MOL   C25144529   0.464   3.683   7.807  0.1315 -0.1622  0.0092
  170MOL   C25244530   0.367   3.655   7.693 -0.2040 -0.1166  0.4227
  170MOL   C25344531   0.245   3.375   7.776 -0.2593 -0.3913 -0.2371
  170MOL   H25444532   0.451   3.405   7.817  0.2804 -1.0547  1.2344
  170MOL   H25544533   0.262   3.651   0.041 -0.3750  0.7657 -0.9509
  170MOL   H25644534   0.462   3.782   0.013  0.5083  0.2972 -0.9685
  170MOL   H25744535   0.564   3.640   7.801  1.1590  2.0329  1.0831
  170MOL   H25844536   0.299   3.736   7.668  0.4066  0.6260  1.1710
  170MOL   H25944537   0.430   3.614   7.614  0.2885  1.8276 -0.2345
  170MOL   H26044538   0.240   3.387   7.668 -2.9210  0.4130 -0.0688
  170MOL   H26144539   0.151   3.422   7.806  0.8006 -0.2575  3.0223
  170MOL   H26244540   0.238   3.267   7.791 -1.6013 -0.6301 -2.3706
  171MOL     C144541   3.161   5.280   0.006  0.4534 -0.1672 -0.8575
  171MOL     C244542   3.283   5.302   7.766  0.5375 -0.5433 -0.2829
  171MOL     C344543   3.415   5.364   7.812 -0.0381  0.9352 -0.0611
  171MOL     C444544   3.326   5.440   7.716  0.1952  0.2322  0.5255
  171MOL     C544545   3.033   5.339   7.782  0.0002  0.5719  0.5985
  171MOL     H644546   3.127   5.177   0.010 -0.2382 -0.0162 -2.7533
  171MOL     H744547   3.302   5.234   7.683 -0.3204  0.1046 -1.0233
  171MOL     H844548   3.423   5.416   0.068  0.1115  1.5947 -0.4307
  171MOL     H944549   3.508   5.319   7.778 -0.7517  1.3389 -2.6927
  171MOL    H1044550   3.356   5.434   7.611 -1.1778 -1.0903  0.1913
  171MOL    H1144551   3.283   5.533   7.754  0.7896  0.5039  0.5515
  171MOL    H1244552   3.008   5.286   7.690 -1.4058 -0.6189  1.6408
  171MOL    H1344553   3.054   5.445   7.767  0.9904  0.3158  0.0757
  171MOL    H1444554   3.180   5.323   0.105  0.0618 -0.9789 -0.4277
  171MOL    C1544555   2.903   5.336   0.033 -0.2004  0.3972  0.6101
  171MOL    C1644556   2.866   5.199   0.098 -0.1124  0.1648  0.4496
  171MOL    C1744557   2.827   5.089   0.001 -0.5842  0.0801  0.1900
  171MOL    C1844558   2.727   5.142   0.098  0.0222  0.6681  0.2413
  171MOL    C1944559   2.902   5.452   0.138  0.0640  0.9811  0.4843
  171MOL    H2044560   2.824   5.360   7.801 -0.1800  1.6396  0.9936
  171MOL    H2144561   2.921   5.185   0.191  1.3399 -1.9189 -0.6883
  171MOL    H2244562   2.854   4.988   0.033  0.1372  0.3953  0.5893
  171MOL    H2344563   2.797   5.106   7.737  1.3261  1.3181 -0.1674
  171MOL    H2444564   2.646   5.181   0.036 -0.9541  1.4179  1.9551
  171MOL    H2544565   2.701   5.073   0.178  1.4620  1.5701  1.5170
  171MOL    H2644566   3.000   5.452   0.184  0.4044  1.2967 -0.2265
  171MOL    H2744567   2.841   5.429   0.225  1.4406  3.9046  2.2832
  171MOL    C2844568   2.854   5.585   0.081 -0.3525 -0.0815  0.3012
  171MOL    C2944569   2.924   5.703   0.158 -0.0154  0.0051 -0.0500
  171MOL    C3044570   3.070   5.705   0.167 -0.2394  0.3719  0.2358
  171MOL    C3144571   2.998   5.817   0.095 -0.0118  0.5052  1.0515
  171MOL    C3244572   2.705   5.587   0.058 -0.3591 -0.6393 -0.3422
  171MOL    H3344573   2.895   5.590   7.819  0.3122 -1.3970  0.4965
  171MOL    H3444574   2.883   5.712   0.258 -2.4491 -2.7610 -0.7074
  171MOL    H3544575   3.132   5.629   0.120 -1.2008 -0.5451  0.4430
  171MOL    H3644576   3.112   5.745   0.260 -0.6085  0.0835  0.5260
  171MOL    H3744577   2.998   5.817   7.825  0.1100 -1.3766  1.0435
  171MOL    H3844578   2.982   5.909   0.151  0.0595  1.6790 -0.8084
  171MOL    H3944579   2.675   5.587   0.162 -1.6009  1.2660 -0.6826
  171MOL    H4044580   2.681   5.484   0.032  0.2963 -0.3511 -2.2139
  171MOL    C4144581   2.643   5.696   7.808  0.5286 -0.2362  0.6215
  171MOL    C4244582   2.538   5.768   0.048  0.1029 -0.5627  0.2562
  171MOL    C4344583   2.496   5.905   0.013  0.0349  0.4541 -0.0093
  171MOL    C4444584   2.567   5.881   0.143 -0.1483  0.6823 -0.4708
  171MOL    C4544585   2.575   5.634   7.679 -0.4443 -0.3547 -0.7868
  171MOL    H4644586   2.720   5.769   7.781 -1.6187  1.8279 -0.0788
  171MOL    H4744587   2.453   5.709   0.082  0.7550 -1.6711 -0.0281
  171MOL    H4844588   2.555   5.965   7.784  0.3819 -0.9008 -0.9068
  171MOL    H4944589   2.390   5.927   0.000  0.1759  0.8084 -0.5606
  171MOL    H5044590   2.512   5.902   0.234  0.6019  0.4897  0.0317
  171MOL    H5144591   2.676   5.886   0.145 -0.2572  3.6333  0.6310
  171MOL    H5244592   2.505   5.706   7.637 -1.2192 -0.0498  0.9454
  171MOL    H5344593   2.512   5.547   7.699  0.7363 -1.4132 -1.5864
  171MOL    C5444594   2.671   5.603   7.565 -0.1181 -0.2804  0.1659
  171MOL    C5544595   2.620   5.490   7.480 -1.0937  0.4664 -0.1203
  171MOL    C5644596   2.596   5.343   7.532  0.0547  0.7878  0.3021
  171MOL    C5744597   2.715   5.377   7.446  0.5499 -0.4088 -0.3268
  171MOL    C5844598   2.707   5.727   7.485  0.5239  0.0232  0.0228
  171MOL    H5944599   2.757   5.559   7.615  0.7194  0.2877 -0.7516
  171MOL    H6044600   2.550   5.519   7.401  0.5404 -2.6997 -2.8514
  171MOL    H6144601   2.622   5.324   7.636 -0.1577  0.3579  0.2788
  171MOL    H6244602   2.510   5.289   7.492 -1.5943  2.3471  1.6931
  171MOL    H6344603   2.705   5.354   7.340 -1.6110 -2.1124  0.1957
  171MOL    H6444604   2.815   5.382   7.487  1.1715 -0.7430 -1.7855
  171MOL    H6544605   2.620   5.760   7.428  0.1782 -0.8223  0.0490
  171MOL    H6644606   2.724   5.806   7.559 -0.6726 -1.3521  1.8187
  171MOL    C6744607   2.829   5.711   7.395  0.8142  0.4891 -0.2830
  171MOL    C6844608   2.849   5.819   7.298 -0.0694 -0.3750 -0.2669
  171MOL    C6944609   2.880   5.801   7.150 -0.5551  0.5728  0.2562
  171MOL    C7044610   2.746   5.856   7.200  0.1174 -0.0682  0.6772
  171MOL    C7144611   2.968   5.685   7.473  0.0454  0.2912  0.5261
  171MOL    H7244612   2.804   5.623   7.337  0.8061  0.7238 -0.6326
  171MOL    H7344613   2.888   5.908   7.349 -0.7975 -0.3019  0.1671
  171MOL    H7444614   2.950   5.877   7.117 -1.6508  1.0404 -1.0308
  171MOL    H7544615   2.865   5.715   7.085 -2.5605  1.3050 -0.2985
  171MOL    H7644616   2.660   5.788   7.196 -1.6392  2.0906  0.6957
  171MOL    H7744617   2.727   5.951   7.150  0.1480 -0.0260  0.7471
  171MOL    H7844618   2.952   5.619   7.558  1.1294 -0.4066  0.1936
  171MOL    H7944619   2.982   5.786   7.512  3.2657  0.0695  0.0288
  171MOL    C8044620   3.089   5.649   7.386 -0.1316 -0.4896  0.6151
  171MOL    C8144621   3.086   5.501   7.354 -0.3344 -0.2839 -0.2632
  171MOL    C8244622   3.169   5.437   7.245 -0.6970 -0.0194 -0.0457
  171MOL    C8344623   3.026   5.449   7.219  0.3745  0.5742  0.0297
  171MOL    C8444624   3.219   5.676   7.458 -0.7854 -0.4037 -0.8185
  171MOL    H8544625   3.086   5.708   7.295  0.5490  0.0845  0.9592
  171MOL    H8644626   3.057   5.430   7.432  0.9904 -0.5476 -0.0009
  171MOL    H8744627   3.212   5.343   7.278  0.2204  0.3379 -0.1890
  171MOL    H8844628   3.234   5.493   7.177 -0.2654 -0.3897  0.0632
  171MOL    H8944629   2.989   5.520   7.145 -0.7109 -0.5391 -0.5284
  171MOL    H9044630   2.986   5.347   7.216  0.8785  0.3927 -1.2122
  171MOL    H9144631   3.199   5.668   7.565  1.7605 -1.1919 -0.3917
  171MOL    H9244632   3.291   5.595   7.458 -1.0572 -0.6458 -1.0937
  171MOL    C9344633   3.300   5.804   7.429  0.1306  1.0848  0.0757
  171MOL    C9444634   3.405   5.840   7.549  0.4071 -0.1541  0.0433
  171MOL    C9544635   3.456   5.977   7.571  0.5350 -0.8819 -0.5789
  171MOL    C9644636   3.354   5.922   7.664  0.8149 -0.3679 -0.4507
  171MOL    C9744637   3.380   5.784   7.296  0.0799  0.5598  0.1638
  171MOL    H9844638   3.237   5.890   7.409 -2.6715 -0.9543 -0.2143
  171MOL    H9944639   3.488   5.770   7.553  1.4686  1.0599 -0.4731
  171MOL   H10044640   3.550   5.995   7.624  0.7268 -2.7602 -0.2458
  171MOL   H10144641   3.420   6.040   7.490 -0.4503  1.1732  1.3778
  171MOL   H10244642   3.392   5.904   7.764 -1.8018 -2.8804  0.1551
  171MOL   H10344643   3.249   5.953   7.662  1.0648  0.6611  1.0426
  171MOL   H10444644   3.382   5.678   7.270 -0.9061 -0.3674  3.5770
  171MOL   H10544645   3.482   5.816   7.316  0.0772 -0.4556  1.9617
  171MOL   C10644646   3.328   5.856   7.168 -0.2370  0.5963 -0.0740
  171MOL   C10744647   3.381   6.001   7.161 -0.1606 -0.7467 -0.0688
  171MOL   C10844648   3.321   6.121   7.087  0.4505  0.2471 -0.0825
  171MOL   C10944649   3.302   6.108   7.237  0.1307  0.2817  0.0837
  171MOL   C11044650   3.352   5.772   7.033  0.1095 -0.9693  0.1681
  171MOL   H11144651   3.220   5.865   7.178 -0.1380  0.3456  1.4531
  171MOL   H11244652   3.489   6.005   7.177  0.5265 -1.2999 -3.9366
  171MOL   H11344653   3.384   6.206   7.060 -0.2263  0.4650 -0.9939
  171MOL   H11444654   3.238   6.109   7.017 -0.9169 -0.9487  1.6839
  171MOL   H11544655   3.205   6.073   7.271 -0.0450 -1.5566 -2.1649
  171MOL   H11644656   3.367   6.164   7.303  0.5811  0.3150 -0.3871
  171MOL   H11744657   3.333   5.667   7.053 -0.3605 -1.0226 -0.5335
  171MOL   H11844658   3.272   5.805   6.967  0.2748  0.0988  0.4845
  171MOL   C11944659   3.496   5.782   6.967  0.0970  0.5605  0.3864
  171MOL   C12044660   3.587   5.701   7.056 -0.0406 -0.2328  0.1516
  171MOL   C12144661   3.676   5.757   7.172 -0.4580  0.0097  0.5323
  171MOL   C12244662   3.732   5.719   7.038 -0.7555 -0.5177 -0.3848
  171MOL   C12344663   3.487   5.714   6.825  0.4479 -0.5942 -0.0915
  171MOL   H12444664   3.539   5.881   6.949 -0.5129  0.4781 -1.6386
  171MOL   H12544665   3.555   5.597   7.061 -2.2427  0.3862 -0.3500
  171MOL   H12644666   3.712   5.698   7.255  1.2905 -2.5644 -1.9469
  171MOL   H12744667   3.671   5.864   7.193 -2.1134 -0.8197  4.6872
  171MOL   H12844668   3.770   5.795   6.971 -0.1203 -0.8289 -0.3837
  171MOL   H12944669   3.792   5.629   7.030  1.5988  0.9986 -0.0309
  171MOL   H13044670   3.580   5.661   6.808 -0.3252 -2.0466  0.0871
  171MOL   H13144671   3.406   5.641   6.816  0.0339  0.0671 -2.2311
  171MOL   C13244672   3.484   5.813   6.707 -0.0694 -0.5405  0.1156
  171MOL   C13344673   3.365   5.899   6.695  0.1753  0.1202 -0.3407
  171MOL   C13444674   3.370   6.033   6.616  0.5820  0.2391 -0.3519
  171MOL   C13544675   3.348   6.030   6.768  0.4202 -0.0340 -0.8405
  171MOL   C13644676   3.487   5.732   6.570  0.3354  0.7297  0.6091
  171MOL   H13744677   3.571   5.878   6.712 -2.3300  2.6467  0.0522
  171MOL   H13844678   3.271   5.846   6.680 -0.9890  1.9424  0.2862
  171MOL   H13944679   3.470   6.059   6.581  1.1171 -0.8947  0.3139
  171MOL   H14044680   3.286   6.043   6.548 -1.1354 -1.4302  1.4570
  171MOL   H14144681   3.425   6.067   6.835 -1.4445  0.9733  0.8023
  171MOL   H14244682   3.246   6.034   6.807  0.4465 -0.0986 -0.7642
  171MOL   H14344683   3.442   5.635   6.594  0.5139  1.2650  3.2276
  171MOL   H14444684   3.431   5.780   6.490 -0.2665 -1.2348 -0.1870
  171MOL   C14544685   3.627   5.706   6.510  0.3381  0.4300 -0.5258
  171MOL   C14644686   3.625   5.577   6.435 -0.2237 -0.0365 -0.3010
  171MOL   C14744687   3.760   5.502   6.433  0.0532  0.2557 -0.6743
  171MOL   C14844688   3.637   5.444   6.504 -0.2906 -0.1253  0.0615
  171MOL   C14944689   3.665   5.827   6.413 -0.5821 -0.3605 -0.0758
  171MOL   H15044690   3.697   5.714   6.593 -0.5983 -0.6410  0.3948
  171MOL   H15144691   3.562   5.572   6.346  2.1731  1.1881 -2.1115
  171MOL   H15244692   3.790   5.457   6.338  1.6918 -0.1866  0.0314
  171MOL   H15344693   3.843   5.549   6.485 -0.1619 -0.3815  0.2649
  171MOL   H15444694   3.636   5.432   6.612 -1.0514  2.8713  0.4145
  171MOL   H15544695   3.581   5.367   6.452 -0.0092  0.5422 -1.2582
  171MOL   H15644696   3.611   5.827   6.318 -0.4705  1.0369 -0.1638
  171MOL   H15744697   3.630   5.919   6.461  2.9054  2.3334 -2.4159
  171MOL   C15844698   3.817   5.850   6.371  0.6466 -0.4139 -0.0758
  171MOL   C15944699   3.852   6.003   6.371  0.2195  0.0397 -1.2084
  171MOL   C16044700   3.865   6.087   6.499 -0.5556 -0.6271 -0.1694
  171MOL   C16144701   3.980   6.078   6.399 -0.2575 -0.4296  0.3431
  171MOL   C16244702   3.845   5.791   6.229 -0.2459 -0.5384  0.4118
  171MOL   H16344703   3.886   5.814   6.447  0.7057  0.2500  0.1873
  171MOL   H16444704   3.780   6.060   6.312 -1.7435  1.3955  2.3007
  171MOL   H16544705   3.876   6.043   6.597 -0.8205  0.2157  0.2461
  171MOL   H16644706   3.833   6.191   6.488 -2.3862 -0.9498  1.7525
  171MOL   H16744707   4.011   6.155   6.328  1.3603  1.3583  2.8983
  171MOL   H16844708   4.063   6.013   6.427  0.4119 -0.1009 -0.8269
  171MOL   H16944709   3.802   5.855   6.152 -0.4565 -2.5796 -1.2234
  171MOL   H17044710   3.788   5.698   6.218 -3.3036  1.5754 -2.7071
  171MOL   C17144711   3.997   5.771   6.190 -0.3689  0.7152 -0.1016
  171MOL   C17244712   4.057   5.636   6.240 -0.6326  0.1762 -1.1016
  171MOL   C17344713   4.205   5.634   6.276 -0.2407  0.2242  0.2683
  171MOL   C17444714   4.105   5.633   6.386 -0.0843 -0.3021 -0.7144
  171MOL   C17544715   4.020   5.765   6.039  0.4251 -0.1884 -0.0875
  171MOL   H17644716   4.059   5.845   6.241 -1.0381 -1.1419  3.6192
  171MOL   H17744717   4.020   5.548   6.189 -1.7364 -0.9732  1.5764
  171MOL   H17844718   4.258   5.543   6.247 -0.2460 -0.2952  1.8084
  171MOL   H17944719   4.272   5.719   6.268  0.8413 -0.7432 -1.1569
  171MOL   H18044720   4.093   5.726   6.442 -2.2932 -2.0193  1.8024
  171MOL   H18144721   4.085   5.544   6.445 -0.1701  0.6885  0.7737
  171MOL   H18244722   3.945   5.824   5.988 -1.2058 -1.3350  0.9140
  171MOL   H18344723   3.996   5.664   6.004  0.0972  0.0432 -0.5351
  171MOL   C18444724   4.158   5.801   5.983 -0.4241  0.5035  0.0189
  171MOL   C18544725   4.180   5.947   5.999 -0.2404  0.8612  0.8396
  171MOL   C18644726   4.322   6.009   5.986  0.3443  0.1778  0.5288
  171MOL   C18744727   4.251   6.006   6.113  0.3621  0.1414 -0.4568
  171MOL   C18844728   4.172   5.764   5.835  0.4016  0.0106  0.3043
  171MOL   H18944729   4.236   5.743   6.033 -0.9552 -0.0109  0.2563
  171MOL   H19044730   4.099   6.005   5.956 -0.9056 -0.9549 -0.4252
  171MOL   H19144731   4.334   6.106   5.938 -1.9787  0.6040  0.7231
  171MOL   H19244732   4.394   5.934   5.954  0.5857  0.1438  1.1474
  171MOL   H19344733   4.216   6.101   6.153  0.1930 -0.7946  1.6657
  171MOL   H19444734   4.293   5.938   6.187  0.4138  0.2484 -0.3881
  171MOL   H19544735   4.246   5.831   5.792  2.6881 -2.7604 -0.2614
  171MOL   H19644736   4.084   5.771   5.772  0.4996 -0.8182  0.0659
  171MOL   C19744737   4.238   5.627   5.815  0.1486 -0.3621 -0.3524
  171MOL   C19844738   4.392   5.646   5.815 -0.1041 -0.4225  0.0330
  171MOL   C19944739   4.480   5.524   5.844 -0.2673  0.1223  0.7745
  171MOL   C20044740   4.476   5.639   5.947 -0.1183  0.3352  0.0556
  171MOL   C20144741   4.176   5.547   5.696  0.2266 -0.4497 -0.3856
  171MOL   H20244742   4.228   5.561   5.901 -0.6167  1.1922  0.7754
  171MOL   H20344743   4.423   5.714   5.737 -0.2867  1.1326  1.2943
  171MOL   H20444744   4.430   5.428   5.856 -0.2861  0.2599  1.9095
  171MOL   H20544745   4.564   5.519   5.775 -0.1189 -0.2578  0.9810
  171MOL   H20644746   4.444   5.603   6.045 -1.1042 -1.3127 -0.8502
  171MOL   H20744747   4.566   5.699   5.953  0.8261 -1.1232  0.5275
  171MOL   H20844748   4.177   5.597   5.599  0.5473  0.0761 -0.1153
  171MOL   H20944749   4.251   5.471   5.675  0.7506 -0.6172  1.9379
  171MOL   C21044750   4.027   5.492   5.714  0.7363 -0.2743 -0.1958
  171MOL   C21144751   3.967   5.448   5.580  0.3563 -0.3878  0.2362
  171MOL   C21244752   3.819   5.445   5.553 -0.2742 -0.5304  0.5123
  171MOL   C21344753   3.896   5.545   5.484 -0.0761 -0.5236 -0.5782
  171MOL   C21444754   4.026   5.367   5.807  0.8884  0.0381 -0.2925
  171MOL   H21544755   3.959   5.568   5.755 -1.5799 -3.2445  1.6986
  171MOL   H21644756   4.025   5.372   5.528 -1.8056 -1.6798 -0.3439
  171MOL   H21744757   3.770   5.369   5.493 -1.9891 -0.0505  1.2721
  171MOL   H21844758   3.746   5.480   5.625 -0.1485 -0.7556  0.7511
  171MOL   H21944759   3.920   5.539   5.378 -0.2023  0.4342 -0.6656
  171MOL   H22044760   3.890   5.644   5.529 -0.4516 -0.4461 -0.7975
  171MOL   H22144761   4.081   5.291   5.753  0.0772  1.1515 -2.7647
  171MOL   H22244762   4.080   5.384   5.900  2.5461 -2.8996 -0.6764
  171MOL   C22344763   3.891   5.319   5.859 -0.3268 -0.5760  0.1068
  171MOL   C22444764   3.837   5.401   5.976 -0.4790  0.4751  0.4806
  171MOL   C22544765   3.743   5.519   5.956 -0.4312  0.5475 -0.2756
  171MOL   C22644766   3.687   5.383   5.998  0.3274  0.5914  0.2490
  171MOL   C22744767   3.897   5.176   5.888  0.1932 -0.2198  0.0736
  171MOL   H22844768   3.819   5.320   5.777 -0.1093 -1.0241 -0.0916
  171MOL   H22944769   3.896   5.411   6.067  1.7269  1.1456 -0.9882
  171MOL   H23044770   3.746   5.552   5.853  1.4999 -0.3798 -0.5529
  171MOL   H23144771   3.746   5.596   6.032 -0.4689  0.0392  0.2485
  171MOL   H23244772   3.667   5.362   6.102  0.7588 -0.0424  0.2060
  171MOL   H23344773   3.622   5.327   5.930 -0.0557  3.2356 -1.6578
  171MOL   H23444774   4.000   5.160   5.920  0.0235 -0.7814  0.3510
  171MOL   H23544775   3.843   5.139   5.976 -1.7493  1.0172 -0.5552
  171MOL   C23644776   3.873   5.080   5.769  0.2906  0.0137 -0.8290
  171MOL   C23744777   3.727   5.043   5.766  0.0879 -0.3482  0.3117
  171MOL   C23844778   3.633   5.120   5.679  0.3492  0.5103  0.3841
  171MOL   C23944779   3.670   4.978   5.648 -0.3132 -0.2315 -0.0682
  171MOL   C24044780   3.950   4.941   5.785 -0.1358 -0.1024 -0.8259
  171MOL   H24144781   3.914   5.128   5.680  1.7077  0.6036  0.1063
  171MOL   H24244782   3.676   5.006   5.855 -2.2591 -1.9095 -1.6183
  171MOL   H24344783   3.529   5.135   5.708  0.1735  1.8070 -0.8281
  171MOL   H24444784   3.659   5.196   5.605 -3.0403  0.1243 -1.3257
  171MOL   H24544785   3.729   4.965   5.557 -0.0747  1.8452 -0.2378
  171MOL   H24644786   3.584   4.913   5.656  0.1884 -0.7427  1.1814
  171MOL   H24744787   3.926   4.891   5.879  0.5934 -0.7925 -1.0002
  171MOL   H24844788   3.914   4.871   5.710  1.3153  0.5934 -2.1886
  171MOL   C24944789   4.098   4.944   5.788  0.3524  0.2307  0.9756
  171MOL   C25044790   4.163   4.941   5.649 -0.5886  0.4105  0.6563
  171MOL   C25144791   4.147   5.052   5.556 -0.3767 -0.9539 -0.0406
  171MOL   C25244792   4.279   5.020   5.621  0.3856  0.7047  0.0822
  171MOL   C25344793   4.156   4.842   5.877 -0.0692 -0.0639  0.1598
  171MOL   H25444794   4.132   5.038   5.832  3.2474 -1.3253  2.1509
  171MOL   H25544795   4.152   4.847   5.596  0.1644  0.9976 -0.5762
  171MOL   H25644796   4.135   5.022   5.452 -0.8365 -0.5173 -0.1188
  171MOL   H25744797   4.101   5.146   5.588 -2.9442 -1.9762 -0.5517
  171MOL   H25844798   4.357   4.987   5.552 -2.5290 -3.4398 -1.3899
  171MOL   H25944799   4.310   5.097   5.691 -1.3492  1.1671  0.3614
  171MOL   H26044800   4.112   4.857   5.976 -2.3566 -0.8176 -0.7223
  171MOL   H26144801   4.265   4.851   5.874 -0.0565 -0.4285 -0.6287
  171MOL   H26244802   4.143   4.740   5.842  0.8247 -0.1724  0.1350
  172MOL     C144803   2.546   4.720   2.538 -0.3921  0.0070  0.0490
  172MOL     C244804   2.596   4.714   2.393 -0.1566 -0.3493  0.2681
  172MOL     C344805   2.577   4.595   2.308 -0.2807  0.0460  0.5513
  172MOL     C444806   2.712   4.619   2.372  0.6851 -0.2280  0.7457
  172MOL     C544807   2.629   4.805   2.626 -0.4622 -0.5259  0.3631
  172MOL     H644808   2.441   4.748   2.537 -0.5118 -0.4618 -2.0594
  172MOL     H744809   2.601   4.808   2.338 -0.1306 -0.4376  0.1206
  172MOL     H844810   2.512   4.517   2.347 -0.0012 -1.5594 -2.0807
  172MOL     H944811   2.568   4.610   2.201  4.0407 -1.6713 -0.1571
  172MOL    H1044812   2.793   4.649   2.306  0.5208 -0.8455  0.2578
  172MOL    H1144813   2.741   4.556   2.456 -0.1121 -0.3652  0.9218
  172MOL    H1244814   2.665   4.894   2.574  0.1798 -0.6162  0.6364
  172MOL    H1344815   2.723   4.763   2.664  0.5178  1.0769 -0.2485
  172MOL    H1444816   2.546   4.622   2.585  0.7418 -0.9233 -1.8369
  172MOL    C1544817   2.555   4.863   2.749 -0.9139  0.1926  0.1484
  172MOL    C1644818   2.458   4.970   2.712  0.2281  0.1127  0.4664
  172MOL    C1744819   2.509   5.108   2.688  0.5430  0.2136  0.1010
  172MOL    C1844820   2.415   5.082   2.808  0.3382 -0.9115 -0.3602
  172MOL    C1944821   2.494   4.756   2.845 -0.6616  0.0838 -0.1168
  172MOL    H2044822   2.629   4.919   2.807  0.2182 -0.1132 -0.9757
  172MOL    H2144823   2.376   4.937   2.650 -0.1733  0.0207  1.0452
  172MOL    H2244824   2.482   5.158   2.595 -0.4267 -0.6275 -0.0755
  172MOL    H2344825   2.614   5.131   2.707  1.0567  0.1310 -2.4915
  172MOL    H2444826   2.479   5.088   2.895 -0.8353 -0.8515  0.5035
  172MOL    H2544827   2.322   5.137   2.795  1.5259  1.4086  0.6476
  172MOL    H2644828   2.426   4.686   2.796 -2.6046  0.5589  1.8540
  172MOL    H2744829   2.432   4.801   2.922  0.1685  0.1051  0.5564
  172MOL    C2844830   2.598   4.667   2.912  0.1206  0.5093 -0.3449
  172MOL    C2944831   2.591   4.517   2.869 -0.0645 -0.3577 -1.0040
  172MOL    C3044832   2.666   4.457   2.758  0.3464 -0.2013 -0.7941
  172MOL    C3144833   2.687   4.405   2.898  0.2653 -0.4235 -0.1982
  172MOL    C3244834   2.600   4.685   3.062 -0.1807 -0.3270  0.0369
  172MOL    H3344835   2.695   4.697   2.872  0.9960 -1.4436  0.2236
  172MOL    H3444836   2.486   4.488   2.873 -0.5462  1.4097 -0.5417
  172MOL    H3544837   2.736   4.522   2.706  2.4133  0.0022  2.1200
  172MOL    H3644838   2.615   4.390   2.689  2.5902 -2.9340  0.1415
  172MOL    H3744839   2.775   4.435   2.955  0.5583  1.3220 -1.5393
  172MOL    H3844840   2.637   4.317   2.938  1.3142  0.0160  2.1587
  172MOL    H3944841   2.661   4.604   3.100 -1.2672 -2.1554 -1.9753
  172MOL    H4044842   2.503   4.665   3.109 -0.5807 -0.7789 -0.9651
  172MOL    C4144843   2.663   4.813   3.114  0.1470  0.0542  0.1659
  172MOL    C4244844   2.815   4.813   3.099 -0.0283  0.4130  0.1745
  172MOL    C4344845   2.895   4.942   3.114  0.2672 -0.1809  0.2807
  172MOL    C4444846   2.895   4.858   2.981 -0.8021 -0.5823 -0.2039
  172MOL    C4544847   2.615   4.839   3.263  0.3236 -0.2041 -0.3614
  172MOL    H4644848   2.618   4.890   3.050 -2.0588 -0.6444  0.8196
  172MOL    H4744849   2.858   4.730   3.154 -0.2264  0.8089  0.9364
  172MOL    H4844850   2.832   5.031   3.121 -0.0313 -0.4722  1.2708
  172MOL    H4944851   2.989   4.943   3.169  2.4146  1.7709 -3.1863
  172MOL    H5044852   2.988   4.813   2.945 -0.2714 -0.0941  0.5461
  172MOL    H5144853   2.831   4.893   2.900 -1.9837 -1.0370  0.5222
  172MOL    H5244854   2.506   4.843   3.260  0.4029  2.1173 -2.5314
  172MOL    H5344855   2.626   4.946   3.282  0.1087 -0.4485  1.1331
  172MOL    C5444856   2.674   4.754   3.378 -0.2273  0.5534  0.1784
  172MOL    C5544857   2.663   4.606   3.363 -0.2720  0.5859  1.1278
  172MOL    C5644858   2.533   4.529   3.378  0.5405  0.7743 -0.5100
  172MOL    C5744859   2.641   4.517   3.482  0.9061  0.2646 -0.1006
  172MOL    C5844860   2.815   4.795   3.420  0.0749  0.5407 -0.8699
  172MOL    H5944861   2.607   4.777   3.461  0.3886  1.2189  0.4923
  172MOL    H6044862   2.747   4.565   3.307 -0.4363 -1.0344  2.0486
  172MOL    H6144863   2.445   4.588   3.402 -0.2991 -0.1931 -1.1887
  172MOL    H6244864   2.521   4.445   3.309  0.4369  0.2055  0.2008
  172MOL    H6344865   2.708   4.431   3.488  0.1385 -0.3763 -0.6631
  172MOL    H6444866   2.629   4.570   3.576 -1.4071  1.0022 -0.7787
  172MOL    H6544867   2.890   4.721   3.394 -1.6371 -1.5340 -0.0185
  172MOL    H6644868   2.848   4.882   3.363 -0.2289  0.2146 -1.5478
  172MOL    C6744869   2.840   4.841   3.570 -0.1838  0.0967  0.2655
  172MOL    C6844870   2.993   4.855   3.579 -0.0637  0.2319 -0.7030
  172MOL    C6944871   3.062   4.837   3.716  0.8941  0.0056  1.1294
  172MOL    C7044872   3.081   4.733   3.608  0.3397 -0.2160 -0.5421
  172MOL    C7144873   2.764   4.975   3.600 -0.3750 -0.6489 -0.1109
  172MOL    H7244874   2.810   4.761   3.638 -1.2715 -0.6047 -1.0219
  172MOL    H7344875   3.036   4.924   3.506 -0.5492  0.9377 -0.3234
  172MOL    H7444876   3.143   4.902   3.750 -0.5392  2.0787  0.6503
  172MOL    H7544877   3.001   4.790   3.793  0.5166 -0.1484  0.7361
  172MOL    H7644878   3.032   4.636   3.616  1.4516 -0.8279 -1.1333
  172MOL    H7744879   3.175   4.732   3.554  0.0127  2.4303 -1.2460
  172MOL    H7844880   2.716   4.998   3.505 -0.5954 -0.1652  0.1186
  172MOL    H7944881   2.839   5.049   3.628  0.1697 -1.7322  1.4232
  172MOL    C8044882   2.665   4.959   3.720 -1.1622 -0.0272 -0.0116
  172MOL    C8144883   2.557   5.072   3.710 -0.6233 -1.1826  0.1822
  172MOL    C8244884   2.409   5.050   3.734 -0.0999 -0.7194 -0.1081
  172MOL    C8344885   2.462   5.046   3.594  0.1180 -0.0782 -0.1481
  172MOL    C8444886   2.726   4.954   3.865 -0.2502 -0.1735 -0.4003
  172MOL    H8544887   2.606   4.869   3.701 -3.6380  1.6739 -0.6276
  172MOL    H8644888   2.598   5.172   3.715 -0.4356 -1.1981 -1.0226
  172MOL    H8744889   2.346   5.133   3.765 -0.2658  0.0302 -2.3536
  172MOL    H8844890   2.366   4.960   3.778  0.8327  0.3035  2.9439
  172MOL    H8944891   2.472   4.949   3.547  0.0642 -0.5284  0.7668
  172MOL    H9044892   2.422   5.129   3.536  0.8618  0.5510  0.2205
  172MOL    H9144893   2.799   4.873   3.858  1.1441  0.8667  1.6404
  172MOL    H9244894   2.778   5.049   3.882 -0.1910  0.1821 -2.3552
  172MOL    C9344895   2.630   4.925   3.985  0.3458 -0.5037 -0.5293
  172MOL    C9444896   2.595   4.777   3.984  0.2229 -0.1504  0.3482
  172MOL    C9544897   2.472   4.721   4.051 -0.0976  0.1486  0.5264
  172MOL    C9644898   2.496   4.698   3.905 -0.2747  0.7170 -0.1540
  172MOL    C9744899   2.693   4.950   4.123 -0.2427  0.7646 -0.0112
  172MOL    H9844900   2.536   4.978   3.972  1.5754  1.6236 -1.1268
  172MOL    H9944901   2.684   4.725   4.017  1.1345  0.7205 -0.6887
  172MOL   H10044902   2.482   4.643   4.126  0.3128  1.2710  1.6550
  172MOL   H10144903   2.398   4.796   4.079 -1.1740 -0.0274 -1.6980
  172MOL   H10244904   2.517   4.600   3.865 -2.2617 -0.5434  1.7416
  172MOL   H10344905   2.434   4.762   3.842  0.5754 -0.2000 -1.9553
  172MOL   H10444906   2.787   4.895   4.125  0.0602  1.2902  0.5976
  172MOL   H10544907   2.628   4.910   4.201  1.0039 -0.4978  0.3812
  172MOL   C10644908   2.724   5.098   4.152  0.8411  0.3189 -0.3074
  172MOL   C10744909   2.597   5.178   4.142  0.7730 -0.1876  0.0941
  172MOL   C10844910   2.601   5.320   4.165 -0.0160 -0.3681  0.1059
  172MOL   C10944911   2.562   5.287   4.032  0.4664 -0.5305  0.4209
  172MOL   C11044912   2.780   5.105   4.295 -0.7797  0.5563  0.0671
  172MOL   H11144913   2.793   5.145   4.082  2.5308  0.1779  1.2228
  172MOL   H11244914   2.514   5.121   4.183  0.9649  0.1480  0.9621
  172MOL   H11344915   2.522   5.368   4.222  1.6650  0.8110  1.4869
  172MOL   H11444916   2.699   5.367   4.174 -1.1670  1.7279  2.2060
  172MOL   H11544917   2.630   5.300   3.948 -1.3715  4.1960 -0.4983
  172MOL   H11644918   2.458   5.312   4.013  0.5092 -0.9528 -0.3866
  172MOL   H11744919   2.761   5.209   4.324  0.0055  0.2328  1.7769
  172MOL   H11844920   2.724   5.034   4.355 -2.0426  1.0430 -0.5180
  172MOL   C11944921   2.936   5.075   4.296  0.6325 -0.1274 -0.2067
  172MOL   C12044922   3.011   5.200   4.249  0.2146 -0.1672  0.2742
  172MOL   C12144923   3.049   5.213   4.098 -0.4255 -0.5634 -0.1530
  172MOL   C12244924   3.153   5.200   4.201 -0.2366 -0.0500  0.4527
  172MOL   C12344925   2.976   5.034   4.430  0.4147 -0.0686 -0.3951
  172MOL   H12444926   2.978   4.999   4.230  2.3151  0.2890  0.3591
  172MOL   H12544927   2.984   5.289   4.304  0.5205  1.6075 -2.3214
  172MOL   H12644928   3.054   5.314   4.056  2.0062 -1.1385 -1.2951
  172MOL   H12744929   3.062   5.133   4.026  1.3541 -0.4255 -0.0186
  172MOL   H12844930   3.209   5.108   4.186 -0.2746  0.3724 -2.7472
  172MOL   H12944931   3.210   5.292   4.214 -0.0024 -0.0042 -0.7733
  172MOL   H13044932   3.076   5.075   4.448 -0.5614  1.5146  1.6024
  172MOL   H13144933   2.926   5.092   4.507  3.4020  0.0155  1.5728
  172MOL   C13244934   2.975   4.883   4.455 -1.0078  0.4747  0.8159
  172MOL   C13344935   2.988   4.854   4.606  0.5222  0.0696 -0.1286
  172MOL   C13444936   2.897   4.749   4.667 -0.1053 -0.0826  0.1371
  172MOL   C13544937   2.874   4.896   4.695  0.5535  0.1958 -0.8408
  172MOL   C13644938   3.086   4.802   4.377 -0.1957 -0.3131  0.0851
  172MOL   H13744939   2.875   4.847   4.431 -0.5146 -0.3994  0.0050
  172MOL   H13844940   3.089   4.868   4.644  0.3257  1.8457 -0.2084
  172MOL   H13944941   2.820   4.693   4.615  0.9327 -1.3759 -0.0663
  172MOL   H14044942   2.929   4.690   4.752  0.0580  0.9288  0.7841
  172MOL   H14144943   2.796   4.954   4.647  0.6300  2.4055  1.5394
  172MOL   H14244944   2.890   4.913   4.802  0.4550 -2.4844 -0.3567
  172MOL   H14344945   3.138   4.870   4.310  1.8872 -1.6129  0.3329
  172MOL   H14444946   3.168   4.770   4.441  1.7526  0.4848 -1.9465
  172MOL   C14544947   3.047   4.684   4.287  0.3218 -0.4004  0.1291
  172MOL   C14644948   3.120   4.677   4.161  0.5884  0.6342  0.2515
  172MOL   C14744949   3.048   4.654   4.032  0.2457 -0.3002  0.2201
  172MOL   C14844950   3.118   4.785   4.061 -0.0409 -0.5197 -0.2030
  172MOL   C14944951   3.042   4.553   4.366  0.0522 -0.8252 -0.0057
  172MOL   H15044952   2.947   4.711   4.255  0.1040  0.7677  1.7067
  172MOL   H15144953   3.220   4.635   4.163  0.2232 -0.5268 -2.4222
  172MOL   H15244954   3.092   4.611   3.942  0.0132  1.1658 -0.6169
  172MOL   H15344955   2.939   4.652   4.033  0.1606  2.6896  1.5409
  172MOL   H15444956   3.055   4.870   4.088 -0.4223 -0.7664 -0.3156
  172MOL   H15544957   3.215   4.814   4.020 -1.1637  2.3654 -0.9249
  172MOL   H15644958   3.146   4.524   4.382  0.4778  0.6126 -0.0809
  172MOL   H15744959   3.007   4.583   4.465  1.7474  2.6335 -0.3755
  172MOL   C15844960   2.959   4.440   4.303 -0.5124 -0.4175  0.9413
  172MOL   C15944961   2.812   4.441   4.339 -0.6749 -0.3790 -0.4420
  172MOL   C16044962   2.706   4.515   4.259  0.3147 -0.3221 -0.0279
  172MOL   C16144963   2.712   4.357   4.266 -0.9428  0.3650  0.2871
  172MOL   C16244964   3.007   4.298   4.339 -0.5424 -0.6504 -0.2263
  172MOL   H16344965   2.971   4.450   4.195 -3.2024  0.3869  0.6933
  172MOL   H16444966   2.797   4.445   4.446 -0.3118 -2.2333 -0.3158
  172MOL   H16544967   2.729   4.557   4.162  0.0025  0.5906  0.2790
  172MOL   H16644968   2.637   4.572   4.322 -1.2575 -0.0620 -1.9493
  172MOL   H16744969   2.645   4.308   4.335 -0.4153 -2.7762 -1.3511
  172MOL   H16844970   2.741   4.301   4.177 -0.3103  1.1364 -0.0004
  172MOL   H16944971   2.925   4.236   4.303 -1.3486  2.0204 -3.2008
  172MOL   H17044972   3.011   4.279   4.447  3.0059  0.4934 -0.0942
  172MOL   C17144973   3.139   4.245   4.275 -0.7477 -0.2755  0.2669
  172MOL   C17244974   3.215   4.148   4.372  0.4077 -0.4625 -0.2402
  172MOL   C17344975   3.240   4.173   4.522  0.5752  0.4542 -0.6664
  172MOL   C17444976   3.141   4.063   4.485  0.1921 -0.2291  0.2493
  172MOL   C17544977   3.115   4.175   4.135 -0.1718  0.3422  0.0047
  172MOL   H17644978   3.210   4.327   4.267 -0.9153 -0.0304  1.1659
  172MOL   H17744979   3.300   4.105   4.319 -0.3965  1.8674 -3.5929
  172MOL   H17844980   3.343   4.146   4.546  0.6002  0.3181 -0.9245
  172MOL   H17944981   3.209   4.276   4.539 -2.3041 -0.2294 -1.4329
  172MOL   H18044982   3.033   4.066   4.495  0.3077  1.0769  1.1331
  172MOL   H18144983   3.163   3.956   4.483 -3.1021 -0.9547 -1.6626
  172MOL   H18244984   3.036   4.235   4.090  1.7412  1.0654 -2.5046
  172MOL   H18344985   3.066   4.079   4.149  1.6464 -0.4292  1.2414
  172MOL   C18444986   3.230   4.145   4.036  0.3667 -0.0244  0.0549
  172MOL   C18544987   3.324   4.263   4.041 -0.0238  0.5220 -0.4384
  172MOL   C18644988   3.450   4.253   3.964 -0.6410 -0.0941  0.4529
  172MOL   C18744989   3.458   4.254   4.110  0.0531  0.4418  0.1979
  172MOL   C18844990   3.175   4.119   3.893 -0.1939 -0.0617  0.5608
  172MOL   H18944991   3.301   4.068   4.067  0.9413  0.5855  0.2690
  172MOL   H19044992   3.279   4.361   4.041 -1.8465 -0.2260  2.8372
  172MOL   H19144993   3.479   4.339   3.905  0.0023 -1.1093 -0.7369
  172MOL   H19244994   3.453   4.162   3.905  0.6887  0.3819 -0.2373
  172MOL   H19344995   3.479   4.342   4.169  2.7096 -0.1444  0.1972
  172MOL   H19444996   3.498   4.157   4.142 -1.4028 -0.1965  0.1129
  172MOL   H19544997   3.251   4.127   3.815  0.1301 -1.4870  0.7070
  172MOL   H19644998   3.104   4.201   3.891 -1.5196 -1.1819  0.9479
  172MOL   C19744999   3.110   3.983   3.878 -0.1292 -0.0068 -0.1264
  172MOL   C19845000   3.206   3.869   3.898 -0.1100 -0.0910 -0.3356
  172MOL   C19945001   3.169   3.732   3.937  0.3755 -0.3440 -0.4434
  172MOL   C20045002   3.258   3.816   4.032 -0.2577  0.1318  0.0029
  172MOL   C20145003   3.039   3.965   3.736  0.2650  0.0931  0.0657
  172MOL   H20245004   3.026   3.976   3.948  0.4091  1.1537  0.6531
  172MOL   H20345005   3.286   3.883   3.826  1.1379 -0.3937  0.9826
  172MOL   H20445006   3.066   3.711   3.968  0.4694 -0.4964 -0.2278
  172MOL   H20545007   3.221   3.657   3.878 -0.2996 -0.4208 -0.9377
  172MOL   H20645008   3.208   3.848   4.124  0.7498 -1.3240  1.0870
  172MOL   H20745009   3.366   3.813   4.043 -0.2394 -0.1371 -0.2454
  172MOL   H20845010   3.120   3.960   3.663 -0.3068 -2.5320 -0.4314
  172MOL   H20945011   2.988   3.869   3.742 -0.9526  0.6809 -0.5087
  172MOL   C21045012   2.947   4.081   3.682 -0.0070 -0.2336  0.5769
  172MOL   C21145013   2.920   4.059   3.528 -0.0258  0.1764 -0.6836
  172MOL   C21245014   2.891   4.158   3.415 -0.1368  0.1687  0.1987
  172MOL   C21345015   3.026   4.081   3.419  0.3877  0.7157  0.2320
  172MOL   C21445016   2.811   4.076   3.761 -0.6115 -0.0290 -0.7470
  172MOL   H21545017   3.003   4.173   3.691 -0.0906 -0.2987  1.8223
  172MOL   H21645018   2.860   3.969   3.520 -2.0213  1.3922  0.2833
  172MOL   H21745019   2.825   4.122   3.336 -0.9849 -1.3922  1.5884
  172MOL   H21845020   2.898   4.266   3.428  0.4309  0.4373 -2.0382
  172MOL   H21945021   3.041   4.005   3.343 -1.5133  1.2903 -0.7183
  172MOL   H22045022   3.111   4.136   3.461  0.7065  0.3238  0.1079
  172MOL   H22145023   2.747   3.995   3.726 -0.3997  0.7220 -2.9891
  172MOL   H22245024   2.840   4.064   3.865 -0.0594 -1.5976 -1.0663
  172MOL   C22345025   2.734   4.210   3.776  0.5777 -0.5080 -0.0409
  172MOL   C22445026   2.831   4.322   3.836 -0.0591 -0.2368  0.1333
  172MOL   C22545027   2.921   4.423   3.755 -0.5312 -0.4123 -0.0806
  172MOL   C22645028   2.795   4.471   3.838 -0.3308  0.5005 -0.7036
  172MOL   C22745029   2.617   4.188   3.877  0.2102 -0.1431  0.2052
  172MOL   H22845030   2.705   4.239   3.675 -1.2116  1.0985  0.8965
  172MOL   H22945031   2.858   4.296   3.938 -0.7470  2.0258  0.9093
  172MOL   H23045032   2.915   4.406   3.648  2.6381  0.9786 -0.5494
  172MOL   H23145033   3.025   4.427   3.785 -0.8771  0.6939  1.0161
  172MOL   H23245034   2.806   4.514   3.937 -1.8733  1.5288 -0.9638
  172MOL   H23345035   2.713   4.505   3.776  1.3018 -0.3725 -3.4247
  172MOL   H23445036   2.594   4.083   3.892 -1.2843 -0.0099 -0.9925
  172MOL   H23545037   2.656   4.221   3.973 -0.8676  0.2332  0.5146
  172MOL   C23645038   2.489   4.273   3.857 -0.4190 -0.7668  0.4492
  172MOL   C23745039   2.379   4.241   3.960 -0.3933 -0.5335  0.1441
  172MOL   C23845040   2.402   4.265   4.113 -0.8035 -0.2848  0.1966
  172MOL   C23945041   2.299   4.343   4.034  0.0691  0.5647 -0.4633
  172MOL   C24045042   2.435   4.274   3.713  1.2261 -0.5734 -0.6057
  172MOL   H24145043   2.521   4.377   3.866 -0.3491 -0.7977  0.5503
  172MOL   H24245044   2.334   4.144   3.940 -0.6782  0.2855 -3.4487
  172MOL   H24345045   2.361   4.189   4.180 -0.5257 -1.1423 -0.5909
  172MOL   H24445046   2.484   4.325   4.151  1.8647 -1.9847 -2.5905
  172MOL   H24545047   2.317   4.447   4.008 -0.5354  0.4577 -1.3354
  172MOL   H24645048   2.200   4.316   4.070  0.2528 -0.0512 -0.4117
  172MOL   H24745049   2.511   4.315   3.646  1.5117  2.2733  1.3352
  172MOL   H24845050   2.411   4.172   3.683 -1.6005  0.1937 -1.1154
  172MOL   C24945051   2.305   4.355   3.687  1.4115 -0.9023  0.7852
  172MOL   C25045052   2.244   4.322   3.551 -0.5628 -0.9279 -0.6543
  172MOL   C25145053   2.205   4.184   3.515  0.3051  0.3743  0.6775
  172MOL   C25245054   2.103   4.293   3.538  0.6339 -0.2938  0.3314
  172MOL   C25345055   2.320   4.513   3.699  0.2944  0.0785 -0.3198
  172MOL   H25445056   2.234   4.323   3.764 -1.3527 -1.3248 -1.8762
  172MOL   H25545057   2.308   4.357   3.470  0.1436 -0.9794 -0.1147
  172MOL   H25645058   2.214   4.153   3.411 -0.1859  0.3520  0.6436
  172MOL   H25745059   2.219   4.105   3.589 -1.5114 -1.4563 -0.9117
  172MOL   H25845060   2.046   4.328   3.451  0.5562  2.1550  1.3364
  172MOL   H25945061   2.045   4.283   3.629  1.5436 -0.8694  0.8561
  172MOL   H26045062   2.410   4.548   3.648  0.5634  0.1537  0.2052
  172MOL   H26145063   2.332   4.549   3.801  0.9986 -0.5334 -0.1778
  172MOL   H26245064   2.239   4.559   3.643 -0.5019  0.3664  1.0492
  173MOL     C145065   4.199   7.005   6.826  0.4408  0.0101 -0.2944
  173MOL     C245066   4.280   6.935   6.723 -0.5090 -0.0430 -0.1012
  173MOL     C345067   4.228   6.829   6.635  0.7611  0.4190  0.3556
  173MOL     C445068   4.307   6.789   6.756 -0.1428  0.3251  0.4249
  173MOL     C545069   4.282   7.026   6.956 -0.0702  0.0906  0.9894
  173MOL     H645070   4.159   7.098   6.786  2.4831 -0.2208 -2.9793
  173MOL     H745071   4.372   6.987   6.697 -0.6276  0.4176  0.3950
  173MOL     H845072   4.124   6.797   6.640  0.6642  0.8888  1.4530
  173MOL     H945073   4.271   6.829   6.535  2.2218  0.2855  0.9673
  173MOL    H1045074   4.406   6.747   6.739 -0.6147 -0.2413 -1.0544
  173MOL    H1145075   4.255   6.748   6.841 -2.1625  0.0984 -0.8923
  173MOL    H1245076   4.379   7.071   6.937 -0.4760  1.2303  1.5450
  173MOL    H1345077   4.319   6.935   7.003  1.1387  0.6288  1.1008
  173MOL    H1445078   4.108   6.949   6.850  0.1275  0.4528 -0.4325
  173MOL    C1545079   4.214   7.107   7.061 -1.0524  0.8244 -0.5445
  173MOL    C1645080   4.203   7.253   7.025  0.1520 -0.5616  0.3634
  173MOL    C1745081   4.328   7.336   7.008 -0.1913  0.1551 -0.2444
  173MOL    C1845082   4.230   7.362   7.128 -0.0566  0.5530  0.8068
  173MOL    C1945083   4.086   7.049   7.123  1.1214 -0.2530  0.8791
  173MOL    H2045084   4.282   7.103   7.146 -2.0334 -0.4363  0.1877
  173MOL    H2145085   4.129   7.270   6.947  2.4664 -0.7764 -1.9405
  173MOL    H2245086   4.329   7.420   6.939  1.1500 -1.4086 -2.1985
  173MOL    H2345087   4.430   7.298   7.017  0.1555  1.1550  0.0527
  173MOL    H2445088   4.251   7.331   7.231  0.4224 -1.3175  0.1728
  173MOL    H2545089   4.180   7.458   7.125  1.0873  1.1294 -0.3784
  173MOL    H2645090   4.012   7.042   7.043  0.5342 -1.7694  1.5436
  173MOL    H2745091   4.037   7.116   7.195  0.0278  1.1383 -1.1246
  173MOL    C2845092   4.095   6.902   7.179 -0.9284 -0.2631 -0.5730
  173MOL    C2945093   3.965   6.823   7.149 -0.3736  0.0191 -0.1395
  173MOL    C3045094   3.952   6.743   7.018 -0.4996 -0.0174  0.4777
  173MOL    C3145095   3.962   6.673   7.149  0.0684 -0.5102  0.7095
  173MOL    C3245096   4.131   6.894   7.329 -0.8335 -0.1303 -0.5595
  173MOL    H3345097   4.178   6.854   7.127 -0.2248 -0.0583  0.3428
  173MOL    H3445098   3.878   6.882   7.179  0.5177  0.7583  1.0275
  173MOL    H3545099   4.036   6.733   6.950 -1.3381 -1.0509 -0.4242
  173MOL    H3645100   3.859   6.724   6.964 -0.5554  1.6773 -0.0785
  173MOL    H3745101   4.054   6.619   7.167 -0.2078 -0.9479  0.8104
  173MOL    H3845102   3.870   6.621   7.174 -0.4868 -0.7528 -1.7249
  173MOL    H3945103   4.044   6.906   7.393 -0.2513  0.8308  0.0696
  173MOL    H4045104   4.178   6.991   7.348 -0.1009 -0.6701  0.4684
  173MOL    C4145105   4.225   6.780   7.377  0.4125  0.3787 -0.5656
  173MOL    C4245106   4.219   6.776   7.530  0.5133 -0.3807  0.1117
  173MOL    C4345107   4.269   6.658   7.605 -0.1797  0.6192 -0.5357
  173MOL    C4445108   4.123   6.683   7.597  0.0604  0.3381 -0.7979
  173MOL    C4545109   4.374   6.797   7.329 -0.0862 -0.4312 -0.0100
  173MOL    H4645110   4.181   6.685   7.348  0.3343  1.2866 -3.5075
  173MOL    H4745111   4.236   6.869   7.584 -0.9606  0.5282 -0.9689
  173MOL    H4845112   4.295   6.572   7.545 -1.0183  0.7223 -1.0431
  173MOL    H4945113   4.326   6.678   7.695 -0.9293  1.4687 -0.2377
  173MOL    H5045114   4.072   6.706   7.690 -1.1367  0.2652 -1.4272
  173MOL    H5145115   4.069   6.606   7.541  0.1265  1.4167 -2.3562
  173MOL    H5245116   4.417   6.887   7.372 -0.3412 -0.1257 -0.3901
  173MOL    H5345117   4.372   6.832   7.226  1.1261  0.8212  0.3883
  173MOL    C5445118   4.472   6.679   7.336 -0.4920  0.8515 -0.1212
  173MOL    C5545119   4.434   6.579   7.232 -0.1700 -0.0733  0.2366
  173MOL    C5645120   4.322   6.486   7.243 -0.2505 -0.2400  0.1200
  173MOL    C5745121   4.456   6.430   7.256 -0.1346  0.2969 -0.1468
  173MOL    C5845122   4.627   6.712   7.310  0.0109  0.0735  0.1237
  173MOL    H5945123   4.475   6.631   7.434  1.1319  1.4430  0.1328
  173MOL    H6045124   4.454   6.618   7.132  0.4105  0.7148  0.6495
  173MOL    H6145125   4.263   6.503   7.332 -1.1345  2.3359 -0.8871
  173MOL    H6245126   4.269   6.445   7.157  1.3213 -1.9777 -0.0368
  173MOL    H6345127   4.495   6.369   7.175  3.1496  3.1850 -0.8393
  173MOL    H6445128   4.478   6.401   7.358 -1.2713  2.6958  0.8224
  173MOL    H6545129   4.684   6.627   7.272  1.2050  0.0662  1.8466
  173MOL    H6645130   4.627   6.788   7.232 -0.8998  0.6037  0.6255
  173MOL    C6745131   4.706   6.763   7.434 -0.2184  0.1478 -0.4198
  173MOL    C6845132   4.722   6.662   7.548  0.1888  0.1553  0.5248
  173MOL    C6945133   4.780   6.680   7.690  0.1309  0.0278  0.0394
  173MOL    C7045134   4.632   6.663   7.665 -0.1888 -0.3020  0.1231
  173MOL    C7145135   4.848   6.807   7.378 -0.3775 -0.5267  0.2821
  173MOL    H7245136   4.652   6.850   7.472 -2.7463 -1.7024  0.3604
  173MOL    H7345137   4.751   6.567   7.502 -0.1887  1.2555 -2.1039
  173MOL    H7445138   4.841   6.600   7.731 -1.2117 -0.5626  0.9103
  173MOL    H7545139   4.813   6.780   7.718 -1.0555  0.5591 -0.4403
  173MOL    H7645140   4.559   6.743   7.675  1.6000  1.5450 -1.0164
  173MOL    H7745141   4.594   6.566   7.696 -0.8522 -0.0679  0.0408
  173MOL    H7845142   4.889   6.730   7.313  0.7941 -0.9519  1.5129
  173MOL    H7945143   4.915   6.798   7.463 -2.1433 -0.9481  1.6619
  173MOL    C8045144   4.846   6.943   7.314 -0.1256  0.5444 -0.0739
  173MOL    C8145145   4.941   6.943   7.193  0.3605 -0.1192  0.2734
  173MOL    C8245146   4.916   7.015   7.071  0.3477  0.3311 -0.3801
  173MOL    C8345147   4.896   6.870   7.068  0.3264  0.6953 -0.5947
  173MOL    C8445148   4.863   7.059   7.418 -0.0475  0.3733 -0.0541
  173MOL    H8545149   4.747   6.950   7.270 -0.7950 -1.4568  1.0310
  173MOL    H8645150   5.045   6.935   7.226  0.4135 -0.7657 -0.0405
  173MOL    H8745151   4.991   7.053   7.002  0.9275 -0.3286 -0.1130
  173MOL    H8845152   4.829   7.081   7.065  0.6270  0.7438 -0.0042
  173MOL    H8945153   4.795   6.834   7.052 -0.2002  1.4664  0.9945
  173MOL    H9045154   4.971   6.804   7.025  0.9227  0.3671  0.9078
  173MOL    H9145155   4.825   7.028   7.515  0.5447 -0.2948 -0.0290
  173MOL    H9245156   4.971   7.061   7.434 -0.3170 -0.7841  2.1078
  173MOL    C9345157   4.800   7.187   7.368  0.0909  0.7959 -0.2145
  173MOL    C9445158   4.650   7.181   7.366  0.2542  0.5550 -0.4180
  173MOL    C9545159   4.569   7.292   7.310 -0.7631 -0.2730 -0.3117
  173MOL    C9645160   4.557   7.151   7.246 -0.3265 -0.9438 -0.5478
  173MOL    C9745161   4.853   7.301   7.449 -0.4064 -0.5560 -0.6686
  173MOL    H9845162   4.840   7.208   7.268 -0.7315  0.6980 -0.5693
  173MOL    H9945163   4.615   7.146   7.463  0.9894  0.2163 -0.2684
  173MOL   H10045164   4.484   7.319   7.374 -0.6894  1.0594 -0.7680
  173MOL   H10145165   4.624   7.378   7.271  1.1299  0.1519  3.0178
  173MOL   H10245166   4.468   7.094   7.271 -0.2602 -0.2928  1.2752
  173MOL   H10345167   4.601   7.134   7.148  1.1137  2.1477 -0.4971
  173MOL   H10445168   4.815   7.273   7.548  1.2952 -1.2764 -0.1980
  173MOL   H10545169   4.791   7.381   7.408 -0.7020 -0.2622  0.3216
  173MOL   C10645170   4.996   7.349   7.444 -0.4532  0.1902  0.9873
  173MOL   C10745171   5.034   7.370   7.297  0.2900 -0.2504 -0.2724
  173MOL   C10845172   5.175   7.376   7.258 -0.5474 -0.3626 -0.1860
  173MOL   C10945173   5.090   7.253   7.220  0.7291 -0.0138  0.0029
  173MOL   C11045174   5.025   7.486   7.517 -0.2150  0.0257 -0.1682
  173MOL   H11145175   5.068   7.272   7.473  1.3523  1.0678 -1.0160
  173MOL   H11245176   4.970   7.439   7.243  1.6869  2.1375  1.0588
  173MOL   H11345177   5.188   7.453   7.183 -0.6468 -1.4072 -1.3006
  173MOL   H11445178   5.247   7.379   7.339 -1.2857  1.2776  0.4245
  173MOL   H11545179   5.118   7.159   7.269 -0.9215  0.2896  1.5811
  173MOL   H11645180   5.066   7.238   7.115  1.2839 -3.0596  0.2520
  173MOL   H11745181   5.126   7.515   7.484 -0.7899  2.3251 -0.0286
  173MOL   H11845182   4.952   7.561   7.485 -2.5630 -1.9872  0.3981
  173MOL   C11945183   5.020   7.480   7.677  0.5773  0.0435  0.4221
  173MOL   C12045184   5.120   7.371   7.733  0.4445  0.2572 -0.0466
  173MOL   C12145185   5.078   7.229   7.736  0.2916  0.1576  0.4949
  173MOL   C12245186   5.096   7.301   0.025 -1.1586  0.0197  0.1124
  173MOL   C12345187   5.050   7.607   7.749 -0.1822  0.2010  0.1296
  173MOL   H12445188   4.922   7.441   7.705  0.2318  0.5912 -0.0087
  173MOL   H12545189   5.220   7.389   7.696 -0.1611  1.1322 -1.3000
  173MOL   H12645190   5.154   7.155   7.712  0.8437  0.5481  1.0443
  173MOL   H12745191   4.977   7.198   7.708  0.4072  0.2110  0.0259
  173MOL   H12845192   5.006   7.318   0.084 -2.4874  1.0686 -2.1168
  173MOL   H12945193   5.189   7.289   0.079 -1.2733 -1.6713 -0.0423
  173MOL   H13045194   5.104   7.577   7.839 -0.9082  0.1627  0.5563
  173MOL   H13145195   5.104   7.675   7.684 -0.6574  1.8235  1.3997
  173MOL   C13245196   4.931   7.689   7.796  0.4039  1.0496 -0.2872
  173MOL   C13345197   4.834   7.715   7.679  0.5724 -0.5770 -0.1662
  173MOL   C13445198   4.690   7.749   7.694 -0.0594 -0.0144  0.5790
  173MOL   C13545199   4.725   7.608   7.651  0.1400  0.3177 -0.3564
  173MOL   C13645200   4.977   7.819   0.031 -0.7165 -0.0401 -0.5952
  173MOL   H13745201   4.875   7.630   0.030  0.6739 -0.9822 -1.6870
  173MOL   H13845202   4.874   7.778   7.600  2.9024 -2.1019 -0.2750
  173MOL   H13945203   4.650   7.760   7.795  0.0045  2.9495  0.3480
  173MOL   H14045204   4.634   7.814   7.628 -2.0113 -0.3092  1.8904
  173MOL   H14145205   4.709   7.529   7.724 -2.9855  0.5440 -0.7300
  173MOL   H14245206   4.719   7.581   7.546 -0.5804  0.5329 -0.3697
  173MOL   H14345207   5.047   7.785   0.108 -0.1005  1.5131 -0.4362
  173MOL   H14445208   5.046   0.034   7.804 -0.1469 -3.2004 -2.7045
  173MOL   C14545209   4.870   0.075   0.104  0.3868  0.0076  0.3081
  173MOL   C14645210   4.836   0.015   0.245 -0.2052  0.0024  0.6198
  173MOL   C14745211   4.717   0.056   0.325  0.5083  0.6908  0.1680
  173MOL   C14845212   4.729   7.758   0.263 -0.8789 -0.0214 -0.4515
  173MOL   C14945213   4.917   0.224   0.125 -0.1813 -1.4175  0.0999
  173MOL   H15045214   4.777   0.085   0.048  0.0240  2.2163  1.2669
  173MOL   H15145215   4.925   0.012   0.308 -1.9310  2.7285  3.3057
  173MOL   H15245216   4.714   0.048   0.433 -0.9081 -1.3212  0.0218
  173MOL   H15345217   4.647   0.123   0.275 -0.6470 -0.5868  0.0241
  173MOL   H15445218   4.668   7.737   0.176 -1.6336 -1.3897  0.3941
  173MOL   H15545219   4.747   7.675   0.330  0.3765  1.1765  0.7469
  173MOL   H15645220   4.846   0.270   0.195  1.4366  1.5155 -0.1165
  173MOL   H15745221   5.007   0.223   0.187  0.5338 -1.7501 -0.9350
  173MOL   C15845222   4.927   0.308   7.834 -0.3399 -0.6115  0.3365
  173MOL   C15945223   4.808   0.303   7.750  0.3734 -0.4340  1.0981
  173MOL   C16045224   4.685   0.372   7.799  0.2787 -0.1321 -0.1670
  173MOL   C16145225   4.748   0.411   7.668 -0.0771  0.7092  0.1428
  173MOL   C16245226   5.049   0.278   7.751 -0.5081 -0.3782  0.1730
  173MOL   H16345227   4.932   0.413   0.024 -0.4823 -0.9903  1.7496
  173MOL   H16445228   4.795   0.213   7.689 -0.9102  1.0999 -0.9463
  173MOL   H16545229   4.698   0.446   0.038  0.3734 -1.5348  1.1732
  173MOL   H16645230   4.599   0.305   7.795 -0.2987  0.6132 -0.3048
  173MOL   H16745231   4.685   0.394   7.581  1.1475  0.2601 -0.6601
  173MOL   H16845232   4.810   0.501   7.667  0.6379  0.2386 -3.0291
  173MOL   H16945233   5.027   0.194   7.685 -1.6015  0.0456 -0.0101
  173MOL   H17045234   5.125   0.246   7.822 -1.9662 -1.5545  1.2362
  173MOL   C17145235   5.102   0.384   7.655  0.1474  0.1115  0.0278
  173MOL   C17245236   5.145   0.515   7.727 -0.6210 -0.2654 -0.3115
  173MOL   C17345237   5.191   0.644   7.651  0.1052  0.2573 -0.3608
  173MOL   C17445238   5.055   0.639   7.716  0.1156  0.0766 -0.4629
  173MOL   C17545239   5.224   0.319   7.581  0.3372  0.4089 -0.0197
  173MOL   H17645240   5.027   0.410   7.581 -1.4539  0.7766  1.8434
  173MOL   H17745241   5.203   0.500   7.818  0.7385  1.0166 -0.9499
  173MOL   H17845242   5.254   0.725   7.687  0.5984 -0.6856  0.9661
  173MOL   H17945243   5.190   0.626   7.544 -0.9730  0.8556 -0.4593
  173MOL   H18045244   4.969   0.639   7.649 -0.8065  2.0058  0.6647
  173MOL   H18145245   5.036   0.686   7.812  0.4749 -2.4818  0.8952
  173MOL   H18245246   5.280   0.261   7.655  0.6725 -0.4565 -0.9368
  173MOL   H18345247   5.299   0.391   7.546  1.0271 -0.4255 -0.2782
  173MOL   C18445248   5.177   0.234   7.461  0.1294 -0.0618 -0.3912
  173MOL   C18545249   5.302   0.151   7.425 -0.8098  0.3830  0.0656
  173MOL   C18645250   5.294   0.001   7.377  0.1142 -0.3027 -0.2156
  173MOL   C18745251   5.342   0.035   7.513  0.0957  0.0605  0.1544
  173MOL   C18845252   5.129   0.316   7.342 -0.1453 -0.5173 -0.1992
  173MOL   H18945253   5.099   0.165   7.494 -0.3781  1.3267  1.3977
  173MOL   H19045254   5.391   0.199   7.385 -0.0594  0.8384  2.1909
  173MOL   H19145255   5.371   7.815   7.305  1.5385  1.1726  0.7580
  173MOL   H19245256   5.203   7.780   7.373 -0.0648 -0.1434  1.0540
  173MOL   H19345257   5.450   0.036   7.523  0.0633  1.5361  0.3705
  173MOL   H19445258   5.273   0.025   7.597 -0.4126 -2.6272 -0.5331
  173MOL   H19545259   5.211   0.360   7.286  0.0350 -0.9560 -0.2820
  173MOL   H19645260   5.075   0.404   7.378  0.3624 -0.5537  0.6628
  173MOL   C19745261   5.045   0.241   7.246  0.7127 -0.2504  0.1616
  173MOL   C19845262   5.036   0.312   7.109 -0.1448  0.3650 -0.2860
  173MOL   C19945263   5.045   0.238   6.974  0.6896 -0.3245 -0.1288
  173MOL   C20045264   5.161   0.322   7.015  0.7526 -0.4411 -0.2356
  173MOL   C20145265   4.904   0.215   7.299 -1.2425 -0.3990  0.5635
  173MOL   H20245266   5.103   0.150   7.231  1.6411  0.0183  1.9511
  173MOL   H20345267   4.980   0.405   7.113  1.1083  1.1065  0.3115
  173MOL   H20445268   5.069   0.133   6.960  3.7114  0.3386 -0.1607
  173MOL   H20545269   4.965   0.263   6.905 -0.5408 -2.5892  0.4265
  173MOL   H20645270   5.247   0.257   7.031  0.7763  0.2192  2.4955
  173MOL   H20745271   5.175   0.410   6.953  0.2073 -0.0560  0.1832
  173MOL   H20845272   4.903   0.181   7.402 -0.3167  2.7615  1.6547
  173MOL   H20945273   4.853   0.311   7.300  2.5880  1.7637 -0.6689
  173MOL   C21045274   4.820   0.107   7.224 -0.4043 -0.1360 -0.5965
  173MOL   C21145275   4.867   7.807   7.260 -0.2551  1.1923 -0.9521
  173MOL   C21245276   4.813   7.678   7.189 -0.9716 -0.3799  0.6846
  173MOL   C21345277   4.957   7.713   7.176  0.7835 -0.2797 -0.2109
  173MOL   C21445278   4.663   0.131   7.243  0.4048 -0.0132 -0.7912
  173MOL   H21545279   4.842   0.118   7.118 -0.0346 -1.5495 -0.6731
  173MOL   H21645280   4.868   7.800   7.369 -1.3998  0.7629 -0.9571
  173MOL   H21745281   4.794   7.585   7.242 -1.2671 -0.7914 -0.1433
  173MOL   H21845282   4.749   7.684   7.102 -1.8951 -1.1614  1.2989
  173MOL   H21945283   5.029   7.659   7.237  0.6650  1.1141  1.1578
  173MOL   H22045284   4.994   7.746   7.079  0.9264  0.7499  0.1967
  173MOL   H22145285   4.613   0.037   7.218 -0.6380  0.8993 -2.1767
  173MOL   H22245286   4.641   0.150   7.348  2.6181 -3.7727  0.4457
  173MOL   C22345287   4.606   0.238   7.148  0.1692  0.4086  0.3311
  173MOL   C22445288   4.515   0.332   7.220 -0.2094  0.4045  0.5424
  173MOL   C22545289   4.555   0.442   7.319  0.5507 -0.8833 -0.1836
  173MOL   C22645290   4.503   0.479   7.180 -0.3903  0.0867  0.3811
  173MOL   C22745291   4.545   0.172   7.022  0.0834 -0.4328 -0.4340
  173MOL   H22845292   4.699   0.287   7.118 -0.7159  1.7366 -0.2843
  173MOL   H22945293   4.421   0.282   7.244  0.5498 -1.8094 -0.9427
  173MOL   H23045294   4.661   0.462   7.326  0.3783  0.7342 -1.9571
  173MOL   H23145295   4.494   0.460   7.407  2.6851  1.8978  0.7874
  173MOL   H23245296   4.405   0.528   7.188 -0.8262 -0.7485  0.1480
  173MOL   H23345297   4.573   0.522   7.109  1.6864 -0.0295  2.3200
  173MOL   H23445298   4.606   0.093   6.978  0.4711  0.1350 -0.9097
  173MOL   H23545299   4.453   0.119   7.048 -0.0462  1.0157  2.1697
  173MOL   C23645300   4.499   0.265   6.914 -0.2527  0.1970  0.0031
  173MOL   C23745301   4.439   0.181   6.806 -0.5973 -0.0237  0.4274
  173MOL   C23845302   4.301   0.120   6.814 -0.3778 -0.0095 -0.2120
  173MOL   C23945303   4.330   0.235   6.719  0.2168 -0.6177 -0.2597
  173MOL   C24045304   4.608   0.363   6.869 -0.3147 -0.3844 -0.5452
  173MOL   H24145305   4.424   0.323   6.967  2.3561  1.7259  2.1764
  173MOL   H24245306   4.519   0.125   6.758  0.8546  2.7550 -0.5024
  173MOL   H24345307   4.304   0.018   6.777 -0.4307 -0.6959  1.6579
  173MOL   H24445308   4.237   0.142   6.899  2.3067  1.4457  1.5304
  173MOL   H24545309   4.270   0.323   6.742  0.3791 -0.4406 -0.5238
  173MOL   H24645310   4.337   0.222   6.612 -0.1783 -1.8595 -0.1421
  173MOL   H24745311   4.667   0.412   6.947 -1.1456 -1.3685  0.7205
  173MOL   H24845312   4.686   0.307   6.817  0.7524  0.0494  0.5680
  173MOL   C24945313   4.568   0.480   6.782 -0.5417  0.2224  0.4196
  173MOL   C25045314   4.675   0.515   6.678 -0.1567 -0.3187  0.0496
  173MOL   C25145315   4.723   0.400   6.599  0.2904 -0.3233 -0.6791
  173MOL   C25245316   4.661   0.508   6.525  0.2258 -0.4615  0.4405
  173MOL   C25345317   4.527   0.601   6.862 -0.0870  1.1751  0.6704
  173MOL   H25445318   4.480   0.441   6.731 -0.0685 -2.1829  1.3859
  173MOL   H25545319   4.753   0.582   6.713 -1.1568 -0.1740  2.1111
  173MOL   H25645320   4.831   0.386   6.591  0.6199  0.8717  1.2986
  173MOL   H25745321   4.668   0.307   6.611  0.9506 -0.6553 -0.2044
  173MOL   H25845322   4.722   0.583   6.476 -0.6129 -0.9991 -1.5049
  173MOL   H25945323   4.567   0.491   6.471  0.1028 -0.1015  0.5426
  173MOL   H26045324   4.451   0.580   6.937  1.6656  1.3479  2.5227
  173MOL   H26145325   4.476   0.679   6.804 -1.2302 -1.1580 -1.5388
  173MOL   H26245326   4.615   0.643   6.910  2.3987 -1.1027 -1.6836
  174MOL     C145327   7.138   2.302   6.336  0.0053 -0.2656 -0.4584
  174MOL     C245328   7.094   2.162   6.381  0.0436 -0.5178 -0.2342
  174MOL     C345329   6.956   2.143   6.444 -0.0996  0.3278  0.0596
  174MOL     C445330   7.081   2.123   6.529  0.2733  0.3478  0.5499
  174MOL     C545331   7.288   2.320   6.318 -0.8416 -0.2940  0.0402
  174MOL     H645332   7.100   2.306   6.234  1.5173  1.1164 -0.9750
  174MOL     H745333   7.136   2.076   6.331  1.4377 -0.8248  1.4094
  174MOL     H845334   6.896   2.232   6.459  0.3954  0.7037 -0.1638
  174MOL     H945335   6.912   2.053   6.400  0.7078  0.3614 -0.8406
  174MOL    H1045336   7.111   2.023   6.559 -1.2230  0.1088  1.2847
  174MOL    H1145337   7.117   2.203   6.595 -0.1271 -0.4399  1.7499
  174MOL    H1245338   7.317   2.394   6.244 -1.3555  0.2618  0.3961
  174MOL    H1345339   7.334   2.225   6.290 -0.5913 -0.1902  0.0954
  174MOL    H1445340   7.077   2.363   6.404 -0.2136 -2.0297  0.9765
  174MOL    C1545341   7.354   2.353   6.451 -0.2875  0.4805 -0.0650
  174MOL    C1645342   7.506   2.328   6.436 -0.3370  0.4650 -0.0798
  174MOL    C1745343   7.560   2.197   6.454 -1.5016  0.3573 -1.1072
  174MOL    C1845344   7.606   2.303   6.548  1.3761  0.1382 -1.6780
  174MOL    C1945345   7.330   2.500   6.504 -1.0319 -0.6171  0.0982
  174MOL    H2045346   7.323   2.284   6.529 -1.1473  2.5230  1.4339
  174MOL    H2145347   7.543   2.392   6.356  1.9089 -0.1292  0.4447
  174MOL    H2245348   7.615   2.161   6.367 -2.2753  1.1971 -1.9644
  174MOL    H2345349   7.496   2.131   6.511  0.5011 -0.4396  0.2812
  174MOL    H2445350   7.574   2.294   6.652  1.8920  0.1511 -1.5143
  174MOL    H2545351   7.711   2.328   6.538  1.1371  1.6993 -0.5346
  174MOL    H2645352   7.227   2.522   6.476 -1.2425  0.4026  1.6041
  174MOL    H2745353   7.388   2.567   6.441 -0.9499 -1.3144 -0.5740
  174MOL    C2845354   7.362   2.533   6.655 -0.2557 -0.1408  0.4278
  174MOL    C2945355   7.270   2.450   6.739 -1.0427  0.1320 -0.8068
  174MOL    C3045356   7.322   2.314   6.784  0.1026 -0.3596 -0.2000
  174MOL    C3145357   7.308   2.425   6.882 -0.2026  0.1058  0.8325
  174MOL    C3245358   7.352   2.681   6.702 -0.1377  0.2544 -0.4069
  174MOL    H3345359   7.459   2.495   6.688 -0.1509 -0.9725 -0.8482
  174MOL    H3445360   7.166   2.457   6.710 -2.1424 -1.0791  2.5988
  174MOL    H3545361   7.423   2.272   6.778  0.3056 -0.1962  1.7987
  174MOL    H3645362   7.250   2.233   6.778 -1.3062  0.9701 -2.0305
  174MOL    H3745363   7.395   2.472   6.928 -0.2956 -0.4090  1.5538
  174MOL    H3845364   7.225   2.426   6.952 -0.0931  0.5470  0.9586
  174MOL    H3945365   7.318   2.700   6.803  0.9243 -2.2069  0.4671
  174MOL    H4045366   7.276   2.728   6.639  0.3693  0.5599 -0.7921
  174MOL    C4145367   7.470   2.770   6.681 -0.3250  0.1618 -0.6968
  174MOL    C4245368   7.547   2.772   6.812  0.7479 -0.0250 -0.7316
  174MOL    C4345369   7.689   2.824   6.799 -0.1296  0.3666  0.2501
  174MOL    C4445370   7.661   2.686   6.843 -0.6969  0.3941 -0.5845
  174MOL    C4545371   7.426   2.909   6.639 -0.6361 -0.2946 -0.0559
  174MOL    H4645372   7.531   2.723   6.604  0.4581  2.1138 -1.3027
  174MOL    H4745373   7.492   2.822   6.891  0.8473  0.0915 -0.7343
  174MOL    H4845374   7.747   2.817   6.707 -1.1102  1.5688 -0.4576
  174MOL    H4945375   7.732   2.887   6.876 -0.6305 -0.3583  1.1374
  174MOL    H5045376   7.658   2.660   6.949  1.2757  0.9162 -0.3598
  174MOL    H5145377   7.687   2.600   6.782  0.5278  0.9326 -0.8405
  174MOL    H5245378   7.514   2.970   6.658 -1.1269  0.0675  1.1062
  174MOL    H5345379   7.349   2.950   6.705  1.3151  0.4285  1.8432
  174MOL    C5445380   7.368   2.931   6.496  0.2941 -0.1233 -0.6346
  174MOL    C5545381   7.284   3.050   6.486 -0.0829 -0.3162  0.5309
  174MOL    C5645382   7.137   3.048   6.524 -0.6951  0.0453 -0.0677
  174MOL    C5745383   7.176   3.052   6.372  0.2088  0.2426  0.1941
  174MOL    C5845384   7.497   2.952   6.417 -0.3655 -0.3693 -0.3891
  174MOL    H5945385   7.319   2.844   6.452 -0.3764  1.0906 -2.3203
  174MOL    H6045386   7.337   3.145   6.501  2.1711 -1.4910  0.3085
  174MOL    H6145387   7.097   2.951   6.553 -1.6810 -0.2027 -2.1995
  174MOL    H6245388   7.097   3.138   6.571 -0.1318 -0.0985  0.7008
  174MOL    H6345389   7.183   3.147   6.320 -0.1860  0.8697  1.2776
  174MOL    H6445390   7.157   2.961   6.316 -0.2366  0.9911 -0.8837
  174MOL    H6545391   7.542   3.046   6.450 -1.2982  0.2529 -0.8473
  174MOL    H6645392   7.568   2.873   6.439 -0.3643 -0.7443 -1.7245
  174MOL    C6745393   7.484   2.963   6.268 -0.4099  0.3852 -0.0748
  174MOL    C6845394   7.607   3.034   6.215  0.8207  0.0870  0.1024
  174MOL    C6945395   7.611   3.113   6.088 -0.5333  0.3496  0.4718
  174MOL    C7045396   7.611   3.186   6.218 -0.3615 -0.2674  0.2901
  174MOL    C7145397   7.464   2.833   6.204 -0.2537 -0.0103 -0.0118
  174MOL    H7245398   7.404   3.032   6.240  0.0014  0.6521 -0.6001
  174MOL    H7345399   7.704   2.988   6.235  1.8467  1.9738 -0.3897
  174MOL    H7445400   7.707   3.099   6.038 -1.2841  0.9914 -1.1753
  174MOL    H7545401   7.524   3.117   6.024 -0.3684 -0.0305  0.2178
  174MOL    H7645402   7.525   3.249   6.239 -1.0905 -1.0732 -0.2123
  174MOL    H7745403   7.703   3.232   6.251  0.4346 -1.4297 -0.2581
  174MOL    H7845404   7.399   2.772   6.267 -1.7523 -1.1737 -2.5904
  174MOL    H7945405   7.556   2.775   6.211  1.3032  2.2687 -0.8701
  174MOL    C8045406   7.395   2.820   6.065  0.1111  0.9319 -0.3953
  174MOL    C8145407   7.241   2.852   6.061  0.6679  0.4507  0.2151
  174MOL    C8245408   7.178   2.894   5.930  0.5259  0.1926  0.5312
  174MOL    C8345409   7.195   2.993   6.039  0.1266 -0.4246  0.3380
  174MOL    C8445410   7.429   2.674   6.027  0.4983 -0.5327  0.5816
  174MOL    H8545411   7.450   2.896   6.009  1.5589 -0.3329 -0.7215
  174MOL    H8645412   7.180   2.777   6.110  0.3370 -0.0311 -0.9063
  174MOL    H8745413   7.075   2.877   5.900  0.3636 -0.4612  1.4385
  174MOL    H8845414   7.242   2.889   5.842  1.8579 -1.5125  1.5515
  174MOL    H8945415   7.256   3.082   6.027  0.2560 -0.9621 -3.5714
  174MOL    H9045416   7.113   3.015   6.108 -0.7874 -0.6137 -0.6800
  174MOL    H9145417   7.439   2.609   6.114 -0.0609 -1.0961  0.2270
  174MOL    H9245418   7.340   2.624   5.987  0.6036  0.0853 -0.4360
  174MOL    C9345419   7.560   2.640   5.936 -0.1558 -0.2773 -0.1100
  174MOL    C9445420   7.589   2.495   5.948 -0.1084  0.5817  0.3478
  174MOL    C9545421   7.714   2.432   5.965 -0.0762  0.0139  0.1557
  174MOL    C9645422   7.614   2.432   6.081 -0.4085  1.0622  0.3799
  174MOL    C9745423   7.545   2.695   5.791  0.4373  0.6301 -0.0850
  174MOL    H9845424   7.646   2.685   5.985 -0.9582  0.6337  0.4705
  174MOL    H9945425   7.519   2.442   5.883 -3.0939  2.9169  1.5393
  174MOL   H10045426   7.731   2.330   5.930 -0.0608 -0.3313  1.1513
  174MOL   H10145427   7.794   2.501   5.990 -1.0182  1.1405  0.0993
  174MOL   H10245428   7.555   2.341   6.096 -1.8253  1.8899 -0.0685
  174MOL   H10345429   7.640   2.500   6.162  0.5632  0.7650  0.3265
  174MOL   H10445430   7.526   2.802   5.797 -0.7454  0.4504 -0.4890
  174MOL   H10545431   7.456   2.652   5.745  1.9193 -1.1265 -1.4002
  174MOL   C10645432   7.655   2.682   5.685  0.6818 -0.2543 -0.0478
  174MOL   C10745433   7.794   2.695   5.743  0.1624  0.7046 -1.0255
  174MOL   C10845434   0.049   2.771   5.650  0.5167 -0.1921 -0.6894
  174MOL   C10945435   0.004   2.836   5.781  0.6082  0.2064 -0.2648
  174MOL   C11045436   7.636   2.552   5.604  0.1900  0.3698  0.1536
  174MOL   H11145437   7.634   2.765   5.618 -1.0426 -0.5399  0.1051
  174MOL   H11245438   7.833   2.606   5.791 -2.9871 -1.1389 -1.7187
  174MOL   H11345439   0.146   2.723   5.643 -0.3674 -2.0659 -0.4098
  174MOL   H11445440   7.838   2.811   5.562 -0.7699  0.6714  0.4093
  174MOL   H11545441   7.776   2.921   5.770 -0.5818 -0.7077 -0.1210
  174MOL   H11645442   0.071   2.847   5.867  0.4839  0.5014 -0.2051
  174MOL   H11745443   7.646   2.471   5.675  1.1727  0.0975 -0.2846
  174MOL   H11845444   7.539   2.543   5.555  1.0016  1.0627 -1.6479
  174MOL   C11945445   7.728   2.525   5.479  0.6524  0.5832  0.0340
  174MOL   C12045446   7.735   2.380   5.438 -0.1434  1.1322  0.1469
  174MOL   C12145447   7.805   2.287   5.536 -0.6761 -0.5192 -0.0577
  174MOL   C12245448   0.028   2.330   5.404  0.4686  0.2707 -0.3197
  174MOL   C12345449   7.668   2.617   5.359 -0.1285  0.4496  0.1898
  174MOL   H12445450   7.828   2.567   5.495  0.2180  2.9362 -2.8396
  174MOL   H12545451   7.639   2.344   5.403  0.0561  1.0028 -0.2731
  174MOL   H12645452   7.761   2.189   5.551 -0.0224 -0.7638  0.2982
  174MOL   H12745453   0.010   2.332   5.625 -0.6697  1.2089 -0.9211
  174MOL   H12845454   0.114   2.392   5.428  0.4119 -0.4318  1.7950
  174MOL   H12945455   0.044   2.259   5.323  0.0124 -1.2649  0.9125
  174MOL   H13045456   7.585   2.559   5.319 -0.9279  2.0122 -0.4564
  174MOL   H13145457   7.619   2.702   5.406 -0.5901  0.0287  0.4637
  174MOL   C13245458   7.763   2.662   5.244  0.5134 -0.0870 -0.0813
  174MOL   C13345459   7.716   2.790   5.180  0.1641  0.4242  0.4009
  174MOL   C13445460   7.812   2.892   5.133 -0.2491 -0.3823  0.3060
  174MOL   C13545461   7.712   2.928   5.244  0.9697 -0.1340  0.0451
  174MOL   C13645462   7.790   2.551   5.139  0.2435  0.4677  0.2036
  174MOL   H13745463   0.014   2.692   5.297 -0.2006  1.0437  0.5030
  174MOL   H13845464   7.650   2.773   5.095  1.0450  0.9763 -0.4116
  174MOL   H13945465   0.075   2.878   5.167 -0.1738 -2.3266 -0.6666
  174MOL   H14045466   7.803   2.936   5.034 -1.0423 -0.6855  0.2342
  174MOL   H14145467   7.749   2.931   5.346 -1.0841  0.8357  0.7996
  174MOL   H14245468   7.639   3.002   5.211  0.5451  0.4171  2.1355
  174MOL   H14345469   7.778   2.453   5.184 -0.9843 -0.7968 -2.7387
  174MOL   H14445470   7.703   2.567   5.075  1.1214  1.1784 -0.8554
  174MOL   C14545471   0.085   2.561   5.054  0.0799 -0.1760  0.0114
  174MOL   C14645472   0.209   2.508   5.140 -0.1171 -0.9765  0.3275
  174MOL   C14745473   0.346   2.533   5.097  0.4077  0.4282 -0.2309
  174MOL   C14845474   0.300   2.602   5.222 -0.6479 -0.0853  0.0321
  174MOL   C14945475   0.081   2.504   4.907  0.0556 -0.3897 -0.5369
  174MOL   H15045476   0.114   2.663   5.032 -0.1151  0.0441  0.7661
  174MOL   H15145477   0.188   2.414   5.192 -4.3678 -0.1437  0.2490
  174MOL   H15245478   0.428   2.461   5.106 -0.7691 -1.2021 -2.2693
  174MOL   H15345479   0.357   2.596   5.009  2.1255  0.6178  0.1057
  174MOL   H15445480   0.267   2.705   5.221 -1.3930 -0.3246 -1.4280
  174MOL   H15545481   0.341   2.563   5.315  2.6720 -2.5117 -2.2944
  174MOL   H15645482   0.018   2.573   4.850  1.3879  1.7483  0.4944
  174MOL   H15745483   0.175   2.518   4.853  0.0116  1.5304 -0.1841
  174MOL   C15845484   0.026   2.358   4.899 -0.7655  0.0378  0.2148
  174MOL   C15945485   0.123   2.263   4.835 -0.1009  0.1396 -0.1491
  174MOL   C16045486   0.234   2.209   4.924  0.3378  0.4301  0.4101
  174MOL   C16145487   0.121   2.117   4.864 -0.5929 -0.0849  0.6609
  174MOL   C16245488   7.732   2.357   4.813  0.3737  0.4839  0.6406
  174MOL   H16345489   0.005   2.321   5.000 -1.2849  1.3406  0.5975
  174MOL   H16445490   0.158   2.288   4.735 -0.8840 -1.3207 -0.7972
  174MOL   H16545491   0.233   2.246   5.027  1.3123 -1.6018  1.1709
  174MOL   H16645492   0.332   2.192   4.881 -0.0977 -1.6664  0.1731
  174MOL   H16745493   0.164   2.055   4.785  0.9564  1.0193  0.6052
  174MOL   H16845494   0.047   2.068   4.927 -1.0030 -1.0241 -0.5217
  174MOL   H16945495   7.743   2.378   4.706  0.0799  4.1330  1.2598
  174MOL   H17045496   7.671   2.443   4.842 -1.2070 -0.0953 -0.8301
  174MOL   C17145497   7.632   2.237   4.831 -0.8024  0.6118  0.0627
  174MOL   C17245498   7.528   2.269   4.938 -0.0543  0.1280  0.1576
  174MOL   C17345499   7.474   2.156   5.017  0.2003 -0.1231  0.4261
  174MOL   C17445500   7.562   2.256   5.083 -0.1116  0.2266 -0.8861
  174MOL   C17545501   7.567   2.191   4.701  0.0522 -0.5705  0.8633
  174MOL   H17645502   7.691   2.150   4.857 -1.8239  0.3970  1.7047
  174MOL   H17745503   7.460   2.351   4.914 -2.3787 -2.4232 -2.1592
  174MOL   H17845504   7.366   2.160   5.035  0.2155  0.5102  0.3908
  174MOL   H17945505   7.514   2.057   4.995 -1.2797 -0.7112  0.3239
  174MOL   H18045506   7.664   2.222   5.104 -0.0063  0.8743 -0.3227
  174MOL   H18145507   7.534   2.345   5.138  2.4073  0.5882 -0.0964
  174MOL   H18245508   7.546   2.278   4.639  2.4386  1.2127  2.4524
  174MOL   H18345509   7.465   2.162   4.728 -0.1836 -0.8587 -0.3368
  174MOL   C18445510   7.634   2.085   4.613 -0.2451  0.3177  0.5633
  174MOL   C18545511   7.648   1.953   4.690  0.6503 -0.0671  0.2351
  174MOL   C18645512   7.577   1.824   4.652  0.1608 -0.1919 -0.4994
  174MOL   C18745513   7.550   1.887   4.784  0.6284  0.2635 -0.0863
  174MOL   C18845514   7.764   2.138   4.552  0.0642 -0.5344 -0.2117
  174MOL   H18945515   7.556   2.070   4.539  0.2796  0.2315  0.0196
  174MOL   H19045516   7.752   1.939   4.718  0.7726 -3.1253 -1.4475
  174MOL   H19145517   7.635   1.733   4.652 -0.0591 -0.3404  0.5995
  174MOL   H19245518   7.511   1.833   4.566 -0.4981 -0.4518 -0.0229
  174MOL   H19345519   7.592   1.833   4.869  1.7431  2.5624  0.8628
  174MOL   H19445520   7.449   1.925   4.803  1.0166  0.7554  1.0025
  174MOL   H19545521   0.008   2.155   4.620 -0.0717 -0.2113 -0.1273
  174MOL   H19645522   7.741   2.240   4.523  1.2040 -0.3871 -0.6203
  174MOL   C19745523   7.823   2.037   4.443 -0.1940  0.8430 -0.1210
  174MOL   C19845524   0.123   2.084   4.410 -0.6133  0.3818 -0.2738
  174MOL   C19945525   0.234   1.991   4.356 -0.3247 -0.6791 -0.4825
  174MOL   C20045526   0.239   2.050   4.498  0.2838 -0.6357  0.1873
  174MOL   C20145527   7.730   2.032   4.321 -0.5040 -0.0585 -0.0646
  174MOL   H20245528   0.001   1.934   4.473 -0.4083  0.3103 -1.8390
  174MOL   H20345529   0.121   2.187   4.375 -1.7832  0.8051  1.0050
  174MOL   H20445530   0.203   1.887   4.359  0.0077 -0.7925 -0.9403
  174MOL   H20545531   0.325   2.023   4.306  0.0621  0.8697  1.1301
  174MOL   H20645532   0.239   1.978   4.580  0.8794 -1.7572 -0.7743
  174MOL   H20745533   0.310   2.129   4.524  1.0102 -0.7121 -1.4913
  174MOL   H20845534   7.635   1.990   4.354 -0.8646  0.5180 -0.3477
  174MOL   H20945535   7.707   2.135   4.292  2.6822  0.7965  0.2911
  174MOL   C21045536   7.771   1.954   4.200  0.1827 -0.1935  0.6715
  174MOL   C21145537   7.641   1.898   4.133 -0.3667 -0.4412 -0.0522
  174MOL   C21245538   7.628   1.780   4.036 -0.0377  0.9453 -0.4475
  174MOL   C21345539   7.566   1.774   4.175  0.7294 -0.1548  0.0751
  174MOL   C21445540   0.018   2.038   4.099 -0.1290 -0.1637  0.3302
  174MOL   H21545541   7.831   1.867   4.225  0.0805 -0.2867  0.5884
  174MOL   H21645542   7.568   1.978   4.129  1.4276  1.1561 -1.1423
  174MOL   H21745543   7.557   1.797   3.955 -0.1145 -0.0409 -0.5954
  174MOL   H21845544   7.724   1.732   4.018  1.3041  2.9821  1.0536
  174MOL   H21945545   7.458   1.756   4.175  0.6719  0.0175  2.1176
  174MOL   H22045546   7.618   1.699   4.234  2.8249  1.0200 -0.2198
  174MOL   H22145547   7.811   2.129   4.062 -0.0080 -0.9133 -1.7037
  174MOL   H22245548   0.099   2.075   4.163 -1.0832  0.1298  1.3878
  174MOL   C22345549   0.086   1.966   3.978  0.1509 -0.1946 -0.1041
  174MOL   C22445550   0.200   1.876   4.019  0.5660 -0.0640 -0.0416
  174MOL   C22545551   0.185   1.735   4.068  0.7810  0.3281  0.4405
  174MOL   C22645552   0.244   1.759   3.931  0.4565  0.4006  0.2943
  174MOL   C22745553   0.146   2.068   3.880  0.3954  0.7393  0.3770
  174MOL   H22845554   0.015   1.902   3.925  0.8350 -0.4941 -0.6774
  174MOL   H22945555   0.288   1.930   4.052 -0.4767  2.2400 -0.9284
  174MOL   H23045556   0.086   1.693   4.054  0.9140  0.1712 -0.0500
  174MOL   H23145557   0.256   1.713   4.148  0.4998 -0.4872  0.4719
  174MOL   H23245558   0.350   1.757   3.906  0.1082 -0.6934 -1.1705
  174MOL   H23345559   0.179   1.732   3.848 -0.0882 -0.1892  0.8933
  174MOL   H23445560   0.103   2.168   3.893  1.9835  1.6237 -0.9272
  174MOL   H23545561   0.250   2.078   3.912  0.1723 -1.0443  1.6708
  174MOL   C23645562   0.137   2.033   3.723  0.7044 -0.5922 -0.0314
  174MOL   C23745563   0.256   2.087   3.653 -0.5790 -0.7138 -0.2309
  174MOL   C23845564   0.399   2.036   3.684 -0.0096  0.3306  0.3652
  174MOL   C23945565   0.327   1.990   3.559 -0.1570 -0.0891  0.1278
  174MOL   C24045566   0.004   2.089   3.663  0.3778 -0.4885 -0.2864
  174MOL   H24145567   0.157   1.925   3.725  2.2890 -0.3444 -1.5501
  174MOL   H24245568   0.256   2.194   3.629 -1.0102 -0.9006 -1.0946
  174MOL   H24345569   0.476   2.112   3.684 -0.1593  0.5285  2.4710
  174MOL   H24445570   0.428   1.952   3.747 -0.9066  0.9325  1.6055
  174MOL   H24545571   0.288   1.889   3.552 -1.6953  0.4447  0.8959
  174MOL   H24645572   0.368   2.025   3.464  0.7701 -2.3728 -0.3439
  174MOL   H24745573   7.766   2.068   3.737 -0.0596  1.7647 -0.0753
  174MOL   H24845574   0.012   2.197   3.648  0.4527 -0.5877 -0.9584
  174MOL   C24945575   7.804   2.024   3.527 -0.1844 -0.8358  0.0647
  174MOL   C25045576   7.705   2.105   3.445 -0.6969  0.2231  0.1497
  174MOL   C25145577   7.734   2.251   3.404  0.3515 -0.6261 -0.4427
  174MOL   C25245578   7.745   2.143   3.305  0.2711 -0.8539  0.3916
  174MOL   C25345579   7.764   1.876   3.528  0.4585  0.3007 -0.2833
  174MOL   H25445580   0.058   2.015   3.472  0.2443 -3.6757  1.1701
  174MOL   H25545581   7.599   2.085   3.460 -0.5015 -0.3148  0.8266
  174MOL   H25645582   7.649   2.317   3.391  0.8511  0.1162  0.0491
  174MOL   H25745583   7.825   2.292   3.445 -0.4948  0.2561  0.5892
  174MOL   H25845584   7.661   2.116   3.241 -1.2944  0.2558  1.9398
  174MOL   H25945585   0.002   2.107   3.268  0.6419  0.4393  0.0938
  174MOL   H26045586   0.011   1.812   3.509  0.3291  0.1602 -0.4068
  174MOL   H26145587   7.693   1.849   3.450  0.0648 -1.2927  0.5893
  174MOL   H26245588   7.712   1.851   3.621 -1.3482  1.8884 -0.8397
  175MOL     C145589   3.155   0.155   2.585  0.7871  0.2551 -0.4748
  175MOL     C245590   3.180   0.105   2.446 -0.4249  0.1243 -0.0386
  175MOL     C345591   3.105   7.829   2.380  0.4303 -0.8292  0.2314
  175MOL     C445592   3.252   7.814   2.416 -0.4487 -0.2093  0.1166
  175MOL     C545593   3.081   0.287   2.592 -0.2604 -0.3599  0.1443
  175MOL     H645594   3.099   0.082   2.644  1.7094  0.0786  0.1935
  175MOL     H745595   3.204   0.186   2.377  1.0659 -1.2030 -1.1177
  175MOL     H845596   3.028   7.773   2.432 -0.3905  0.5796  0.5718
  175MOL     H945597   3.078   0.002   2.276 -1.3463 -0.7712  0.6946
  175MOL    H1045598   3.324   7.789   2.339  0.9285 -3.0050  2.2039
  175MOL    H1145599   3.276   7.757   2.506  1.6094  1.8996  0.9693
  175MOL    H1245600   2.984   0.271   2.547 -0.0878 -1.7246  0.2464
  175MOL    H1345601   3.126   0.367   2.533  0.1707 -1.7038 -1.3898
  175MOL    H1445602   3.254   0.152   2.631  0.6081  1.0936 -0.0142
  175MOL    C1545603   3.049   0.347   2.728  0.4140 -0.3214 -0.1847
  175MOL    C1645604   3.171   0.423   2.790 -0.4536  0.0102 -0.0980
  175MOL    C1745605   3.289   0.361   2.865  0.1147  0.6246  0.0325
  175MOL    C1845606   3.188   0.454   2.934  0.2081  0.0091  0.4417
  175MOL    C1945607   2.917   0.439   2.723 -0.1192  0.4659 -0.4164
  175MOL    H2045608   3.027   0.265   2.796 -0.4480  0.7095  0.7925
  175MOL    H2145609   3.206   0.506   2.728 -0.1713  0.4425  0.6308
  175MOL    H2245610   3.390   0.399   2.848  1.0728 -2.2521 -0.9504
  175MOL    H2345611   3.286   0.254   2.881  0.0105  0.6699  0.3181
  175MOL    H2445612   3.115   0.419   3.007 -0.1992  1.9245  0.9898
  175MOL    H2545613   3.213   0.559   2.948  0.8676 -0.2425  1.1947
  175MOL    H2645614   2.837   0.412   2.654 -0.5448  1.5787 -0.3708
  175MOL    H2745615   2.941   0.531   2.669  1.0847  2.0645  2.7399
  175MOL    C2845616   2.858   0.481   2.866 -0.7621 -0.1060 -0.6779
  175MOL    C2945617   2.777   0.378   2.932  0.5234 -0.4672 -0.5901
  175MOL    C3045618   2.846   0.261   2.998  0.6949 -0.0567  0.3510
  175MOL    C3145619   2.780   0.377   3.083  0.0376 -0.4926  0.0867
  175MOL    C3245620   2.782   0.617   2.843 -0.4822 -0.0834  0.0833
  175MOL    H3345621   2.949   0.504   2.920 -0.7542 -3.6238  0.9094
  175MOL    H3445622   2.683   0.360   2.880  0.1192  1.3118 -0.5196
  175MOL    H3545623   2.954   0.258   3.007  0.6810  0.8066  0.7607
  175MOL    H3645624   2.795   0.165   2.989 -2.2724  1.4017  0.7637
  175MOL    H3745625   2.854   0.427   3.146 -1.1012  1.3113  0.0553
  175MOL    H3845626   2.682   0.370   3.131 -0.3712 -2.0901 -0.9585
  175MOL    H3945627   2.713   0.592   2.763 -1.0553 -2.5529  1.3160
  175MOL    H4045628   2.840   0.697   2.798 -0.7441 -0.4808 -0.9601
  175MOL    C4145629   2.707   0.690   2.952 -0.0931  0.2629  0.1740
  175MOL    C4245630   2.617   0.788   2.873 -0.0390  0.4676  0.2899
  175MOL    C4345631   2.495   0.846   2.927 -0.4299 -0.1824 -0.1201
  175MOL    C4445632   2.490   0.744   2.814 -0.0351 -0.4308 -0.4132
  175MOL    C4545633   2.816   0.765   3.029  0.2608 -0.3678  0.2496
  175MOL    H4645634   2.654   0.620   3.016  1.4000 -1.0619  0.0120
  175MOL    H4745635   2.669   0.868   2.821 -1.3939  0.6980 -0.7075
  175MOL    H4845636   2.468   0.816   3.028 -0.6486 -0.5118 -0.2745
  175MOL    H4945637   2.479   0.952   2.908  0.8428  0.0105 -0.1518
  175MOL    H5045638   2.469   0.783   2.714  0.3830  1.5819  0.2635
  175MOL    H5145639   2.471   0.638   2.832  0.2660 -0.4072  0.0447
  175MOL    H5245640   2.858   0.842   2.965 -0.5206 -0.6253 -0.5779
  175MOL    H5345641   2.910   0.711   3.039  0.5195  0.1016  0.3398
  175MOL    C5445642   2.775   0.822   3.169 -0.1364 -0.8482  0.3459
  175MOL    C5545643   2.737   0.712   3.269 -0.4141  0.0900 -0.4925
  175MOL    C5645644   2.594   0.656   3.274  0.1390  0.1823 -0.3721
  175MOL    C5745645   2.646   0.747   3.385  0.1776 -0.1103 -0.0609
  175MOL    C5845646   2.893   0.899   3.230  0.2244  0.5614 -0.1907
  175MOL    H5945647   2.692   0.891   3.153  1.4084  0.7818 -0.8584
  175MOL    H6045648   2.809   0.632   3.286 -1.5376 -0.5686  1.2827
  175MOL    H6145649   2.513   0.685   3.207 -0.4176 -1.6563 -0.5150
  175MOL    H6245650   2.590   0.551   3.299  0.5854 -0.6707 -3.6893
  175MOL    H6345651   2.654   0.694   3.480  1.2836 -2.4176 -1.4052
  175MOL    H6445652   2.576   0.831   3.384  1.9869  1.4456 -3.2679
  175MOL    H6545653   2.880   0.885   3.338 -1.1033 -1.2079 -0.5469
  175MOL    H6645654   2.987   0.846   3.212 -0.6033 -1.4924  1.2497
  175MOL    C6745655   2.887   1.053   3.204  0.4514 -0.6667  0.1146
  175MOL    C6845656   2.762   1.121   3.251  0.6421 -0.0085  0.1060
  175MOL    C6945657   2.694   1.254   3.220 -0.6917 -0.1252  0.7981
  175MOL    C7045658   2.638   1.127   3.165 -0.0397 -0.2156  0.1588
  175MOL    C7145659   3.016   1.116   3.264  1.5007 -0.6912 -0.2462
  175MOL    H7245660   2.900   1.055   3.095  0.0615  0.7101  0.0725
  175MOL    H7345661   2.751   1.080   3.351 -0.0748 -1.1945 -0.4546
  175MOL    H7445662   2.643   1.305   3.302  0.3796  1.4969  0.4805
  175MOL    H7545663   2.745   1.317   3.147 -0.4095  0.2654  1.3276
  175MOL    H7645664   2.652   1.116   3.058 -0.8099  1.2912 -0.1071
  175MOL    H7745665   2.543   1.093   3.206 -0.2453  1.5171  1.1807
  175MOL    H7845666   3.073   1.042   3.321  0.2151  0.2492  2.3736
  175MOL    H7945667   2.996   1.189   3.343  1.0229 -1.5594  0.4415
  175MOL    C8045668   3.117   1.187   3.169 -0.4773 -0.0725  0.0082
  175MOL    C8145669   3.251   1.105   3.155 -0.6807 -0.5115  0.4993
  175MOL    C8245670   3.355   1.138   3.040 -0.6513  0.1453  0.0742
  175MOL    C8345671   3.271   1.014   3.025 -0.5713  0.4015  0.1607
  175MOL    C8445672   3.165   1.322   3.220 -0.2036  0.4186  0.7727
  175MOL    H8545673   3.073   1.191   3.070 -2.5797 -1.2790  0.8689
  175MOL    H8645674   3.288   1.058   3.246  0.3445 -0.2947  0.1991
  175MOL    H8745675   3.454   1.134   3.086 -0.9598 -2.5403  0.5734
  175MOL    H8845676   3.333   1.231   2.988  0.5857 -0.6867 -2.0355
  175MOL    H8945677   3.178   1.012   2.970 -1.6644  0.9134  1.9521
  175MOL    H9045678   3.341   0.930   3.031 -0.1894  0.6349 -0.9205
  175MOL    H9145679   3.171   1.315   3.329  0.3630  2.3453  0.8916
  175MOL    H9245680   3.266   1.344   3.188 -0.3445  0.1085  0.1221
  175MOL    C9345681   3.065   1.433   3.170  0.1894  0.1341 -0.0436
  175MOL    C9445682   3.085   1.560   3.251 -0.0992  0.6914 -0.4778
  175MOL    C9545683   2.964   1.647   3.277 -0.8026 -0.3126  0.4153
  175MOL    C9645684   3.031   1.571   3.393  0.3432 -0.0280 -0.0684
  175MOL    C9745685   3.094   1.469   3.021  0.3626  0.9193 -0.1815
  175MOL    H9845686   2.965   1.392   3.184 -0.0911  0.6038 -0.6429
  175MOL    H9945687   3.186   1.603   3.248  0.5271 -0.8076 -1.6469
  175MOL   H10045688   2.982   1.753   3.262  0.8422 -0.5840  0.2911
  175MOL   H10145689   2.878   1.606   3.226 -1.0132  1.0765 -0.3527
  175MOL   H10245690   3.079   1.634   3.468  1.4366 -0.1395 -0.6601
  175MOL   H10345691   2.994   1.477   3.434 -0.2119  0.1706 -0.1047
  175MOL   H10445692   3.168   1.394   2.992 -0.3911 -0.6844  1.8650
  175MOL   H10545693   3.156   1.558   3.014  0.8956  0.5005 -0.8830
  175MOL   C10645694   2.973   1.468   2.923  0.2614 -0.4531  0.7519
  175MOL   C10745695   2.980   1.597   2.824 -0.2142 -0.6860 -0.0653
  175MOL   C10845696   2.859   1.663   2.774  0.0263  0.4251  0.6039
  175MOL   C10945697   2.939   1.732   2.886 -0.0785 -0.0682  0.6321
  175MOL   C11045698   2.946   1.330   2.847 -0.2347  0.6611 -0.0115
  175MOL   H11145699   2.887   1.492   2.986 -0.3892 -3.2450  0.9966
  175MOL   H11245700   3.076   1.607   2.774  0.2295 -0.7470  0.7644
  175MOL   H11345701   2.865   1.729   2.688 -0.0512  0.4836  0.6435
  175MOL   H11445702   2.762   1.614   2.782 -0.9820  1.6377 -3.1765
  175MOL   H11545703   2.890   1.736   2.984 -0.6652 -2.0522  0.4290
  175MOL   H11645704   3.010   1.809   2.859 -0.8030  0.5644  0.5106
  175MOL   H11745705   3.042   1.300   2.804  0.3209 -0.6773  2.1156
  175MOL   H11845706   2.933   1.251   2.920  2.4279  0.1214 -0.0619
  175MOL   C11945707   2.838   1.326   2.736  0.1807  0.4487 -1.1258
  175MOL   C12045708   2.862   1.213   2.632  0.0765 -0.3780  0.1220
  175MOL   C12145709   2.939   1.084   2.674  0.3326  0.2315 -0.7965
  175MOL   C12245710   3.000   1.178   2.578  0.7365 -1.0049 -0.0977
  175MOL   C12345711   2.703   1.313   2.805  0.1558  0.0131  0.1321
  175MOL   H12445712   2.845   1.416   2.675 -0.7926 -0.6437 -2.8855
  175MOL   H12545713   2.784   1.208   2.557  1.1803  2.2151 -1.2876
  175MOL   H12645714   2.915   0.988   2.629 -1.0977 -0.8198  2.0803
  175MOL   H12745715   2.969   1.073   2.778 -0.1691 -2.1437 -0.8786
  175MOL   H12845716   3.082   1.246   2.603 -1.0545  1.2272 -0.0722
  175MOL   H12945717   2.994   1.140   2.477  1.8730 -0.3057 -0.4402
  175MOL   H13045718   2.700   1.214   2.851 -1.5884 -0.6447 -1.3009
  175MOL   H13145719   2.688   1.393   2.877  3.7359  0.7401  0.1679
  175MOL   C13245720   2.578   1.320   2.708  0.7409  0.1799 -0.1103
  175MOL   C13345721   2.557   1.463   2.666 -0.3206 -0.5465 -0.1407
  175MOL   C13445722   2.478   1.505   2.543 -0.1851  0.0929 -0.1157
  175MOL   C13545723   2.631   1.503   2.538 -0.2093  0.4150  0.2842
  175MOL   C13645724   2.459   1.264   2.793  0.6992  0.1432  1.2007
  175MOL   H13745725   2.593   1.254   2.622 -0.9406 -0.4095  0.0290
  175MOL   H13845726   2.558   1.541   2.741  0.1553 -0.1668 -0.5393
  175MOL   H13945727   2.428   1.424   2.492  0.4041 -1.6851  2.0298
  175MOL   H14045728   2.429   1.602   2.535 -2.8535 -1.2248 -0.1537
  175MOL   H14145729   2.673   1.417   2.486  1.5371  0.6039  1.3626
  175MOL   H14245730   2.696   1.590   2.530 -0.9517  0.7302 -3.0053
  175MOL   H14345731   2.494   1.193   2.868 -1.4465 -1.6907  0.5188
  175MOL   H14445732   2.424   1.349   2.852  0.9860  0.4707  0.8988
  175MOL   C14545733   2.337   1.213   2.718 -0.4439 -0.4999  0.0491
  175MOL   C14645734   2.383   1.095   2.641 -0.3345  0.3586  0.4624
  175MOL   C14745735   2.296   1.038   2.530 -0.6611 -0.0360  0.0481
  175MOL   C14845736   2.434   1.100   2.503 -0.2392 -0.3339  0.1783
  175MOL   C14945737   2.229   1.163   2.812  0.6634 -0.0046 -0.7641
  175MOL   H15045738   2.313   1.299   2.656  2.8387  0.6551  0.2869
  175MOL   H15145739   2.422   1.018   2.707  0.2117  1.1116  1.0321
  175MOL   H15245740   2.286   0.930   2.533 -0.4859 -0.0384  0.4918
  175MOL   H15345741   2.205   1.084   2.492  0.2199  1.1628 -0.6627
  175MOL   H15445742   2.433   1.192   2.446  0.2943 -0.5836 -0.2353
  175MOL   H15545743   2.489   1.016   2.461 -1.3513 -0.7526 -0.4740
  175MOL   H15645744   2.255   1.062   2.842  0.9359  0.0894 -0.6852
  175MOL   H15745745   2.230   1.221   2.905  0.7573 -1.0142 -0.1314
  175MOL   C15845746   2.079   1.155   2.768  0.8823  0.5538 -0.7445
  175MOL   C15945747   2.022   1.288   2.742  0.6849 -0.0244  1.1234
  175MOL   C16045748   2.037   1.351   2.607 -0.4783  0.3076 -0.0212
  175MOL   C16145749   1.901   1.304   2.650  0.2444 -0.0013 -0.7351
  175MOL   C16245750   1.992   1.072   2.862  0.5184  0.1653  0.1123
  175MOL   H16345751   2.090   1.101   2.674 -2.0236 -1.1871 -0.1389
  175MOL   H16445752   2.042   1.364   2.818  0.8947  0.1808  0.8645
  175MOL   H16545753   2.100   1.298   2.535  1.8693  2.3541  0.4796
  175MOL   H16645754   2.058   1.457   2.605  1.0630 -0.0050 -1.1388
  175MOL   H16745755   1.819   1.369   2.680 -1.5293 -2.2676 -0.5319
  175MOL   H16845756   1.878   1.216   2.590  4.6967  0.6824 -3.6866
  175MOL   H16945757   1.890   1.107   2.871  0.6427  0.9309 -1.3297
  175MOL   H17045758   2.033   1.088   2.962  0.1954 -1.5133  0.5258
  175MOL   C17145759   2.007   0.926   2.837 -1.4906  1.8781 -0.3038
  175MOL   C17245760   1.988   0.842   2.963 -0.2674  0.1963 -0.3816
  175MOL   C17345761   2.060   0.708   2.977  0.4577 -0.0226 -0.1281
  175MOL   C17445762   2.104   0.823   3.062 -0.4455 -1.3623  0.0815
  175MOL   C17545763   1.903   0.898   2.730  0.1546  0.1451  0.7458
  175MOL   H17645764   2.105   0.896   2.801 -2.4181 -0.1863 -1.1710
  175MOL   H17745765   1.885   0.838   3.000 -0.6426  0.3864 -1.3817
  175MOL   H17845766   2.000   0.634   3.030  0.9906  0.3591  1.0100
  175MOL   H17945767   2.127   0.680   2.896 -0.9171  1.8394 -1.9432
  175MOL   H18045768   2.201   0.868   3.040 -1.6173  0.9933 -0.4392
  175MOL   H18145769   2.084   0.797   3.165  2.4554  2.1988  1.6512
  175MOL   H18245770   1.869   0.986   2.674  1.7007  0.8745  0.9454
  175MOL   H18345771   1.810   0.862   2.774  0.4717  1.2838  2.3812
  175MOL   C18445772   1.937   0.792   2.627  0.2299 -0.7641 -0.4629
  175MOL   C18545773   1.876   0.815   2.478  0.6383  0.2108 -0.1439
  175MOL   C18645774   1.956   0.811   2.351 -0.2547 -0.1438 -0.0355
  175MOL   C18745775   1.914   0.945   2.401 -0.3628  0.6914 -0.7914
  175MOL   C18845776   1.882   0.655   2.676 -0.1100  0.3775  0.3134
  175MOL   H18945777   2.046   0.794   2.628  0.2373 -1.6426  1.4025
  175MOL   H19045778   1.777   0.776   2.459 -0.6103  2.6446  1.1202
  175MOL   H19145779   1.913   0.793   2.252  0.2397  2.0952 -0.6757
  175MOL   H19245780   2.057   0.775   2.366 -0.1419 -0.9963 -2.4985
  175MOL   H19345781   1.838   0.986   2.335  2.0774  2.8617 -2.3577
  175MOL   H19445782   1.990   1.014   2.437 -0.6886 -0.0100  1.3523
  175MOL   H19545783   1.774   0.664   2.659  0.2327  0.0561 -2.2468
  175MOL   H19645784   1.894   0.641   2.783  0.7721 -2.4217 -0.1104
  175MOL   C19745785   1.933   0.527   2.622 -0.4253 -0.3548  0.5093
  175MOL   C19845786   1.847   0.417   2.663 -0.6949 -0.0058 -0.2012
  175MOL   C19945787   1.844   0.296   2.571 -0.2596  0.0685 -0.2414
  175MOL   C20045788   1.721   0.395   2.578 -0.6217  0.6111 -0.3494
  175MOL   C20145789   2.082   0.502   2.651  0.2693 -0.1958 -0.7441
  175MOL   H20245790   1.930   0.530   2.513  0.3140  1.3109  0.5214
  175MOL   H20345791   1.845   0.393   2.769 -0.2273 -0.6460 -0.3363
  175MOL   H20445792   1.899   0.299   2.478  0.0830 -0.7699 -0.0671
  175MOL   H20545793   1.838   0.196   2.613 -1.1263 -0.4393 -1.5575
  175MOL   H20645794   1.714   0.461   2.491 -1.2141 -0.3794 -1.0703
  175MOL   H20745795   1.625   0.359   2.614 -1.0790  0.0728 -2.0192
  175MOL   H20845796   2.120   0.596   2.689 -1.5848 -0.2718  1.4424
  175MOL   H20945797   2.086   0.453   2.749  2.2094 -0.2204 -0.8201
  175MOL   C21045798   2.175   0.427   2.552  1.0159  0.3574  0.1991
  175MOL   C21145799   2.197   0.504   2.427 -0.5254  1.2179  0.6691
  175MOL   C21245800   2.247   0.452   2.294 -0.1334 -0.5854  0.0268
  175MOL   C21345801   2.102   0.487   2.306  0.7661  0.0804 -0.9157
  175MOL   C21445802   2.309   0.395   2.623  0.0534  0.1409 -0.0022
  175MOL   H21545803   2.128   0.332   2.526 -0.3228  0.9783  0.3199
  175MOL   H21645804   2.216   0.609   2.446 -0.5009  1.0715  1.4813
  175MOL   H21745805   2.325   0.509   2.244 -1.5474  0.3536 -1.1633
  175MOL   H21845806   2.274   0.347   2.299  1.6159 -0.2542 -1.8783
  175MOL   H21945807   2.062   0.568   2.245 -0.2570  3.1457  3.6004
  175MOL   H22045808   2.048   0.393   2.294  1.0701 -0.5365  2.1595
  175MOL   H22145809   2.381   0.474   2.601  0.3335 -0.0697  0.1485
  175MOL   H22245810   2.309   0.411   2.731  1.9960 -0.3412  0.0948
  175MOL   C22345811   2.365   0.253   2.599  0.1667  0.0015  0.0788
  175MOL   C22445812   2.271   0.139   2.649  0.6331  0.4819  0.4787
  175MOL   C22545813   2.182   0.077   2.548 -0.3346 -0.3422 -0.3634
  175MOL   C22645814   2.289   7.837   2.618  0.4400  1.0535  0.0777
  175MOL   C22745815   2.506   0.230   2.655  0.0197 -0.1758 -0.2039
  175MOL   H22845816   2.374   0.247   2.491 -1.2294 -0.1810 -0.0376
  175MOL   H22945817   2.222   0.165   2.743 -1.1776 -1.5003  0.1165
  175MOL   H23045818   2.202   0.086   2.442  1.8142  0.2492  0.0629
  175MOL   H23145819   2.079   0.075   2.581 -0.6634  0.8860 -1.2846
  175MOL   H23245820   2.249   7.756   2.679  1.4861  0.5532  0.1080
  175MOL   H23345821   2.374   7.802   2.560 -0.3595 -0.2932 -0.2885
  175MOL   H23445822   2.544   0.330   2.678 -0.9696  0.5834 -1.7575
  175MOL   H23545823   2.490   0.182   2.752 -2.1010  0.0538 -0.3982
  175MOL   C23645824   2.603   0.158   2.564 -0.2021 -0.4926 -0.9574
  175MOL   C23745825   2.723   0.106   2.641 -0.2981  0.1097  0.3339
  175MOL   C23845826   2.707   7.811   2.697 -0.8674  0.6633  0.2649
  175MOL   C23945827   2.814   7.831   2.594 -0.8828  0.4709 -0.3246
  175MOL   C24045828   2.641   0.250   2.443 -0.1566  0.3771 -0.3451
  175MOL   H24145829   2.544   0.075   2.527 -1.4467 -1.0619  2.1695
  175MOL   H24245830   2.757   0.177   2.717 -1.1964  1.6242 -0.6589
  175MOL   H24345831   2.737   7.794   2.800 -2.2427  0.8028  0.6926
  175MOL   H24445832   2.623   7.752   2.659  0.3056 -0.5663 -0.5060
  175MOL   H24545833   2.801   7.814   2.487 -1.4142  3.6411 -0.8055
  175MOL   H24645834   2.919   0.004   2.620 -0.6278  0.9094 -1.5080
  175MOL   H24745835   2.568   0.329   2.427  1.7024  2.2128 -0.0229
  175MOL   H24845836   2.728   0.309   2.469 -0.5887  0.3043  1.3543
  175MOL   C24945837   2.671   0.169   2.315 -0.3073  0.2755  0.2773
  175MOL   C25045838   2.749   0.247   2.218 -0.0626 -0.3561  0.2696
  175MOL   C25145839   2.900   0.243   2.226  0.2227 -0.2068 -0.2559
  175MOL   C25245840   2.828   0.189   2.106 -0.1848 -0.0501  0.2410
  175MOL   C25345841   2.537   0.125   2.244 -0.1506  0.0232  0.1349
  175MOL   H25445842   2.722   0.077   2.341 -0.5180  0.1382  0.2039
  175MOL   H25545843   2.713   0.344   2.184  0.5951  0.8616  2.8735
  175MOL   H25645844   2.946   0.341   2.225 -0.3020  0.0476 -0.0812
  175MOL   H25745845   2.952   0.175   2.293 -1.0051  1.2668  2.3074
  175MOL   H25845846   2.838   0.241   2.011  0.9334 -0.2041  0.2679
  175MOL   H25945847   2.814   0.082   2.092 -0.1919 -0.1895  1.2520
  175MOL   H26045848   2.464   0.080   2.312  0.0430 -3.4675 -1.8260
  175MOL   H26145849   2.542   0.053   2.163  1.3876 -0.6931  0.8439
  175MOL   H26245850   2.492   0.216   2.205 -1.3130 -0.4536  0.3262
  176MOL     C145851   0.126   6.735   1.892  0.1617 -0.3550 -0.2493
  176MOL     C245852   0.071   6.869   1.865 -0.5892 -0.0883  0.1780
  176MOL     C345853   0.136   6.969   1.773 -0.2483 -0.1462  0.3617
  176MOL     C445854   0.132   6.989   1.928 -0.6590 -0.2159 -0.4934
  176MOL     C545855   0.141   6.695   2.033  0.7570 -0.7867  0.4357
  176MOL     H645856   0.067   6.662   1.838  2.9374 -1.9384 -1.2508
  176MOL     H745857   7.802   6.860   1.858 -0.7169  0.9197  0.7438
  176MOL     H845858   0.228   6.936   1.724  1.2721  0.4098  2.7863
  176MOL     H945859   0.067   7.016   1.703  0.7929  1.0902  0.1423
  176MOL    H1045860   0.082   7.081   1.957 -0.4445 -0.2741  0.0710
  176MOL    H1145861   0.232   6.979   1.971 -0.9624 -0.7797  0.0882
  176MOL    H1245862   0.041   6.704   2.077  0.4452 -2.7301  0.1532
  176MOL    H1345863   0.196   6.773   2.086 -1.1660  2.6418 -2.4031
  176MOL    H1445864   0.217   6.730   1.831  0.2988 -0.4053 -0.0383
  176MOL    C1545865   0.218   6.566   2.058  0.2429 -0.0349  0.9253
  176MOL    C1645866   0.354   6.571   1.990 -0.1433  0.9306  0.4034
  176MOL    C1745867   0.371   6.506   1.861 -0.7443  0.1780  0.1251
  176MOL    C1845868   0.433   6.446   1.984  0.1735  0.1133 -0.0610
  176MOL    C1945869   0.242   6.533   2.208  0.0345 -0.0135  0.0719
  176MOL    H2045870   0.158   6.486   2.014  1.7549  0.3710 -2.0669
  176MOL    H2145871   0.419   6.659   1.990  0.5284  0.4337  0.9754
  176MOL    H2245872   0.436   6.559   1.791 -0.8184  0.1234  0.0150
  176MOL    H2345873   0.287   6.462   1.807 -0.7909  0.8508 -0.3501
  176MOL    H2445874   0.392   6.353   2.025 -2.5638  0.8955 -0.9007
  176MOL    H2545875   0.540   6.458   1.995  0.4568 -2.7176  0.8327
  176MOL    H2645876   0.299   6.613   2.255  0.7746 -0.4691 -0.0471
  176MOL    H2745877   0.292   6.437   2.216  0.5726  0.3829  1.8076
  176MOL    C2845878   0.124   6.522   2.306 -0.8107 -0.2282 -0.5988
  176MOL    C2945879   0.174   6.500   2.444 -0.0393  0.5890 -0.7937
  176MOL    C3045880   0.240   6.611   2.521  0.2768  0.5065  0.0136
  176MOL    C3145881   0.107   6.555   2.568  0.3505  0.1789 -0.1599
  176MOL    C3245882   0.018   6.413   2.276 -0.1573  0.4184  0.9348
  176MOL    H3345883   0.077   6.620   2.291  3.2898  1.8876 -0.2781
  176MOL    H3445884   0.211   6.399   2.459 -0.8572  0.6912  2.2701
  176MOL    H3545885   0.229   6.709   2.476  0.9128  1.0053  0.9158
  176MOL    H3645886   0.339   6.580   2.556 -0.3815 -0.2858  1.2343
  176MOL    H3745887   0.014   6.611   2.567  1.0860  1.4099 -0.8122
  176MOL    H3845888   0.112   6.487   2.653 -1.3717  1.2936  0.8561
  176MOL    H3945889   0.054   6.315   2.309  0.2973 -0.3965 -1.7775
  176MOL    H4045890   0.024   6.397   2.168  0.6462 -0.3302  1.0829
  176MOL    C4145891   7.709   6.442   2.323 -0.3047 -0.3675 -0.2713
  176MOL    C4245892   7.610   6.324   2.325  0.2247  0.0355 -0.5568
  176MOL    C4345893   7.531   6.292   2.445  0.4071  0.1489  0.0694
  176MOL    C4445894   7.641   6.202   2.405  0.1742 -0.8543 -0.2572
  176MOL    C4545895   7.651   6.555   2.233 -0.5697  0.3259  0.0637
  176MOL    H4645896   7.722   6.474   2.426 -1.5301 -0.1021 -0.1943
  176MOL    H4745897   7.550   6.307   2.235  2.1698 -1.8603 -1.5447
  176MOL    H4845898   7.547   6.345   2.538  2.1530  0.1702 -0.2235
  176MOL    H4945899   7.429   6.253   2.440 -0.3836  1.9642  1.6045
  176MOL    H5045900   7.613   6.112   2.350  0.0163  0.2617 -2.0300
  176MOL    H5145901   7.727   6.196   2.472  0.5608  1.3387 -0.5430
  176MOL    H5245902   7.635   6.521   2.131  0.9050  1.0462 -0.4322
  176MOL    H5345903   7.724   6.635   2.219 -0.9969  0.8487  0.8225
  176MOL    C5445904   7.527   6.623   2.293  0.2470 -0.6556 -0.8008
  176MOL    C5545905   7.564   6.686   2.432  0.6107  0.4711  0.7051
  176MOL    C5645906   7.519   6.621   2.563  0.2693 -0.1595 -1.2074
  176MOL    C5745907   7.483   6.768   2.528 -0.6131 -0.4642  0.2048
  176MOL    C5845908   7.479   6.724   2.188 -0.3947  0.0021  0.5126
  176MOL    H5945909   7.457   6.541   2.310  0.5229 -1.1525 -2.0200
  176MOL    H6045910   7.661   6.736   2.427 -0.1396  1.9666  0.7978
  176MOL    H6145911   7.439   6.547   2.562  0.7688 -0.7527  0.2330
  176MOL    H6245912   7.595   6.608   2.639 -0.9792  1.4649  0.3803
  176MOL    H6345913   7.543   6.855   2.552  1.5561 -2.0301  0.5798
  176MOL    H6445914   7.377   6.781   2.508 -0.5348 -1.1621 -0.7157
  176MOL    H6545915   7.548   6.808   2.179  1.6954 -1.8894 -2.2366
  176MOL    H6645916   7.486   6.680   2.089  1.2777 -0.7603  0.9463
  176MOL    C6745917   7.341   6.779   2.207  0.8944  0.3617 -0.5432
  176MOL    C6845918   7.335   6.924   2.162 -0.2319  0.3021 -0.6764
  176MOL    C6945919   7.270   7.034   2.246  0.4572  0.6262  0.0583
  176MOL    C7045920   7.425   7.031   2.236 -0.4313  0.4614  0.4627
  176MOL    C7145921   7.236   6.683   2.157 -0.6986 -0.3346  0.4178
  176MOL    H7245922   7.310   6.788   2.311  1.0625  0.3690 -0.4936
  176MOL    H7345923   7.350   6.944   2.056  0.6775  0.5704 -0.5013
  176MOL    H7445924   7.223   7.124   2.208 -2.6939 -1.4286 -1.1384
  176MOL    H7545925   7.241   7.013   2.349  2.7267  2.1547  1.0501
  176MOL    H7645926   7.483   6.991   2.318 -1.6527 -0.8553  0.7135
  176MOL    H7745927   7.461   7.111   2.172  2.4630 -1.5903 -0.5678
  176MOL    H7845928   7.260   6.588   2.204  1.1703  0.6562  1.4848
  176MOL    H7945929   7.259   6.666   2.052 -0.6814  1.3468  0.1295
  176MOL    C8045930   7.085   6.723   2.177 -0.0970 -0.4215 -0.6138
  176MOL    C8145931   7.005   6.599   2.193 -0.2652  0.1860  0.0364
  176MOL    C8245932   6.881   6.582   2.283 -0.2144  0.2233 -0.3160
  176MOL    C8345933   7.020   6.541   2.328  0.0653  0.1606  0.4908
  176MOL    C8445934   7.041   6.800   2.052 -0.2782  0.2001  0.6773
  176MOL    H8545935   7.073   6.782   2.268 -2.2878 -0.2248 -0.9814
  176MOL    H8645936   7.025   6.526   2.115 -0.2512  0.6656 -0.4116
  176MOL    H8745937   6.816   6.497   2.266  0.8709 -0.7954  0.5983
  176MOL    H8845938   6.834   6.667   2.333 -2.4772 -0.1370 -1.7556
  176MOL    H8945939   7.069   6.598   2.406 -0.9591  1.5762  0.1184
  176MOL    H9045940   7.044   6.435   2.331  1.1934  0.3334 -1.4600
  176MOL    H9145941   7.113   6.882   2.051 -0.0905  0.0861  2.4533
  176MOL    H9245942   7.063   6.741   1.963 -0.2729  0.6225  0.3963
  176MOL    C9345943   6.889   6.850   2.032 -0.3002  0.7961  0.5293
  176MOL    C9445944   6.891   6.992   1.968  0.1947 -0.0811  1.2650
  176MOL    C9545945   6.781   7.088   2.014 -0.4180  0.3480  0.0985
  176MOL    C9645946   6.921   7.118   2.048  0.4575 -0.2779  0.7590
  176MOL    C9745947   6.809   6.739   1.951  0.5415  0.5153  0.3315
  176MOL    H9845948   6.838   6.854   2.128  2.6464  0.5757  2.1669
  176MOL    H9945949   6.909   6.986   1.861  3.6056 -0.9208  1.8261
  176MOL   H10045950   6.736   7.155   1.941 -0.2237 -1.2259 -1.4928
  176MOL   H10145951   6.717   7.050   2.093  0.5053 -4.1833 -1.1850
  176MOL   H10245952   6.964   7.204   1.998 -0.2548 -0.9518 -1.0619
  176MOL   H10345953   6.938   7.099   2.154 -0.3364  1.1864  1.1690
  176MOL   H10445954   6.845   6.641   1.981 -0.4158  0.0528 -0.0053
  176MOL   H10545955   6.845   6.753   1.849 -3.6389  0.6059 -1.2165
  176MOL   C10645956   6.652   6.733   1.931  0.2739  0.4839  0.1238
  176MOL   C10745957   6.614   6.634   1.828 -0.3200  0.4172  0.6828
  176MOL   C10845958   6.503   6.667   1.734  0.2494 -0.0090  0.2810
  176MOL   C10945959   6.641   6.648   1.680 -0.3225 -0.0673  0.0229
  176MOL   C11045960   6.576   6.704   2.063 -0.2204 -0.3474  0.2988
  176MOL   H11145961   6.610   6.824   1.888 -0.1647 -0.5064 -1.5521
  176MOL   H11245962   6.620   6.527   1.847 -1.6454  0.1951 -0.1168
  176MOL   H11345963   6.431   6.592   1.701 -0.3973  0.4164  0.7092
  176MOL   H11445964   6.466   6.769   1.731  3.2902  1.2305  2.3727
  176MOL   H11545965   6.684   6.742   1.647  0.4634 -0.7435 -0.9213
  176MOL   H11645966   6.673   6.556   1.632  1.6894  0.2367  0.7578
  176MOL   H11745967   6.586   6.597   2.083  0.8680 -0.5227 -1.1602
  176MOL   H11845968   6.634   6.746   2.145  0.0107 -0.3041  0.1122
  176MOL   C11945969   6.429   6.756   2.069  0.6166 -0.2038 -0.6310
  176MOL   C12045970   6.346   6.678   2.173  0.7385  0.0715 -0.7400
  176MOL   C12145971   6.270   6.555   2.145 -0.3583  0.3008  1.1080
  176MOL   C12245972   6.196   6.682   2.169  0.1337 -0.1553 -0.2561
  176MOL   C12345973   6.420   6.913   2.091  0.0006  0.3422 -0.0109
  176MOL   H12445974   6.387   6.738   1.970  1.6423 -2.1980 -0.7323
  176MOL   H12545975   6.387   6.679   2.274 -1.2680  1.0326  0.0894
  176MOL   H12645976   6.257   6.478   2.221  1.9759 -1.7086 -0.4720
  176MOL   H12745977   6.286   6.518   2.044  1.2614  0.3755  1.3384
  176MOL   H12845978   6.147   6.711   2.077 -2.2148  0.4687  1.1427
  176MOL   H12945979   6.132   6.683   2.257 -0.8968  1.9571 -0.9957
  176MOL   H13045980   6.467   6.945   2.183 -2.1381  0.4686  1.0761
  176MOL   H13145981   6.489   6.957   2.019  0.7583 -1.0944 -0.1921
  176MOL   C13245982   6.278   6.986   2.070 -0.7059 -0.7039 -0.2469
  176MOL   C13345983   6.245   6.994   1.923  0.1495 -0.3805  0.1789
  176MOL   C13445984   6.103   7.013   1.864 -0.7545  0.6958  0.1511
  176MOL   C13545985   6.184   6.884   1.849  0.1359 -0.8917 -0.7429
  176MOL   C13645986   6.282   7.122   2.137 -0.2475 -0.2167 -0.6470
  176MOL   H13745987   6.196   6.930   2.116  0.4962 -1.9268  0.4179
  176MOL   H13845988   6.315   7.058   1.870 -1.4537  0.1324 -1.3493
  176MOL   H13945989   6.017   7.015   1.931 -0.7171  1.2254  0.1827
  176MOL   H14045990   6.089   7.082   1.782 -1.8203  0.3041 -0.0142
  176MOL   H14145991   6.140   6.797   1.898 -1.0523  0.4603  0.6403
  176MOL   H14245992   6.220   6.852   1.751 -1.3695 -1.1694 -1.2343
  176MOL   H14345993   6.320   7.121   2.240  1.4403 -2.5582 -1.2454
  176MOL   H14445994   6.354   7.174   2.074  0.4801 -0.5271 -0.0817
  176MOL   C14545995   6.144   7.186   2.148 -0.5633  0.2094 -0.1142
  176MOL   C14645996   6.063   7.118   2.262  0.1149  0.1177 -0.0911
  176MOL   C14745997   5.912   7.116   2.261 -0.0969  0.3411 -0.0214
  176MOL   C14845998   5.990   6.989   2.246  0.3177  0.4664  0.1500
  176MOL   C14945999   6.151   7.339   2.177  0.0541 -0.7895  0.6574
  176MOL   H15046000   6.090   7.169   2.055  1.7915 -0.1477 -1.4519
  176MOL   H15146001   6.115   7.118   2.358  1.6917  2.1020 -0.8975
  176MOL   H15246002   5.873   7.145   2.359  2.8338  1.2128  0.9470
  176MOL   H15346003   5.859   7.157   2.176 -0.3855  3.5236  1.6382
  176MOL   H15446004   5.979   6.942   2.149 -1.5219  1.7992 -0.3337
  176MOL   H15546005   5.985   6.926   2.334  1.8510 -1.4568 -1.1249
  176MOL   H15646006   6.055   7.382   2.204  0.6088  2.0480 -1.5822
  176MOL   H15746007   6.210   7.348   2.268 -2.4008 -1.1512  2.3119
  176MOL   C15846008   6.230   7.418   2.067 -0.0440 -0.1203 -0.7378
  176MOL   C15946009   6.251   7.560   2.124 -0.7425  0.5702  0.1329
  176MOL   C16046010   6.366   7.590   2.227  0.0948  0.5990  0.8507
  176MOL   C16146011   6.377   7.637   2.086 -0.2796 -0.6660 -0.1380
  176MOL   C16246012   6.163   7.411   1.927 -0.1545 -0.2145 -0.5162
  176MOL   H16346013   6.329   7.376   2.047 -0.0547 -0.2161 -0.5907
  176MOL   H16446014   6.159   7.613   2.146 -1.3194  0.1285 -1.1624
  176MOL   H16546015   6.420   7.503   2.263  1.2180 -0.1380 -2.4339
  176MOL   H16646016   6.331   7.661   2.302  1.3775  0.2075  1.8529
  176MOL   H16746017   6.370   7.745   2.072 -0.3300 -0.4725  1.2504
  176MOL   H16846018   6.440   7.588   2.013  2.4066  0.2861  1.4561
  176MOL   H16946019   6.077   7.478   1.937 -1.2986 -2.0115  2.1775
  176MOL   H17046020   6.115   7.316   1.906  0.2763 -0.4774 -0.3155
  176MOL   C17146021   6.238   7.457   1.802  0.2353  0.3875  0.1226
  176MOL   C17246022   6.345   7.354   1.770 -0.4711  0.0560  0.3761
  176MOL   C17346023   6.455   7.364   1.666 -0.2456  0.1440  0.1318
  176MOL   C17446024   6.495   7.347   1.809  0.2225 -0.3712 -0.5429
  176MOL   C17546025   6.143   7.469   1.679  0.4511  0.8130 -0.1552
  176MOL   H17646026   6.297   7.547   1.820 -1.5876  1.8229 -0.9110
  176MOL   H17746027   6.303   7.255   1.780 -2.0163  0.8202  1.7106
  176MOL   H17846028   6.475   7.278   1.602  0.1889 -0.0382  0.5126
  176MOL   H17946029   6.466   7.460   1.616 -0.8368  0.1126 -0.0704
  176MOL   H18046030   6.558   7.426   1.849 -0.8014 -0.1454  0.6643
  176MOL   H18146031   6.534   7.249   1.836 -0.4572 -0.2034  1.1075
  176MOL   H18246032   6.080   7.381   1.663  2.5002 -0.6889 -0.0815
  176MOL   H18346033   6.196   7.466   1.584 -0.5322  2.9244 -0.8064
  176MOL   C18446034   6.068   7.605   1.683  0.0721 -0.9925  0.0907
  176MOL   C18546035   5.947   7.606   1.598  1.1830 -0.0102  0.0102
  176MOL   C18646036   5.823   7.677   1.658  0.5527 -0.4893  0.1171
  176MOL   C18746037   5.824   7.528   1.644 -0.4084  0.6804 -0.2276
  176MOL   C18846038   6.163   7.720   1.644  0.0318 -0.5500  0.4149
  176MOL   H18946039   6.040   7.629   1.786  1.5118 -0.9804  0.4866
  176MOL   H19046040   5.951   7.611   1.490 -4.4717  1.2505 -0.3203
  176MOL   H19146041   5.760   7.738   1.595  0.4153  0.1936  0.9057
  176MOL   H19246042   5.819   7.712   1.761  0.4938 -0.2100  0.0180
  176MOL   H19346043   5.774   7.492   1.555 -1.4138  1.5046  0.0037
  176MOL   H19446044   5.834   7.458   1.727  0.9679  0.4343 -0.5768
  176MOL   H19546045   6.166   7.736   1.536 -1.2846 -2.1552  0.1303
  176MOL   H19646046   6.265   7.699   1.676  0.1170 -1.0447 -0.1873
  176MOL   C19746047   6.125   0.016   1.709 -0.2338 -0.6022 -0.3956
  176MOL   C19846048   6.197   0.127   1.630  0.3322  0.5191 -0.7474
  176MOL   C19946049   6.144   0.268   1.613 -0.7028  0.2168 -0.1001
  176MOL   C20046050   6.141   0.176   1.501  0.3996 -0.1462  0.1995
  176MOL   C20146051   6.178   0.006   1.860 -0.1372  0.5060  0.2109
  176MOL   H20246052   6.016   0.023   1.707 -0.2862 -1.4544 -1.7086
  176MOL   H20346053   6.305   0.123   1.638  0.2859 -0.5411 -0.6647
  176MOL   H20446054   6.052   0.291   1.665 -1.6372 -0.8284 -1.2504
  176MOL   H20546055   6.210   0.354   1.606  0.9554 -0.8372  2.0341
  176MOL   H20646056   6.046   0.138   1.462 -0.6256  1.3232  1.2402
  176MOL   H20746057   6.216   0.191   1.423 -0.1826  0.0270 -0.3260
  176MOL   H20846058   6.160   7.749   1.907  0.7799  0.7576  1.0742
  176MOL   H20946059   6.286   0.020   1.862 -0.3530  2.0457  2.2529
  176MOL   C21046060   6.112   0.118   1.946  0.7611  0.2885  0.5231
  176MOL   C21146061   5.964   0.086   1.977 -0.1396  0.1447  0.0453
  176MOL   C21246062   5.872   0.198   2.026  0.1759 -0.1128 -0.2987
  176MOL   C21346063   5.861   0.133   1.887  0.2679  0.1007 -0.1305
  176MOL   C21446064   6.200   0.135   2.071 -0.0593  0.3084 -0.0620
  176MOL   H21546065   6.125   0.212   1.893 -0.2636  0.3725  0.4225
  176MOL   H21646066   5.946   7.828   2.021 -1.7587  0.7219  0.6708
  176MOL   H21746067   5.805   0.160   2.104  0.4151 -2.2836 -1.1009
  176MOL   H21846068   5.876   0.306   2.026 -0.0221 -0.1026 -1.7407
  176MOL   H21946069   5.775   0.069   1.871  0.5796 -0.2139 -0.5673
  176MOL   H22046070   5.883   0.210   1.813 -0.5315  1.4212  0.9989
  176MOL   H22146071   6.175   0.052   2.137  2.3521  1.4862  2.4718
  176MOL   H22246072   6.308   0.127   2.055  0.3249  2.8882  1.0366
  176MOL   C22346073   6.175   0.266   2.155 -0.0196  0.3744 -0.5094
  176MOL   C22446074   6.239   0.388   2.080  0.6869 -0.1008  0.1378
  176MOL   C22546075   6.170   0.464   1.957 -0.1482 -0.1020 -0.7226
  176MOL   C22646076   6.174   0.524   2.092 -0.8253  0.9983  0.2293
  176MOL   C22746077   6.240   0.259   2.290  0.1680 -1.0630 -0.2177
  176MOL   H22846078   6.067   0.282   2.159 -0.4536 -2.4529  0.0336
  176MOL   H22946079   6.347   0.394   2.091  0.6118 -0.8837  1.4395
  176MOL   H23046080   6.073   0.426   1.926  0.1989  0.9968 -3.2898
  176MOL   H23146081   6.239   0.500   1.881  0.6721 -2.1805 -0.9784
  176MOL   H23246082   6.242   0.603   2.124 -0.5539  1.4355 -1.3495
  176MOL   H23346083   6.076   0.524   2.139 -1.7147 -1.3276 -1.5580
  176MOL   H23446084   6.180   0.185   2.344 -0.4333 -0.0691  0.5052
  176MOL   H23546085   6.344   0.228   2.282  0.7400  1.0254 -1.0937
  176MOL   C23646086   6.222   0.386   2.385 -0.2072  0.2864 -1.1154
  176MOL   C23746087   6.320   0.385   2.503  0.9107  0.0757  0.3752
  176MOL   C23846088   6.468   0.379   2.476  1.0399 -0.4653  0.2038
  176MOL   C23946089   6.412   0.504   2.532 -0.3503 -0.0095  0.2338
  176MOL   C24046090   6.079   0.407   2.431 -0.4683 -0.3755  0.2426
  176MOL   H24146091   6.239   0.473   2.321 -0.4382  0.6580 -0.6729
  176MOL   H24246092   6.286   0.321   2.584  3.3663 -3.1906 -1.0742
  176MOL   H24346093   6.541   0.333   2.542 -0.9254 -0.0585  2.7484
  176MOL   H24446094   6.500   0.395   2.374  3.0541  0.0994  0.9055
  176MOL   H24546095   6.409   0.593   2.470  2.5742  0.3298  0.5340
  176MOL   H24646096   6.444   0.521   2.635  0.2676  0.2145  0.0014
  176MOL   H24746097   6.023   0.410   2.337  0.8139 -5.2683 -0.8133
  176MOL   H24846098   6.034   0.323   2.485 -2.1097  0.8645  0.8474
  176MOL   C24946099   6.063   0.542   2.516  0.0302 -0.3877 -0.8619
  176MOL   C25046100   6.077   0.519   2.665  0.5039 -0.9456  0.5352
  176MOL   C25146101   6.176   0.603   2.745  0.7538  0.0049 -0.6038
  176MOL   C25246102   6.030   0.628   2.764  0.3087  0.3662  0.1353
  176MOL   C25346103   5.940   0.628   2.471  0.5859 -1.0217  0.5792
  176MOL   H25446104   6.150   0.602   2.491 -0.2289 -0.1686 -1.2511
  176MOL   H25546105   6.035   0.423   2.694 -2.1394 -0.0481 -0.1763
  176MOL   H25646106   6.230   0.541   2.817 -1.1522 -0.2041  0.7106
  176MOL   H25746107   6.225   0.694   2.712 -1.1952  1.3212  0.0356
  176MOL   H25846108   5.981   0.597   2.856 -2.2802  2.4615 -0.4471
  176MOL   H25946109   6.002   0.726   2.725  1.7717  0.3863 -0.8714
  176MOL   H26046110   5.939   0.731   2.508 -2.1604 -0.9365  0.3306
  176MOL   H26146111   5.847   0.578   2.497 -0.2064  0.4613  0.6935
  176MOL   H26246112   5.946   0.643   2.364  0.6223  1.2284  0.8682
  177MOL     C146113   2.725   2.044   4.862 -0.2546 -0.1275  0.4296
  177MOL     C246114   2.575   2.016   4.871 -0.3046  0.0863  0.3683
  177MOL     C346115   2.507   2.014   5.001  0.7953  0.0944 -0.2482
  177MOL     C446116   2.530   1.887   4.937 -0.1176 -0.4990  0.3518
  177MOL     C546117   2.789   1.948   4.763 -0.2238  0.4776  0.2651
  177MOL     H646118   2.742   2.147   4.829 -0.9898 -0.4153 -0.9176
  177MOL     H746119   2.518   2.060   4.790 -1.3691 -1.1511  0.4260
  177MOL     H846120   2.567   2.049   5.085  0.1526  1.2509 -0.2625
  177MOL     H946121   2.407   2.058   4.997  0.6126 -0.4399 -2.1973
  177MOL    H1046122   2.448   1.830   4.895 -0.7351 -1.0317  2.2481
  177MOL    H1146123   2.601   1.823   4.988 -0.4150 -1.3537 -0.2885
  177MOL    H1246124   2.743   1.945   4.665 -0.1278 -1.6552  0.2511
  177MOL    H1346125   2.767   1.844   4.787  1.0884 -0.1492 -1.1163
  177MOL    H1446126   2.760   2.024   4.963  0.7915 -1.1139 -0.1203
  177MOL    C1546127   2.943   1.982   4.758  0.6639  0.2251  0.4421
  177MOL    C1646128   3.023   1.905   4.869  0.5199  0.4723 -0.3749
  177MOL    C1746129   3.022   1.977   5.006  0.5918 -0.1792  0.5249
  177MOL    C1846130   3.152   1.956   4.938  0.5462 -0.0363 -0.1063
  177MOL    C1946131   2.998   1.954   4.618 -0.1605 -0.2464  0.2243
  177MOL    H2046132   2.963   2.086   4.781  1.7983  0.2559 -0.6211
  177MOL    H2146133   3.025   1.797   4.852  0.8202  0.4216 -0.0162
  177MOL    H2246134   2.995   1.919   5.094 -2.4197  0.2907 -0.0362
  177MOL    H2346135   2.990   2.081   5.010 -0.9355 -0.4811 -2.4650
  177MOL    H2446136   3.197   2.048   4.902  1.3498  0.2173  1.5061
  177MOL    H2546137   3.216   1.877   4.979  1.3649  0.3749 -0.5730
  177MOL    H2646138   2.948   1.862   4.585 -0.0680 -0.2121 -0.0154
  177MOL    H2746139   3.103   1.929   4.625 -0.2483 -0.2419  1.7067
  177MOL    C2846140   2.980   2.072   4.519  0.1597 -0.2727  0.6314
  177MOL    C2946141   2.964   2.019   4.374 -0.0961  0.3395  0.2205
  177MOL    C3046142   2.820   1.988   4.331 -0.4224  0.1482 -0.8332
  177MOL    C3146143   2.886   2.103   4.272  0.5424 -0.0882  0.0067
  177MOL    C3246144   3.094   2.177   4.545 -0.3756 -0.5267  0.0611
  177MOL    H3346145   2.890   2.122   4.553 -0.6347  0.7771 -2.7624
  177MOL    H3446146   3.053   1.977   4.328 -1.7488 -0.1153 -2.6968
  177MOL    H3546147   2.745   1.984   4.410 -1.5183 -0.7294 -1.8970
  177MOL    H3646148   2.805   1.900   4.269  0.9424  0.2912 -1.3799
  177MOL    H3746149   2.855   2.204   4.299  0.7182  0.2779 -1.1410
  177MOL    H3846150   2.905   2.086   4.166  0.1870  0.6383 -0.1743
  177MOL    H3946151   3.174   2.120   4.497  1.1285 -0.8986  2.8735
  177MOL    H4046152   3.108   2.182   4.653 -0.6039  0.8827  0.0373
  177MOL    C4146153   3.071   2.315   4.487 -0.0832 -0.3587 -0.5265
  177MOL    C4246154   3.210   2.378   4.500 -0.7961  0.0559  0.4286
  177MOL    C4346155   3.257   2.497   4.420 -0.1029 -0.2221 -0.3825
  177MOL    C4446156   3.319   2.361   4.393  0.8696  0.0775 -0.1593
  177MOL    C4546157   2.978   2.401   4.579 -0.3194  0.0646 -0.0817
  177MOL    H4646158   3.035   2.310   4.384 -0.0564  1.4309 -0.6350
  177MOL    H4746159   3.251   2.377   4.600  0.1845 -0.4816  0.0223
  177MOL    H4846160   3.183   2.551   4.362  0.4634 -0.4144 -1.2947
  177MOL    H4946161   3.314   2.572   4.475 -2.3093 -0.5617  2.4766
  177MOL    H5046162   3.415   2.336   4.439  0.2672 -0.8329  0.6249
  177MOL    H5146163   3.298   2.300   4.306 -1.6534 -0.5552  0.8557
  177MOL    H5246164   3.031   2.462   4.652 -1.2986 -1.9088  2.3685
  177MOL    H5346165   2.938   2.341   4.661 -0.6279 -2.1300 -1.8069
  177MOL    C5446166   2.860   2.484   4.510  0.0099  0.5537 -0.4108
  177MOL    C5546167   2.736   2.476   4.598 -0.7813 -0.3046  0.1453
  177MOL    C5646168   2.678   2.344   4.643  0.4961  0.1011  0.1671
  177MOL    C5746169   2.608   2.432   4.536  1.0615  0.0643 -0.4445
  177MOL    C5846170   2.896   2.630   4.469  0.2514 -0.4885  0.1557
  177MOL    H5946171   2.824   2.426   4.425 -4.2429  0.7369  1.1438
  177MOL    H6046172   2.723   2.548   4.679 -0.8325 -0.9876  0.7487
  177MOL    H6146173   2.724   2.250   4.611  1.7845  0.6348  0.4194
  177MOL    H6246174   2.630   2.338   4.741 -0.4795 -0.6274 -0.3531
  177MOL    H6346175   2.528   2.500   4.565  0.0476 -1.8334  1.3208
  177MOL    H6446176   2.614   2.394   4.435 -2.0067 -0.9450 -0.3012
  177MOL    H6546177   2.928   2.686   4.557  0.3301 -1.7457  0.9479
  177MOL    H6646178   2.985   2.623   4.406 -0.1591  0.1812 -0.5135
  177MOL    C6746179   2.788   2.708   4.384  0.0669  0.8593  0.1273
  177MOL    C6846180   2.843   2.848   4.370 -0.0717  0.7530  0.1217
  177MOL    C6946181   2.765   2.978   4.350  0.3745  0.2493 -0.5198
  177MOL    C7046182   2.839   2.941   4.481  0.1340  0.2178  0.1807
  177MOL    C7146183   2.770   2.653   4.240 -0.1221  0.1301 -0.0884
  177MOL    H7246184   2.689   2.711   4.429  1.5905  1.0391  3.6632
  177MOL    H7346185   2.938   2.842   4.316 -1.5097  1.3261 -2.5538
  177MOL    H7446186   2.800   3.045   4.273 -0.3707  0.5769 -0.5808
  177MOL    H7546187   2.657   2.965   4.349  0.3599  0.4514 -1.1586
  177MOL    H7646188   2.785   2.904   4.568  0.3257 -0.7501 -0.1101
  177MOL    H7746189   2.942   2.968   4.503  0.2038 -1.7083  2.4372
  177MOL    H7846190   2.756   2.545   4.242 -0.6097  0.2045  0.3398
  177MOL    H7946191   2.866   2.659   4.188  0.3733  0.0258  0.8149
  177MOL    C8046192   2.663   2.715   4.159 -0.1080  0.6602 -0.8867
  177MOL    C8146193   2.526   2.679   4.219 -0.6725 -0.4753 -0.6319
  177MOL    C8246194   2.393   2.727   4.169  0.0032 -0.3430  0.5505
  177MOL    C8346195   2.441   2.778   4.303 -0.3983 -0.4485 -0.3376
  177MOL    C8446196   2.672   2.668   4.013  0.4880 -0.3405 -0.6275
  177MOL    H8546197   2.674   2.823   4.170 -1.2353  0.5324  1.8775
  177MOL    H8646198   2.517   2.573   4.241 -0.4941  0.0863  2.3410
  177MOL    H8746199   2.315   2.652   4.170 -0.2703 -0.0709  0.0639
  177MOL    H8846200   2.401   2.799   4.088  2.2404 -1.7378 -0.5092
  177MOL    H8946201   2.475   2.881   4.306 -1.5436 -0.0395 -0.8991
  177MOL    H9046202   2.388   2.741   4.391 -1.1556 -1.5340 -1.2296
  177MOL    H9146203   2.776   2.640   3.997 -0.0979 -3.9182  1.3801
  177MOL    H9246204   2.616   2.575   4.006  2.2499 -1.4276 -0.7288
  177MOL    C9346205   2.629   2.771   3.911  0.3532 -0.8383  0.2035
  177MOL    C9446206   2.740   2.877   3.885  0.0110 -0.5787 -0.6312
  177MOL    C9546207   2.701   3.011   3.822  0.2043 -0.1794  0.4408
  177MOL    C9646208   2.742   3.004   3.973 -0.7414 -0.2877 -0.2021
  177MOL    C9746209   2.591   2.696   3.779  0.2537  0.1457 -0.7964
  177MOL    H9846210   2.542   2.829   3.944 -0.4643  0.2105 -3.5253
  177MOL    H9946211   2.841   2.838   3.874  1.1223  2.0772 -0.1871
  177MOL   H10046212   2.772   3.054   3.752 -0.3886  0.0299 -0.0396
  177MOL   H10146213   2.599   3.015   3.784 -0.4722  0.3657  2.2763
  177MOL   H10246214   2.840   3.041   4.000  0.1976 -2.5930 -0.2726
  177MOL   H10346215   2.669   3.029   4.049 -2.3461 -2.7828 -0.8669
  177MOL   H10446216   2.542   2.775   3.721  1.1785  1.6351  0.3853
  177MOL   H10546217   2.506   2.631   3.798  0.5083  0.1661  0.5219
  177MOL   C10646218   2.704   2.625   3.694 -0.3376  0.6187  0.2140
  177MOL   C10746219   2.644   2.513   3.610 -0.0036  0.0905 -0.6167
  177MOL   C10846220   2.715   2.372   3.610 -0.3837  0.8000 -0.2366
  177MOL   C10946221   2.575   2.391   3.677  0.5176 -0.8536  0.0690
  177MOL   C11046222   2.769   2.729   3.597 -0.6450  0.0160 -0.3130
  177MOL   H11146223   2.773   2.580   3.765  0.9393  0.8268 -0.8958
  177MOL   H11246224   2.592   2.532   3.516 -0.5718 -2.7591 -0.9418
  177MOL   H11346225   2.726   2.319   3.516 -1.0015  0.6266 -0.2170
  177MOL   H11446226   2.800   2.362   3.677 -0.6010  0.3576 -0.0220
  177MOL   H11546227   2.578   2.386   3.786 -0.7006  1.1999  0.2180
  177MOL   H11646228   2.481   2.350   3.642  0.5829 -1.7343  0.9118
  177MOL   H11746229   2.692   2.758   3.525 -1.5652 -1.6935 -0.0454
  177MOL   H11846230   2.799   2.824   3.642  2.9665 -0.6539 -1.1649
  177MOL   C11946231   2.895   2.693   3.514  0.2129 -0.3832 -0.1113
  177MOL   C12046232   2.898   2.753   3.379  0.8356 -0.8645  0.4361
  177MOL   C12146233   2.795   2.724   3.271 -0.1025 -0.2937 -0.2536
  177MOL   C12246234   2.936   2.675   3.252  0.4964 -0.2711 -0.9146
  177MOL   C12346235   3.026   2.749   3.596  0.1948 -0.0758 -0.8378
  177MOL   H12446236   2.889   2.585   3.500 -1.7071 -0.5600  1.6973
  177MOL   H12546237   2.935   2.855   3.373  0.0812 -0.5976  0.2988
  177MOL   H12646238   2.764   2.804   3.204  0.0127  0.6337  0.7821
  177MOL   H12746239   2.724   2.645   3.294 -0.5780  0.6437  1.6804
  177MOL   H12846240   2.955   2.568   3.251  1.3361 -0.1734  1.4527
  177MOL   H12946241   2.981   2.734   3.173  1.2617 -0.9697 -1.0026
  177MOL   H13046242   3.116   2.741   3.535  0.3744 -0.0052 -0.5796
  177MOL   H13146243   3.006   2.855   3.607  1.3183 -0.0363  1.0346
  177MOL   C13246244   3.057   2.695   3.736 -0.3473  0.0201  0.9910
  177MOL   C13346245   3.148   2.788   3.814  0.0089 -0.6152 -0.1579
  177MOL   C13446246   3.115   2.825   3.953 -0.3423  0.5097 -0.7485
  177MOL   C13546247   3.103   2.925   3.848  0.1480  0.1292 -0.2631
  177MOL   C13646248   3.117   2.551   3.724 -1.1784  0.6915 -0.2136
  177MOL   H13746249   2.963   2.683   3.790 -1.3544  2.5923 -0.1256
  177MOL   H13846250   3.253   2.790   3.787 -0.3963  0.0568 -1.7810
  177MOL   H13946251   3.026   2.780   3.995  1.1415 -1.1629  0.6886
  177MOL   H14046252   3.199   2.847   4.019  0.7087  1.5098 -2.3835
  177MOL   H14146253   3.003   2.956   3.818 -0.8295 -1.2091  1.4674
  177MOL   H14246254   3.173   3.008   3.857 -0.9673  0.9310  1.2984
  177MOL   H14346255   3.050   2.492   3.662 -0.6783 -0.2706  0.1506
  177MOL   H14446256   3.207   2.557   3.664 -1.3496  0.3994 -0.5021
  177MOL   C14546257   3.153   2.480   3.861 -0.3768 -0.3258 -0.1246
  177MOL   C14646258   3.027   2.472   3.952 -0.3928  0.6220 -0.1901
  177MOL   C14746259   2.928   2.354   3.966 -0.1195 -1.1556  0.2216
  177MOL   C14846260   3.017   2.389   4.078  0.1009  0.0892 -0.3704
  177MOL   C14946261   3.234   2.346   3.831  0.8139 -0.1891  0.9636
  177MOL   H15046262   3.211   2.555   3.915  1.1417 -2.7629  1.7219
  177MOL   H15146263   2.984   2.570   3.969 -2.0590 -0.5194  2.4987
  177MOL   H15246264   2.828   2.396   3.969  0.8478  1.2263  0.2534
  177MOL   H15346265   2.940   2.253   3.925  2.2124 -0.4576 -0.9071
  177MOL   H15446266   3.112   2.337   4.089 -0.0786 -0.3079 -0.6742
  177MOL   H15546267   2.987   2.449   4.164  1.5153 -2.8454  2.2820
  177MOL   H15646268   3.178   2.268   3.883 -1.6622 -0.4400 -1.9242
  177MOL   H15746269   3.231   2.309   3.729  0.4164  1.3268  0.4209
  177MOL   C15846270   3.382   2.341   3.877 -0.5039  0.2665 -0.2331
  177MOL   C15946271   3.465   2.429   3.774  0.7201 -0.9000  0.3127
  177MOL   C16046272   3.497   2.573   3.807 -0.0460 -0.8235  0.4708
  177MOL   C16146273   3.607   2.476   3.809 -0.5110 -0.3789 -0.2600
  177MOL   C16246274   3.447   2.191   3.896  0.3603  0.5015  0.3764
  177MOL   H16346275   3.391   2.381   3.978 -1.9893  0.9643 -0.3756
  177MOL   H16446276   3.452   2.406   3.669  1.4964 -1.3652  0.3190
  177MOL   H16546277   3.479   2.616   3.906 -1.4521  2.1110 -0.9945
  177MOL   H16646278   3.494   2.646   3.727 -1.7296 -1.5948 -0.1836
  177MOL   H16746279   3.692   2.480   3.742  0.9147 -0.9703  1.4964
  177MOL   H16846280   3.643   2.436   3.903 -1.4508  1.6791  1.0194
  177MOL   H16946281   3.391   2.143   3.976 -2.0672 -0.0709 -1.6289
  177MOL   H17046282   3.550   2.205   3.931  1.4496 -0.1456 -2.5017
  177MOL   C17146283   3.439   2.085   3.784  0.0428 -0.1755  0.4074
  177MOL   C17246284   3.577   2.049   3.730  0.6525  0.0156 -0.0158
  177MOL   C17346285   3.623   2.004   3.598  0.3372 -0.4969 -0.5830
  177MOL   C17446286   3.656   2.143   3.643  0.0669  0.4029 -0.5071
  177MOL   C17546287   3.384   1.947   3.827 -0.2943 -0.6952 -0.0219
  177MOL   H17646288   3.377   2.127   3.704  1.3735  0.5228 -0.2621
  177MOL   H17746289   3.635   2.000   3.808  0.6645  1.7365  1.0975
  177MOL   H17846290   3.709   1.938   3.592  1.0993  0.3322  0.9238
  177MOL   H17946291   3.552   1.997   3.516 -0.5304  0.1398  0.1082
  177MOL   H18046292   3.605   2.228   3.597  0.3763 -0.3641 -2.3342
  177MOL   H18146293   3.742   2.159   3.708 -0.3600  0.7886 -0.0391
  177MOL   H18246294   3.447   1.917   3.910  0.1288 -0.5556 -0.2903
  177MOL   H18346295   3.417   1.880   3.748  0.3270  2.1128 -2.2393
  177MOL   C18446296   3.232   1.944   3.849  0.1689 -0.1193  0.4718
  177MOL   C18546297   3.198   1.858   3.969  0.3113  0.5534  0.6126
  177MOL   C18646298   3.080   1.866   4.053  0.2985 -0.0645 -0.0742
  177MOL   C18746299   3.212   1.929   4.098  0.7597 -0.3460  0.4303
  177MOL   C18846300   3.138   1.908   3.733  0.0502 -0.1465  0.2015
  177MOL   H18946301   3.198   2.046   3.859 -0.5734 -0.3040 -0.1658
  177MOL   H19046302   3.221   1.752   3.956 -0.5752  0.3868  0.3844
  177MOL   H19146303   3.055   1.775   4.109  0.6696 -0.9794 -1.3724
  177MOL   H19246304   2.999   1.930   4.019  1.0989 -0.0151 -1.9234
  177MOL   H19346305   3.272   1.878   4.173  2.2093 -0.2786 -0.6509
  177MOL   H19446306   3.223   2.037   4.095 -4.1811  0.2501 -0.8623
  177MOL   H19546307   3.037   1.894   3.772 -0.4572  2.3442 -0.1156
  177MOL   H19646308   3.168   1.813   3.689  0.3734 -0.0294  0.1687
  177MOL   C19746309   3.135   2.008   3.612 -0.6495 -0.9932  0.7629
  177MOL   C19846310   2.995   2.006   3.553 -0.3027  0.3659 -0.6953
  177MOL   C19946311   2.928   2.134   3.517  0.1045  0.3508 -0.0856
  177MOL   C20046312   2.866   2.042   3.623 -0.5299  0.7901 -1.5178
  177MOL   C20146313   3.232   1.958   3.492 -0.7247 -0.1619 -0.3074
  177MOL   H20246314   3.154   2.110   3.645 -0.3037 -1.1746  1.1331
  177MOL   H20346315   2.972   1.910   3.509  2.7576 -1.0669  0.6728
  177MOL   H20446316   2.968   2.228   3.554 -0.5012 -0.2302  2.1323
  177MOL   H20546317   2.886   2.136   3.417 -1.5556 -2.2831  0.5121
  177MOL   H20646318   2.861   2.083   3.724 -0.8737 -0.1700 -1.1389
  177MOL   H20746319   2.777   1.985   3.599  0.2622 -2.8239  3.3798
  177MOL   H20846320   3.332   1.927   3.521 -0.4125  0.4465 -0.7291
  177MOL   H20946321   3.199   1.857   3.466  1.5359 -1.4715  1.7258
  177MOL   C21046322   3.228   2.047   3.364 -0.7347  0.1151  0.5310
  177MOL   C21146323   3.306   2.182   3.376  0.4616 -0.3988 -0.2496
  177MOL   C21246324   3.299   2.306   3.294  0.5417 -0.0471 -0.3145
  177MOL   C21346325   3.233   2.299   3.432  0.3431 -0.8321 -0.0012
  177MOL   C21446326   3.270   1.965   3.239 -0.0630  0.8865 -0.5092
  177MOL   H21546327   3.124   2.077   3.347 -0.6060  0.7784  0.9063
  177MOL   H21646328   3.411   2.166   3.399  1.3224  1.8503 -2.3136
  177MOL   H21746329   3.397   2.352   3.283  0.2617 -0.0331 -3.3925
  177MOL   H21846330   3.224   2.304   3.215  0.8458  1.6963 -0.6629
  177MOL   H21946331   3.287   2.371   3.493 -0.9916 -2.2613  3.0045
  177MOL   H22046332   3.124   2.293   3.441  0.4828 -0.1955  2.3447
  177MOL   H22146333   3.372   1.935   3.264  0.1231  0.3400 -1.8403
  177MOL   H22246334   3.222   1.869   3.255  0.2880  1.0681  1.8039
  177MOL   C22346335   3.229   2.021   3.103 -0.1468  0.4591  0.2675
  177MOL   C22446336   3.076   2.002   3.080  0.2307  0.1416  0.5633
  177MOL   C22546337   2.978   2.124   3.116 -0.5802 -0.8132 -0.3413
  177MOL   C22646338   3.006   2.080   2.975 -0.1412 -0.3739 -0.4531
  177MOL   C22746339   3.300   1.946   2.985 -0.2133  0.2721  0.5538
  177MOL   H22846340   3.277   2.119   3.106  0.4610  0.2321 -1.2336
  177MOL   H22946341   3.048   1.898   3.093  2.0312 -0.2914  1.0992
  177MOL   H23046342   3.016   2.221   3.148 -0.3060 -0.5856 -1.3206
  177MOL   H23146343   2.895   2.089   3.177 -1.9251  0.6049 -1.3183
  177MOL   H23246344   2.919   2.035   2.926 -2.0176  2.4777  0.1682
  177MOL   H23346345   3.065   2.136   2.903 -0.2456 -0.1725 -0.3803
  177MOL   H23446346   3.257   1.846   2.979  0.6017 -0.0321 -0.6273
  177MOL   H23546347   3.268   1.995   2.893  1.0580 -1.8558 -1.0742
  177MOL   C23646348   3.458   1.949   2.990  0.2651 -0.7161 -0.2927
  177MOL   C23746349   3.508   2.089   2.992  0.5017 -0.3317 -0.3131
  177MOL   C23846350   3.559   2.152   3.118  0.1298 -0.9627 -0.0317
  177MOL   C23946351   3.655   2.134   2.997  0.7405  0.6810 -0.2429
  177MOL   C24046352   3.509   1.870   2.861 -0.1829  0.2325 -0.2906
  177MOL   H24146353   3.494   1.897   3.079 -0.5881  0.5656  0.8251
  177MOL   H24246354   3.448   2.160   2.935 -0.2620 -0.5238  0.2454
  177MOL   H24346355   3.539   2.256   3.141  0.5639 -0.1357 -3.1425
  177MOL   H24446356   3.584   2.084   3.199  1.5189  0.3236  0.6318
  177MOL   H24546357   3.732   2.058   2.996  0.0627 -0.0321  0.7695
  177MOL   H24646358   3.676   2.223   2.938  0.1715  1.1202  0.2071
  177MOL   H24746359   3.464   1.921   2.776  1.0586  1.2801 -0.3430
  177MOL   H24846360   3.614   1.894   2.849  0.4587 -2.1402  0.4005
  177MOL   C24946361   3.477   1.715   2.850 -0.0676  0.3564 -0.7927
  177MOL   C25046362   3.533   1.620   2.952 -0.5221  0.5883  0.0376
  177MOL   C25146363   3.478   1.619   3.090  0.4818  0.8667 -0.2182
  177MOL   C25246364   3.481   1.491   3.005 -0.5033  0.5997 -0.1062
  177MOL   C25346365   3.518   1.669   2.709 -0.4147 -0.1065 -0.0732
  177MOL   H25446366   3.369   1.697   2.853  0.0387 -0.4363 -1.6197
  177MOL   H25546367   3.641   1.608   2.946 -0.4267  0.7809  1.2347
  177MOL   H25646368   3.550   1.627   3.171 -0.4758 -0.3554  0.7687
  177MOL   H25746369   3.380   1.664   3.109 -0.0051 -0.3059  0.0976
  177MOL   H25846370   3.561   1.421   3.028 -1.7439 -0.5543  0.7972
  177MOL   H25946371   3.387   1.447   2.972  0.1668 -1.2582  0.3980
  177MOL   H26046372   3.465   1.577   2.687 -0.7975 -0.6713  3.0134
  177MOL   H26146373   3.624   1.647   2.693 -0.0558  0.4768  1.3956
  177MOL   H26246374   3.475   1.739   2.637  0.1706  0.2078 -0.1268
  178MOL     C146375   5.295   1.550   0.795 -0.3940 -0.0826  0.3175
  178MOL     C246376   5.345   1.537   0.648  0.5102 -0.6120 -0.5935
  178MOL     C346377   5.475   1.607   0.613  0.3689 -0.5680 -0.3860
  178MOL     C446378   5.347   1.653   0.552 -0.2216  0.0976 -0.5923
  178MOL     C546379   5.356   1.442   0.883 -0.2246 -0.3935  0.3578
  178MOL     H646380   5.325   1.648   0.832  2.5146 -1.0137  0.6032
  178MOL     H746381   5.317   1.441   0.604 -1.6409 -1.4492  2.3806
  178MOL     H846382   5.536   1.651   0.692  0.0158  0.6554 -0.7707
  178MOL     H946383   5.534   1.551   0.541 -0.3940 -0.6512 -0.9582
  178MOL    H1046384   5.321   1.631   0.449  1.6174 -0.8154 -0.8868
  178MOL    H1146385   5.294   1.742   0.586 -1.7486 -0.5817 -1.1624
  178MOL    H1246386   5.462   1.467   0.885  0.0036 -1.1650 -1.2462
  178MOL    H1346387   5.341   1.343   0.839  0.5239 -0.5996  0.5434
  178MOL    H1446388   5.188   1.552   0.813 -0.4403  0.8435 -0.0677
  178MOL    C1546389   5.294   1.447   1.026  0.2671  0.9337  0.5435
  178MOL    C1646390   5.338   1.319   1.103 -0.2198  1.0858  0.8591
  178MOL    C1746391   5.302   1.183   1.037 -0.5252 -0.3488 -0.3930
  178MOL    C1846392   5.233   1.224   1.159  0.4386 -1.3264 -0.0815
  178MOL    C1946393   5.327   1.573   1.103  0.2856 -0.4184  0.5559
  178MOL    H2046394   5.186   1.443   1.015  0.1717 -1.0787  1.8983
  178MOL    H2146395   5.438   1.324   1.144 -0.1453 -3.1801  1.4231
  178MOL    H2246396   5.369   1.098   1.053 -0.6330  0.0893  2.7723
  178MOL    H2346397   5.236   1.173   0.952  0.2309 -2.6555 -0.7557
  178MOL    H2446398   5.128   1.250   1.160  0.6133 -0.6042 -0.2343
  178MOL    H2546399   5.256   1.178   1.255 -0.9760  1.0051  1.4094
  178MOL    H2646400   5.283   1.660   1.055 -0.5734 -1.3576 -0.3752
  178MOL    H2746401   5.435   1.587   1.096  0.2022 -0.4984 -0.8553
  178MOL    C2846402   5.264   1.592   1.244  0.1543 -0.1152 -0.9658
  178MOL    C2946403   5.151   1.697   1.240  0.6473 -0.1361  0.3508
  178MOL    C3046404   5.016   1.654   1.168 -0.5317  0.1494 -0.0928
  178MOL    C3146405   5.026   1.676   1.319 -0.4333 -0.5377 -0.3646
  178MOL    C3246406   5.374   1.614   1.346  0.1069 -0.3604 -0.3061
  178MOL    H3346407   5.215   1.500   1.279 -2.0528  1.2883 -0.2717
  178MOL    H3446408   5.187   1.798   1.223 -2.2049  0.9028  0.2225
  178MOL    H3546409   5.011   1.551   1.134  0.5010 -0.1117  0.5351
  178MOL    H3646410   4.979   1.732   1.101 -4.4653 -1.5625 -0.0128
  178MOL    H3746411   5.036   1.590   1.385  0.8756  1.9471  2.8036
  178MOL    H3846412   4.967   1.758   1.360 -0.7512 -1.7355  1.6318
  178MOL    H3946413   5.430   1.699   1.306  0.8333  0.1588  1.7441
  178MOL    H4046414   5.448   1.534   1.354  0.1933 -0.1358  1.3875
  178MOL    C4146415   5.334   1.643   1.495  0.1003  0.4195 -0.4439
  178MOL    C4246416   5.437   1.724   1.577 -1.1436 -0.4188  0.3892
  178MOL    C4346417   5.404   1.817   1.687 -0.5218 -0.0307 -0.1115
  178MOL    C4446418   5.467   1.867   1.559  0.2623  0.1401 -0.1803
  178MOL    C4546419   5.309   1.507   1.569 -0.0419  0.0985 -0.0888
  178MOL    H4646420   5.244   1.704   1.489  1.3126  2.2947 -0.1859
  178MOL    H4746421   5.522   1.659   1.599  0.5970  1.0328 -1.8047
  178MOL    H4846422   5.298   1.826   1.708 -0.4022  0.1579  0.4270
  178MOL    H4946423   5.469   1.824   1.774  3.3204  2.9743 -3.0066
  178MOL    H5046424   5.570   1.902   1.566 -0.1982  1.3694  0.7299
  178MOL    H5146425   5.409   1.932   1.493  0.9709 -0.8246 -1.7656
  178MOL    H5246426   5.400   1.450   1.586 -0.7438 -1.5945 -1.8363
  178MOL    H5346427   5.266   1.449   1.488 -0.5287  0.4686 -0.0972
  178MOL    C5446428   5.217   1.488   1.686  0.2665 -0.2203 -0.1267
  178MOL    C5546429   5.152   1.351   1.671 -0.1308  0.6583  0.0735
  178MOL    C5646430   5.027   1.324   1.584 -0.5011  0.5330 -0.2427
  178MOL    C5746431   5.022   1.329   1.729  0.1625  0.2127 -0.9218
  178MOL    C5846432   5.287   1.496   1.824 -0.0789 -0.2132 -0.3550
  178MOL    H5946433   5.138   1.562   1.676  2.2647  1.7741 -1.3757
  178MOL    H6046434   5.223   1.269   1.680 -0.3682  0.5616  1.0977
  178MOL    H6146435   5.025   1.411   1.518  0.1001  0.6024 -0.1746
  178MOL    H6246436   5.021   1.232   1.528 -1.4049 -0.0364  0.7641
  178MOL    H6346437   4.982   1.237   1.771  0.7742 -0.1172 -1.0494
  178MOL    H6446438   4.949   1.405   1.753 -1.0370 -1.4069  0.6875
  178MOL    H6546439   5.342   1.403   1.836  0.5173  0.0381 -1.0724
  178MOL    H6646440   5.358   1.578   1.834  0.9524 -1.2604  0.9554
  178MOL    C6746441   5.194   1.515   1.945  0.5164 -0.2784 -1.1468
  178MOL    C6846442   5.263   1.517   2.089 -0.5576 -0.2566 -0.0841
  178MOL    C6946443   5.409   1.475   2.092  0.2332 -0.1589  0.5026
  178MOL    C7046444   5.371   1.625   2.116  0.1147  0.0521  0.0397
  178MOL    C7146445   5.107   1.644   1.939 -0.3585  0.3257 -0.1309
  178MOL    H7246446   5.137   1.422   1.951  0.8472 -0.3998  0.4979
  178MOL    H7346447   5.194   1.481   2.166 -0.7745 -0.2258 -0.2633
  178MOL    H7446448   5.440   1.425   2.183 -1.7733  0.2227  1.4349
  178MOL    H7546449   5.454   1.451   1.996 -0.4214 -0.6064  0.3022
  178MOL    H7646450   5.403   1.695   2.038 -0.2147  0.2842  0.1096
  178MOL    H7746451   5.381   1.653   2.220 -1.0794 -1.6215  0.6254
  178MOL    H7846452   5.050   1.633   1.847  1.3344 -0.1364 -1.1479
  178MOL    H7946453   5.158   1.740   1.936  0.2571 -0.0033 -0.3246
  178MOL    C8046454   4.996   1.639   2.045 -0.0499 -0.2697 -0.2131
  178MOL    C8146455   4.900   1.523   2.038 -0.9906  0.2863  0.6172
  178MOL    C8246456   4.792   1.491   2.137  0.7710  0.5302 -0.0317
  178MOL    C8346457   4.908   1.399   2.118  0.1194  0.1560  0.7328
  178MOL    C8446458   4.916   1.778   2.045 -0.5276  0.2585  0.0598
  178MOL    H8546459   5.053   1.631   2.138 -1.0017 -2.7694  0.2072
  178MOL    H8646460   4.861   1.510   1.937  1.3227  0.4824 -0.3248
  178MOL    H8746461   4.699   1.447   2.100  0.3416  2.1003 -0.8903
  178MOL    H8846462   4.781   1.545   2.231 -3.3855  0.8836 -0.5886
  178MOL    H8946463   4.982   1.400   2.198  0.3454 -1.7660  0.5808
  178MOL    H9046464   4.885   1.305   2.069 -0.0357 -0.0068  1.1170
  178MOL    H9146465   4.908   1.812   1.941  0.3246 -1.8277 -0.7163
  178MOL    H9246466   4.815   1.752   2.077  0.0231 -3.3076 -0.8300
  178MOL    C9346467   4.972   1.885   2.135 -0.6114 -0.3340  0.0970
  178MOL    C9446468   4.914   2.015   2.101 -0.3367 -0.3095  0.1605
  178MOL    C9546469   5.002   2.142   2.105  0.2623 -0.5086  0.2780
  178MOL    C9646470   4.956   2.081   1.968 -0.3806 -0.6294 -0.2200
  178MOL    C9746471   4.935   1.856   2.290 -0.2675  0.1532  0.3578
  178MOL    H9846472   5.080   1.893   2.124 -0.3965 -0.3986  1.9786
  178MOL    H9946473   4.815   2.033   2.142 -0.8911 -1.3728 -0.6873
  178MOL   H10046474   4.952   2.239   2.112  0.6772 -0.2428 -0.4090
  178MOL   H10146475   5.110   2.131   2.112  0.0995 -3.2015 -0.7737
  178MOL   H10246476   4.876   2.138   1.921  1.2369  0.7046 -1.3749
  178MOL   H10346477   5.031   2.036   1.903  0.0284  1.3350 -1.1436
  178MOL   H10446478   4.966   1.754   2.314 -0.9844 -0.8537 -2.8114
  178MOL   H10546479   4.826   1.848   2.297 -0.5525  2.3094 -1.1573
  178MOL   C10646480   4.979   1.955   2.393  0.0645 -0.2980 -0.5223
  178MOL   C10746481   4.884   1.950   2.517 -0.1008  0.4355  0.5623
  178MOL   C10846482   4.839   2.056   2.610  0.7241 -0.0385 -0.3232
  178MOL   C10946483   4.742   2.008   2.503 -0.5335  0.0610  0.0225
  178MOL   C11046484   5.121   1.922   2.448  0.1384  0.0036  0.1859
  178MOL   H11146485   4.971   2.058   2.359 -0.8558 -0.0399  0.4228
  178MOL   H11246486   4.874   1.851   2.562 -1.5281  0.4348  0.2642
  178MOL   H11346487   4.828   2.024   2.713 -1.3292  0.6462 -0.2984
  178MOL   H11446488   4.853   2.162   2.594 -1.4435  0.5694  1.6021
  178MOL   H11546489   4.736   2.071   2.415 -0.3253  1.4092  0.9675
  178MOL   H11646490   4.660   1.938   2.521 -0.0660 -1.3600 -3.0825
  178MOL   H11746491   5.109   1.820   2.486 -0.9032 -0.4693 -1.3502
  178MOL   H11846492   5.189   1.915   2.363  0.9192 -2.8980  0.9888
  178MOL   C11946493   5.183   2.021   2.557 -0.1621 -0.3796 -0.1476
  178MOL   C12046494   5.316   1.966   2.594  0.4997 -0.2497 -0.5527
  178MOL   C12146495   5.337   1.836   2.669 -0.0176 -0.1379  0.3334
  178MOL   C12246496   5.378   1.975   2.725 -0.2327 -0.1501  0.0966
  178MOL   C12346497   5.195   2.160   2.501 -0.5860 -0.3892  0.6236
  178MOL   H12446498   5.125   2.015   2.649 -1.9254  0.5720 -1.1763
  178MOL   H12546499   5.396   1.992   2.525  0.3402  2.1704  0.1234
  178MOL   H12646500   5.414   1.773   2.626 -0.8414 -1.3192  0.5845
  178MOL   H12746501   5.255   1.785   2.720  0.0913 -0.9935 -0.3462
  178MOL   H12846502   5.338   1.984   2.826  2.1042  0.5886  0.9920
  178MOL   H12946503   5.483   2.002   2.728 -0.3060  0.1734 -0.2650
  178MOL   H13046504   5.242   2.160   2.403  0.2215  0.5485  1.0103
  178MOL   H13146505   5.097   2.207   2.487 -0.4156  0.3676  1.9344
  178MOL   C13246506   5.261   2.266   2.594 -0.6182  0.6335 -0.2472
  178MOL   C13346507   5.161   2.301   2.711 -0.2592 -0.0846  0.1932
  178MOL   C13446508   5.200   2.395   2.825 -0.9802  0.7231 -0.4636
  178MOL   C13546509   5.184   2.244   2.843  0.5669  0.4864 -0.3539
  178MOL   C13646510   5.299   2.391   2.506  0.4845 -0.0746 -0.0047
  178MOL   H13746511   5.351   2.220   2.634 -1.1717 -2.1940 -2.0990
  178MOL   H13846512   5.059   2.299   2.673 -0.5740  2.2584  0.8781
  178MOL   H13946513   5.305   2.415   2.841 -0.0385 -3.7592 -0.5224
  178MOL   H14046514   5.130   2.461   2.876  2.0161  2.2030  1.8242
  178MOL   H14146515   5.272   2.197   2.886  0.0369  0.8747  1.1689
  178MOL   H14246516   5.098   2.220   2.906  1.1363 -0.3179  0.1171
  178MOL   H14346517   5.234   2.404   2.419  0.7665 -0.7170 -0.3174
  178MOL   H14446518   5.303   2.484   2.561  1.6569 -0.6017  0.8053
  178MOL   C14546519   5.440   2.366   2.447 -0.0166  0.1295 -0.0358
  178MOL   C14646520   5.449   2.426   2.304 -0.1269 -0.1754 -0.0784
  178MOL   C14746521   5.528   2.362   2.192 -0.1763 -0.4429  0.2766
  178MOL   C14846522   5.375   2.359   2.194 -0.1207  0.1402  0.5851
  178MOL   C14946523   5.546   2.437   2.538 -0.4835 -0.1908  0.0280
  178MOL   H15046524   5.449   2.259   2.432 -0.0113  0.4847 -2.8283
  178MOL   H15146525   5.458   2.534   2.299 -0.9511 -0.1547 -1.3611
  178MOL   H15246526   5.568   2.440   2.127  0.1992 -1.2234 -0.4370
  178MOL   H15346527   5.581   2.268   2.203  2.0788  0.3233 -3.3419
  178MOL   H15446528   5.326   2.263   2.212  1.2116 -1.0639 -2.0527
  178MOL   H15546529   5.327   2.423   2.121  1.5416  3.0049  1.9016
  178MOL   H15646530   5.536   2.543   2.518  0.7541 -0.0956 -0.1672
  178MOL   H15746531   5.508   2.424   2.639 -2.8533  1.8936 -0.5651
  178MOL   C15846532   5.692   2.386   2.518  0.3030 -0.0433  0.2830
  178MOL   C15946533   5.719   2.252   2.589  0.5527 -0.7918 -0.5676
  178MOL   C16046534   5.685   2.124   2.521  0.0752  0.4335 -0.0635
  178MOL   C16146535   5.823   2.161   2.536 -0.6575 -0.1147  0.6120
  178MOL   C16246536   5.788   2.493   2.574 -0.1376 -0.9602  0.3951
  178MOL   H16346537   5.714   2.377   2.412  3.4110 -0.9565  0.9482
  178MOL   H16446538   5.705   2.260   2.697  2.8639  2.6681 -0.4350
  178MOL   H16546539   5.649   2.120   2.418 -0.5785 -0.3099  0.1912
  178MOL   H16646540   5.659   2.042   2.587  0.2225 -2.2550 -3.1824
  178MOL   H16746541   5.882   2.105   2.608  0.3863 -0.2221 -0.3262
  178MOL   H16846542   5.873   2.180   2.442 -3.4307  0.9203 -0.7281
  178MOL   H16946543   5.851   2.450   2.651 -1.1993  2.5766  3.3355
  178MOL   H17046544   5.725   2.559   2.633 -2.3758 -2.1733 -0.5414
  178MOL   C17146545   5.862   2.574   2.462 -0.1115 -0.4784 -0.4973
  178MOL   C17246546   5.947   2.476   2.376  0.0052  0.1754 -0.7821
  178MOL   C17346547   6.092   2.503   2.344 -0.1261  0.0400 -0.0329
  178MOL   C17446548   6.058   2.393   2.443  0.0080  0.0361  0.4451
  178MOL   C17546549   5.779   2.667   2.375  0.3933  0.5997 -0.3153
  178MOL   H17646550   5.928   2.636   2.523 -0.6900 -0.5690  0.2225
  178MOL   H17746551   5.893   2.414   2.305 -1.7518  1.0890 -0.2772
  178MOL   H17846552   6.136   2.474   2.249 -2.5968 -0.2908 -1.1152
  178MOL   H17946553   6.138   2.591   2.389  0.2794  0.2291 -0.8027
  178MOL   H18046554   6.097   2.419   2.541  0.3416 -2.3653  0.9756
  178MOL   H18146555   6.071   2.290   2.411  0.4146  0.9687 -2.5469
  178MOL   H18246556   5.690   2.703   2.425  0.3085 -0.6156  0.4403
  178MOL   H18346557   5.728   2.615   2.294 -0.5053  0.8484  0.0936
  178MOL   C18446558   5.867   2.788   2.318 -1.0569  0.6005 -0.0426
  178MOL   C18546559   5.907   2.886   2.423 -0.4473 -0.2268  0.1751
  178MOL   C18646560   6.031   2.976   2.420 -0.0450  0.0432  0.6343
  178MOL   C18746561   6.020   2.864   2.523  0.2002 -0.7966  0.2753
  178MOL   C18846562   5.799   2.849   2.192 -1.0989 -0.1098 -1.1800
  178MOL   H18946563   5.965   2.755   2.282 -1.2831 -1.0647  0.7931
  178MOL   H19046564   5.819   2.941   2.454 -0.4063  0.3281 -0.6821
  178MOL   H19146565   6.032   3.083   2.443  0.2591  0.4972 -1.3341
  178MOL   H19246566   6.093   2.959   2.332 -0.9001  0.1250  0.0098
  178MOL   H19346567   5.994   2.886   2.626  0.5808  1.5222 -0.0886
  178MOL   H19446568   6.091   2.783   2.508  1.8922  0.6206  0.4072
  178MOL   H19546569   5.823   2.955   2.199 -2.1646 -0.0524  2.6808
  178MOL   H19646570   5.691   2.838   2.198 -1.4794  3.6182  0.0827
  178MOL   C19746571   5.841   2.795   2.053  0.3324 -0.0263 -0.3359
  178MOL   C19846572   5.770   2.881   1.948  0.5015 -0.5863 -0.6357
  178MOL   C19946573   5.843   2.907   1.816 -0.5585 -0.2760 -0.1868
  178MOL   C20046574   5.810   3.022   1.911  0.1743  0.2204 -0.7172
  178MOL   C20146575   5.811   2.642   2.037 -0.0485  0.3682 -0.0737
  178MOL   H20246576   5.948   2.812   2.045  0.8102 -1.8774  1.6170
  178MOL   H20346577   5.662   2.883   1.942  0.5427 -1.1234 -1.7352
  178MOL   H20446578   5.951   2.896   1.804 -0.5513 -1.7157  1.0979
  178MOL   H20546579   5.786   2.895   1.724  0.3752 -0.2129 -0.7806
  178MOL   H20646580   5.894   3.071   1.961 -0.4829 -0.3917  1.0384
  178MOL   H20746581   5.727   3.084   1.879 -1.0728 -1.3186 -0.5123
  178MOL   H20846582   5.837   2.595   2.132 -1.2374 -1.1693 -0.4825
  178MOL   H20946583   5.704   2.633   2.019  0.0341  0.3508 -0.5693
  178MOL   C21046584   5.876   2.564   1.914 -0.1183 -0.1065 -0.2583
  178MOL   C21146585   6.021   2.555   1.941 -0.0775 -0.4574 -0.2239
  178MOL   C21246586   6.114   2.543   1.824  0.2615 -0.3329 -0.3459
  178MOL   C21346587   6.129   2.659   1.917 -0.7811 -0.5867 -0.5673
  178MOL   C21446588   5.803   2.433   1.893 -0.6243 -0.3012 -0.2572
  178MOL   H21546589   5.855   2.626   1.828 -0.4530  1.5664  0.9984
  178MOL   H21646590   6.040   2.486   2.022  0.1391  0.0280  0.1398
  178MOL   H21746591   6.186   2.462   1.831  3.8931  2.7977  0.0621
  178MOL   H21846592   6.081   2.564   1.723  0.9649 -3.5829 -1.3162
  178MOL   H21946593   6.224   2.643   1.967  1.0550 -1.1913 -4.0649
  178MOL   H22046594   6.107   2.759   1.882 -0.1050 -0.2113  0.0660
  178MOL   H22146595   5.843   2.363   1.967 -0.4152  0.4392  0.3395
  178MOL   H22246596   5.696   2.441   1.913 -0.6564  0.5677 -0.7440
  178MOL   C22346597   5.821   2.349   1.762 -0.2796 -0.3562 -0.5312
  178MOL   C22446598   5.751   2.423   1.649  0.2392  0.7058  0.3354
  178MOL   C22546599   5.822   2.521   1.561 -0.6741 -0.9168 -0.1274
  178MOL   C22646600   5.794   2.390   1.507  0.2719  0.1285 -0.0246
  178MOL   C22746601   5.770   2.200   1.759 -0.6077  0.4763 -0.4429
  178MOL   H22846602   5.927   2.342   1.739 -0.3183 -0.4732 -0.6684
  178MOL   H22946603   5.644   2.437   1.664  0.1827  2.2152 -1.2465
  178MOL   H23046604   5.928   2.540   1.576 -0.8954  0.9191 -0.8607
  178MOL   H23146605   5.770   2.602   1.511 -0.2156 -0.8385 -0.4777
  178MOL   H23246606   5.721   2.367   1.429 -0.3114 -1.9636  1.1091
  178MOL   H23346607   5.875   2.318   1.503 -0.3054 -0.4766 -0.9050
  178MOL   H23446608   5.677   2.213   1.814 -0.3538 -0.6809  0.2713
  178MOL   H23546609   5.748   2.172   1.656  0.6757 -1.4735 -0.2110
  178MOL   C23646610   5.842   2.088   1.840  0.3541  0.1407  0.3241
  178MOL   C23746611   5.864   1.969   1.743 -0.3120  0.3030  0.0600
  178MOL   C23846612   5.952   1.996   1.621  0.2740  0.2439  0.0517
  178MOL   C23946613   6.006   1.905   1.733  0.2067 -0.1676  0.5201
  178MOL   C24046614   5.767   2.040   1.970  0.4663 -0.3071 -0.2353
  178MOL   H24146615   5.941   2.125   1.865  0.2221  0.4378  0.4046
  178MOL   H24246616   5.775   1.906   1.736 -0.7913  1.1543 -1.8438
  178MOL   H24346617   5.917   1.949   1.530  0.6592 -2.0561  1.0509
  178MOL   H24446618   5.976   2.102   1.617 -2.4971  0.9533  1.1139
  178MOL   H24546619   6.092   1.920   1.798  1.7148 -0.6920 -1.3073
  178MOL   H24646620   6.006   1.798   1.714 -3.7123  0.0959 -1.4212
  178MOL   H24746621   5.732   2.127   2.026 -1.4593 -0.6997 -0.7797
  178MOL   H24846622   5.680   1.986   1.933  1.0938 -1.1900 -0.4439
  178MOL   C24946623   5.855   1.951   2.063  0.0316  0.0701  0.3733
  178MOL   C25046624   5.770   1.887   2.175 -0.5604  0.7030  0.7600
  178MOL   C25146625   5.713   1.755   2.170  0.3658 -0.1517 -0.7525
  178MOL   C25246626   5.830   1.773   2.250 -0.5096 -0.3395  0.2694
  178MOL   C25346627   5.980   2.031   2.116  0.9772 -0.4327 -0.0794
  178MOL   H25446628   5.892   1.875   1.994 -0.2796  0.7357 -0.5431
  178MOL   H25546629   5.718   1.962   2.233 -2.1692  0.9091 -0.9053
  178MOL   H25646630   5.632   1.719   2.234  0.7409  1.5593  0.7480
  178MOL   H25746631   5.729   1.688   2.086  0.9241  0.5141 -1.1809
  178MOL   H25846632   5.814   1.765   2.358 -1.4485  0.1613  0.1689
  178MOL   H25946633   5.922   1.733   2.209 -1.3110 -1.2687 -0.6283
  178MOL   H26046634   6.045   2.057   2.033  0.0087 -1.5331 -1.1865
  178MOL   H26146635   6.037   1.992   2.201  0.0833  1.2179  1.3022
  178MOL   H26246636   5.948   2.122   2.167  1.4617  0.9014 -2.1178
  179MOL     C146637   3.092   7.169   6.685 -0.0303  0.6976  0.2152
  179MOL     C246638   3.219   7.195   6.596 -0.1708 -0.1802 -0.4561
  179MOL     C346639   3.342   7.259   6.655 -0.0408  0.2600  0.4003
  179MOL     C446640   3.257   7.337   6.561 -0.2967 -0.5610  0.5611
  179MOL     C546641   3.087   7.027   6.736 -0.6482 -0.0540 -0.8214
  179MOL     H646642   3.095   7.232   6.774 -0.5806 -0.3822  1.0078
  179MOL     H746643   3.227   7.131   6.508 -0.4583 -2.0330  0.8299
  179MOL     H846644   3.344   7.289   6.760  1.0445 -0.2950  0.5371
  179MOL     H946645   3.439   7.231   6.616 -0.5336 -1.1859  0.1938
  179MOL    H1046646   3.293   7.348   6.459 -0.6433 -0.8106  0.4113
  179MOL    H1146647   3.210   7.425   6.605  0.2407 -0.5114  1.0377
  179MOL    H1246648   3.171   7.042   6.805 -1.3263  3.2631 -0.6244
  179MOL    H1346649   3.114   6.947   6.668 -0.6619  0.1793 -1.1012
  179MOL    H1446650   3.000   7.191   6.631 -0.1064 -1.1867 -0.4417
  179MOL    C1546651   2.955   6.986   6.806  0.7208 -0.2635  0.0133
  179MOL    C1646652   2.837   7.000   6.708 -0.8334 -0.6183 -0.4817
  179MOL    C1746653   2.751   7.115   6.690  0.1558 -0.3240 -0.9661
  179MOL    C1846654   2.693   6.993   6.751  0.2134 -0.0100  0.6225
  179MOL    C1946655   2.950   6.839   6.852 -0.2206 -0.4767  0.6761
  179MOL    H2046656   2.939   7.057   6.887 -2.9639 -1.2618  0.2418
  179MOL    H2146657   2.842   6.936   6.620  1.8638 -1.5673  0.3220
  179MOL    H2246658   2.739   7.137   6.584 -1.4939 -0.7110 -0.8692
  179MOL    H2346659   2.766   7.198   6.759 -2.6843 -0.0203 -0.6860
  179MOL    H2446660   2.671   7.007   6.857  2.6666 -0.7275  1.2718
  179MOL    H2546661   2.642   6.905   6.713 -0.4229 -0.0708  1.6003
  179MOL    H2646662   2.954   6.772   6.767  1.6477  2.0405 -1.3101
  179MOL    H2746663   2.859   6.831   6.911  0.0004 -1.6814  0.8589
  179MOL    C2846664   3.061   6.801   6.945  0.4345  0.3526 -1.0383
  179MOL    C2946665   3.137   6.679   6.897 -0.1102 -0.3369  0.0903
  179MOL    C3046666   3.229   6.682   6.780 -0.3933 -0.2214 -0.3385
  179MOL    C3146667   3.283   6.646   6.912  0.1501 -0.5284 -0.2745
  179MOL    C3246668   3.007   6.779   7.086 -0.3624 -0.1954 -0.6149
  179MOL    H3346669   3.136   6.881   6.949  2.3533 -1.4223 -0.4093
  179MOL    H3446670   3.070   6.595   6.884 -0.0726 -0.7003  2.0928
  179MOL    H3546671   3.255   6.781   6.741 -0.2059 -1.9424 -4.9313
  179MOL    H3646672   3.210   6.608   6.703  1.1132 -0.6720 -0.2923
  179MOL    H3746673   3.337   6.716   6.976  1.0571 -0.2386 -1.3324
  179MOL    H3846674   3.308   6.543   6.936 -0.0883 -0.2445  1.2550
  179MOL    H3946675   2.939   6.694   7.096  0.7074 -0.8225  1.4967
  179MOL    H4046676   2.941   6.860   7.117 -0.5156 -0.6574  0.2895
  179MOL    C4146677   3.115   6.758   7.198  0.3137 -0.5756 -0.2504
  179MOL    C4246678   3.051   6.704   7.323 -0.3839 -0.2500  0.4420
  179MOL    C4346679   3.131   6.603   7.407 -0.1194 -0.8266  0.1430
  179MOL    C4446680   3.010   6.564   7.340 -0.3811  1.7174 -0.2015
  179MOL    C4546681   3.197   6.890   7.228  0.6168 -0.2578 -0.3948
  179MOL    H4646682   3.181   6.675   7.173 -1.0517 -1.7160 -0.1564
  179MOL    H4746683   3.021   6.781   7.394  1.3260  0.8885 -0.0491
  179MOL    H4846684   3.225   6.571   7.363 -0.9379 -1.0745 -1.4597
  179MOL    H4946685   3.137   6.611   7.515 -2.9209 -0.7130  0.3184
  179MOL    H5046686   2.917   6.534   7.389 -0.3368 -0.7028 -1.5033
  179MOL    H5146687   3.038   6.496   7.260  2.2571  1.7645  0.6637
  179MOL    H5246688   3.133   6.967   7.271  1.6552  0.3424  0.0898
  179MOL    H5346689   3.243   6.938   7.142 -0.0591 -0.9254 -1.1315
  179MOL    C5446690   3.319   6.865   7.331 -0.1513  0.0755 -0.6454
  179MOL    C5546691   3.447   6.846   7.247  0.2895  0.2338  0.3910
  179MOL    C5646692   3.495   6.710   7.215 -0.3104  0.0341 -0.2456
  179MOL    C5746693   3.575   6.799   7.309 -0.4158 -0.6176 -0.1262
  179MOL    C5846694   3.336   6.978   7.434  0.4278  0.2265 -0.3689
  179MOL    H5946695   3.307   6.775   7.391  0.7169  0.1958 -0.2897
  179MOL    H6046696   3.452   6.915   7.163 -1.0238  0.7148  0.7019
  179MOL    H6146697   3.437   6.625   7.250  1.6681 -0.6155  1.5615
  179MOL    H6246698   3.539   6.693   7.117  1.0535 -0.4403  0.4455
  179MOL    H6346699   3.666   6.843   7.270  1.1673 -2.3647  1.5474
  179MOL    H6446700   3.579   6.761   7.411  0.4778 -1.2875 -0.4044
  179MOL    H6546701   3.439   6.979   7.472 -0.0315  1.1854  0.9062
  179MOL    H6646702   3.329   7.079   7.392  1.1925  0.7644  0.7725
  179MOL    C6746703   3.238   6.963   7.557 -0.4505 -0.2815  0.1404
  179MOL    C6846704   3.316   6.927   7.673 -0.6863  0.1534 -0.1133
  179MOL    C6946705   3.258   6.828   7.774 -0.2371 -0.3384  0.1584
  179MOL    C7046706   3.376   6.797   7.694 -0.6810 -0.2652 -0.3349
  179MOL    C7146707   3.166   7.101   7.578 -0.0111  0.7375  0.7588
  179MOL    H7246708   3.158   6.891   7.536 -0.5758 -0.7271  2.0255
  179MOL    H7346709   3.399   6.993   7.694 -0.5712 -0.9668  3.1421
  179MOL    H7446710   3.278   6.846   0.041 -1.4946  1.2848  0.1342
  179MOL    H7546711   3.178   6.763   7.742  0.7883 -1.4232 -0.2154
  179MOL    H7646712   3.371   6.721   7.616  1.7497 -1.1130  0.2762
  179MOL    H7746713   3.470   6.796   7.749 -0.7840  1.4617 -0.0883
  179MOL    H7846714   3.126   7.140   7.484 -1.5623  0.1385  1.1668
  179MOL    H7946715   3.247   7.167   7.610  1.0967  0.8064 -2.0163
  179MOL    C8046716   3.047   7.103   7.680  0.0660 -0.2670  0.2824
  179MOL    C8146717   2.920   7.035   7.616 -0.2169 -0.2256 -0.6975
  179MOL    C8246718   2.816   6.981   7.718  0.9063 -0.5296  0.1153
  179MOL    C8346719   2.895   6.890   7.621 -0.0510  0.2264 -0.0545
  179MOL    C8446720   2.999   7.247   7.730 -0.3677  0.0497  0.2199
  179MOL    H8546721   3.061   7.058   7.779  0.0318 -1.0852 -0.0768
  179MOL    H8646722   2.881   7.080   7.525  0.1778  1.5367 -0.0298
  179MOL    H8746723   2.711   6.994   7.694  0.3724 -2.5646  1.1740
  179MOL    H8846724   2.836   6.978   7.825 -1.3651 -1.5986  0.5368
  179MOL    H8946725   2.979   6.831   7.657  0.4219  0.6445 -0.4854
  179MOL    H9046726   2.837   6.844   7.542  1.2625 -2.6460  0.5711
  179MOL    H9146727   3.031   7.323   7.659 -0.0662  0.6013  0.9490
  179MOL    H9246728   2.892   7.267   7.735  0.0860  2.8093 -0.2774
  179MOL    C9346729   3.065   7.303   0.025 -0.1337  0.0106 -0.4809
  179MOL    C9446730   3.215   7.330   0.011  0.4084  0.4429  1.4719
  179MOL    C9546731   3.293   7.317   0.142 -1.1785  0.4973 -0.2162
  179MOL    C9646732   3.307   7.211   0.036 -0.7393  0.7872  0.0037
  179MOL    C9746733   2.993   7.429   0.072  0.0756 -0.1904  0.4274
  179MOL    H9846734   3.053   7.227   0.102  0.1541 -0.6786 -1.1040
  179MOL    H9946735   3.233   7.393   7.764 -0.6730  1.6976  2.1407
  179MOL   H10046736   3.380   7.382   0.145  0.6711 -1.9385  0.6252
  179MOL   H10146737   3.246   7.304   0.239 -1.2782  2.4579  0.0093
  179MOL   H10246738   3.407   7.207   7.833  0.3853  0.4558  2.6328
  179MOL   H10346739   3.260   7.117   0.063  0.2008  0.8315  1.8321
  179MOL   H10446740   3.001   7.499   7.828  2.3230  0.2304  0.9550
  179MOL   H10546741   3.035   7.485   0.155 -0.9986  0.0238  0.8333
  179MOL   C10646742   2.841   7.424   0.113 -0.4338  0.0216 -0.5171
  179MOL   C10746743   2.826   7.362   0.244  0.1052 -0.1114 -0.5824
  179MOL   C10846744   2.704   7.269   0.256  0.2586 -0.2138 -0.3763
  179MOL   C10946745   2.842   7.207   0.263 -0.3684  0.1319  0.3648
  179MOL   C11046746   2.776   7.563   0.109 -0.3494  0.7013 -0.2779
  179MOL   H11146747   2.781   7.363   0.045 -2.1064  0.3718  0.6112
  179MOL   H11246748   2.855   7.423   0.329 -1.6359  1.2169 -0.9214
  179MOL   H11346749   2.648   7.270   0.349  0.5800  0.7902 -0.1830
  179MOL   H11446750   2.639   7.244   0.172 -0.0078 -0.2552 -0.1577
  179MOL   H11546751   2.876   7.147   0.178 -1.2666 -0.2852  0.2948
  179MOL   H11646752   2.861   7.156   0.357  1.1091 -3.0454 -1.5772
  179MOL   H11746753   2.676   7.565   0.152  0.7300 -1.0883  2.4810
  179MOL   H11846754   2.834   7.635   0.166  1.4762 -0.7644 -0.2279
  179MOL   C11946755   2.756   7.631   7.807 -0.5696 -0.1496 -0.5331
  179MOL   C12046756   2.627   7.586   7.744 -0.1056  0.2863  0.5159
  179MOL   C12146757   2.635   7.475   7.648  0.7840  0.3571 -0.0456
  179MOL   C12246758   2.595   7.619   7.605  0.5854 -0.2096  0.6200
  179MOL   C12346759   2.754   7.789   7.816 -0.7272 -0.0897  0.1024
  179MOL   H12446760   2.839   7.609   7.739 -0.6508 -0.5660 -0.4929
  179MOL   H12546761   2.535   7.585   7.803 -0.9550 -1.4976 -0.7858
  179MOL   H12646762   2.556   7.400   7.640  1.1631 -0.4215  2.9915
  179MOL   H12746763   2.736   7.437   7.633  0.4703 -0.8864  0.8877
  179MOL   H12846764   2.660   7.690   7.553 -0.3249 -0.4723 -0.8851
  179MOL   H12946765   2.489   7.637   7.592  0.8980  1.3436  0.0820
  179MOL   H13046766   2.695   7.831   7.734 -0.1319 -0.3089 -0.4419
  179MOL   H13146767   2.711   7.829   0.069  1.5998 -1.0288  1.6238
  179MOL   C13246768   2.892   0.033   7.819  0.1411 -0.3187  0.8663
  179MOL   C13346769   2.882   0.171   0.036  0.8065 -0.7152 -0.3053
  179MOL   C13446770   2.989   0.238   0.115 -0.2989  0.0046  0.2424
  179MOL   C13546771   2.859   0.193   0.180  0.0643 -0.7784  0.0177
  179MOL   C13646772   2.964   0.038   7.681  0.0668  0.5583 -0.0308
  179MOL   H13746773   2.960   7.820   0.048  1.5813 -0.6222 -0.7614
  179MOL   H13846774   2.833   0.229   7.797 -1.8221 -1.4050  0.7754
  179MOL   H13946775   3.066   0.169   0.147  1.4432  0.9162 -1.9319
  179MOL   H14046776   3.005   0.344   0.096 -0.2358  0.2065  1.3440
  179MOL   H14146777   2.867   0.104   0.243 -2.8062 -1.5421 -0.6121
  179MOL   H14246778   2.798   0.276   0.215 -1.1046 -1.6361  0.0446
  179MOL   H14346779   2.934   7.784   7.633  0.8925  0.5654 -0.5635
  179MOL   H14446780   2.913   0.115   7.623  0.9897  0.9441 -0.3288
  179MOL   C14546781   3.119   0.057   7.701 -0.2755  1.0181  0.3436
  179MOL   C14646782   3.181   7.779   7.771  0.1836 -0.4167 -0.2569
  179MOL   C14746783   3.326   7.781   7.810 -0.3014 -0.2931  0.2634
  179MOL   C14846784   3.225   7.785   0.082  1.1255 -0.5697 -0.7648
  179MOL   C14946785   3.191   0.082   7.570 -0.3382  1.0800 -0.5334
  179MOL   H15046786   3.141   0.147   7.759 -0.8739  1.0361  0.5496
  179MOL   H15146787   3.146   7.685   7.729  0.2959 -0.9366  0.8004
  179MOL   H15246788   3.380   7.686   7.806  1.0346  0.5172 -1.9703
  179MOL   H15346789   3.386   0.032   7.794 -1.3053  0.1563 -1.0778
  179MOL   H15446790   3.227   0.038   0.139 -1.1221  0.4762 -2.3069
  179MOL   H15546791   3.214   7.691   0.135  1.0622  0.7802  1.6834
  179MOL   H15646792   3.294   0.103   7.598 -0.1647 -2.1916  1.5124
  179MOL   H15746793   3.186   7.819   7.533  0.1022  0.4432  1.1377
  179MOL   C15846794   3.138   0.175   7.467  0.2979  0.1421  0.8134
  179MOL   C15946795   3.237   0.178   7.346  0.3893  0.3695  0.1276
  179MOL   C16046796   3.262   0.043   7.270 -0.1069 -0.0777 -0.4322
  179MOL   C16146797   3.189   0.161   7.205 -0.0734 -0.1436  0.5695
  179MOL   C16246798   3.113   0.311   7.527  0.6347  0.5761  0.5661
  179MOL   H16346799   3.049   0.126   7.426 -0.7971  1.0350  2.0683
  179MOL   H16446800   3.330   0.233   7.364  0.5511  1.3654 -3.3602
  179MOL   H16546801   3.211   7.796   7.313 -3.8771  0.6129 -3.3237
  179MOL   H16646802   3.367   0.026   7.247 -0.3492  1.6517 -2.9581
  179MOL   H16746803   3.246   0.205   7.124  1.0230  0.1381  1.4716
  179MOL   H16846804   3.085   0.142   7.178 -0.9526  0.6442  3.2411
  179MOL   H16946805   3.210   0.356   7.547  0.9678 -0.2316  0.7869
  179MOL   H17046806   3.057   0.299   7.621  0.2342  0.7443  0.3501
  179MOL   C17146807   3.034   0.405   7.427 -0.0783  0.0623 -0.4472
  179MOL   C17246808   2.886   0.378   7.453 -0.3971 -0.5832 -0.7024
  179MOL   C17346809   2.782   0.404   7.344  0.0920  0.5287  0.5591
  179MOL   C17446810   2.802   0.266   7.398  0.2518  0.2600 -0.3348
  179MOL   C17546811   3.078   0.555   7.428 -0.4178 -0.3704  0.3706
  179MOL   H17646812   3.069   0.379   7.327 -1.8574  2.1238 -1.6381
  179MOL   H17746813   2.860   0.421   7.550  2.2125  0.0160 -0.2500
  179MOL   H17846814   2.682   0.445   7.358 -0.7134 -0.9019 -0.8450
  179MOL   H17946815   2.830   0.418   7.248  1.1335 -1.4970  0.7660
  179MOL   H18046816   2.854   0.196   7.335 -0.8076  0.2513 -1.2165
  179MOL   H18146817   2.718   0.229   7.457  0.8960 -2.1547 -0.8796
  179MOL   H18246818   3.019   0.600   7.349 -0.5407  0.7789  1.0984
  179MOL   H18346819   3.180   0.570   7.392 -1.2739 -0.4986 -2.2106
  179MOL   C18446820   3.067   0.647   7.561  0.5057 -0.3674  0.5912
  179MOL   C18546821   3.081   0.571   7.690 -0.2438 -0.1392 -0.1383
  179MOL   C18646822   3.133   0.643   7.810  0.7852 -0.2580 -0.2112
  179MOL   C18746823   3.217   0.541   7.740  0.5710 -0.5612 -0.8428
  179MOL   C18846824   2.930   0.718   7.564 -0.3465  0.4063 -0.4258
  179MOL   H18946825   3.141   0.726   7.555  2.0306 -1.6392  2.2190
  179MOL   H19046826   3.006   0.493   7.701 -1.9398  1.3499 -0.9361
  179MOL   H19146827   3.104   0.618   0.073 -2.4979  4.7202  0.2546
  179MOL   H19246828   3.144   0.748   7.783  0.7592 -0.5342 -1.2960
  179MOL   H19346829   3.235   0.442   7.782  2.3892  0.6046  1.2347
  179MOL   H19446830   3.304   0.579   7.688 -0.0242 -1.1293 -2.2700
  179MOL   H19546831   2.907   0.749   7.666  1.6806  1.8610 -0.3772
  179MOL   H19646832   2.856   0.646   7.529  1.9026 -1.3089 -1.8123
  179MOL   C19746833   2.898   0.832   7.465  0.6719  0.6174  0.6020
  179MOL   C19846834   2.952   0.967   7.518  0.7524 -0.3975  0.4377
  179MOL   C19946835   2.988   1.071   7.420  0.6748  0.6705  0.0752
  179MOL   C20046836   3.097   1.026   7.519  0.4840 -0.6502 -0.4478
  179MOL   C20146837   2.747   0.843   7.450 -0.2271  0.0385  0.1061
  179MOL   H20246838   2.936   0.813   7.365  1.5048  1.0566  0.8314
  179MOL   H20346839   2.904   1.011   7.605 -0.3895 -0.0311 -0.3652
  179MOL   H20446840   3.006   1.045   7.316 -1.0418 -0.5899  0.0755
  179MOL   H20546841   2.945   1.168   7.445  1.2169  0.5806  1.4112
  179MOL   H20646842   3.176   0.961   7.483  0.4990  0.1268 -1.8372
  179MOL   H20746843   3.118   1.097   7.599  2.7084 -2.1107  0.3270
  179MOL   H20846844   2.695   0.748   7.460  0.6046 -0.3497  0.8762
  179MOL   H20946845   2.701   0.895   7.534  1.0794 -1.9432  2.1139
  179MOL   C21046846   2.704   0.914   7.315  0.1466  0.0222  0.1177
  179MOL   C21146847   2.698   0.802   7.207  0.6306  0.3042 -0.1005
  179MOL   C21246848   2.703   0.837   7.057  0.1776 -0.8169 -0.2275
  179MOL   C21346849   2.814   0.763   7.121  0.3710  0.0677 -0.6178
  179MOL   C21446850   2.566   0.981   7.327  0.6721 -0.0359 -0.1520
  179MOL   H21546851   2.776   0.993   7.296 -1.3895  1.2629 -0.6686
  179MOL   H21646852   2.631   0.720   7.230 -1.4079  2.1706  0.8246
  179MOL   H21746853   2.637   0.783   6.990  0.2619  1.9797 -2.6585
  179MOL   H21846854   2.720   0.942   7.033  2.5678 -1.0290  0.4185
  179MOL   H21946855   2.821   0.657   7.099 -2.0460 -0.4371  0.8248
  179MOL   H22046856   2.900   0.829   7.128  1.4406 -1.3233 -0.4109
  179MOL   H22146857   2.521   0.981   7.228  0.8095 -0.9715 -0.2229
  179MOL   H22246858   2.504   0.914   7.386 -2.0030 -0.1289 -2.9510
  179MOL   C22346859   2.555   1.122   7.384 -0.6582  0.0931  0.6976
  179MOL   C22446860   2.411   1.158   7.415  0.1393  0.2632  0.1699
  179MOL   C22546861   2.345   1.085   7.530 -0.3374 -0.1012 -0.1353
  179MOL   C22646862   2.371   1.228   7.542  0.4272 -0.5939 -0.0125
  179MOL   C22746863   2.606   1.231   7.275  0.5246  0.0123  0.1915
  179MOL   H22846864   2.612   1.121   7.477  0.6491 -3.4767 -0.0584
  179MOL   H22946865   2.346   1.179   7.331  1.6886 -1.3635 -1.4911
  179MOL   H23046866   2.395   1.018   7.599 -2.1704  2.2149  3.6335
  179MOL   H23146867   2.240   1.058   7.518 -1.2240  2.2218  1.7846
  179MOL   H23246868   2.291   1.300   7.527  1.0015 -0.1360 -0.9185
  179MOL   H23346869   2.452   1.249   7.612  0.2183 -1.7291  0.5822
  179MOL   H23446870   2.704   1.191   7.248 -0.0331 -2.2312  1.3782
  179MOL   H23546871   2.546   1.214   7.186  1.9929 -1.2075 -0.5922
  179MOL   C23646872   2.600   1.374   7.327  0.3883 -0.2156  0.8476
  179MOL   C23746873   2.609   1.483   7.222  0.2656 -0.6273 -0.5634
  179MOL   C23846874   2.492   1.525   7.134  0.3865  0.1995 -0.3439
  179MOL   C23946875   2.547   1.617   7.237 -0.2171  0.0847  0.1934
  179MOL   C24046876   2.722   1.392   7.418  0.4993 -0.2135 -0.5414
  179MOL   H24146877   2.506   1.392   7.380 -1.2451 -2.8461 -1.0170
  179MOL   H24246878   2.713   1.480   7.188  0.5291  0.2612  0.1481
  179MOL   H24346879   2.526   1.546   7.033  1.3890  2.2103  0.3701
  179MOL   H24446880   2.408   1.459   7.151 -2.1815  3.1417 -1.1891
  179MOL   H24546881   2.464   1.637   7.305 -1.2356  0.8146 -1.2415
  179MOL   H24646882   2.602   1.705   7.205 -2.3438  1.8618  1.2789
  179MOL   H24746883   2.723   1.303   7.482 -1.0673 -0.3727 -0.7178
  179MOL   H24846884   2.820   1.399   7.371  0.0861  2.2032 -1.1079
  179MOL   C24946885   2.721   1.504   7.525 -0.5337  0.0158  0.2334
  179MOL   C25046886   2.859   1.514   7.594  0.9609 -0.4244 -0.5313
  179MOL   C25146887   2.957   1.624   7.557  0.0209 -0.1956 -0.2653
  179MOL   C25246888   2.889   1.627   7.693 -0.3208  0.4011  0.4600
  179MOL   C25346889   2.616   1.489   7.640 -0.5204 -0.3724  0.1946
  179MOL   H25446890   2.703   1.598   7.473 -3.8996 -0.1194  1.0993
  179MOL   H25546891   2.909   1.421   7.618  0.9293 -0.6383 -1.2954
  179MOL   H25646892   3.063   1.604   7.545 -0.2124 -0.5569 -1.7775
  179MOL   H25746893   2.922   1.696   7.483  1.0813  0.7888  0.1591
  179MOL   H25846894   2.953   1.593   7.774  0.6048  0.4649 -0.2358
  179MOL   H25946895   2.817   1.705   7.718 -1.7380 -0.9096  0.5357
  179MOL   H26046896   2.521   1.497   7.586  0.2259  0.0946 -1.0840
  179MOL   H26146897   2.625   1.561   7.721  0.3799 -1.0111  0.6650
  179MOL   H26246898   2.614   1.392   7.688 -0.6103 -0.8465 -0.7587
  180MOL     C146899   6.448   2.918   5.148  0.0944  0.5049  0.3262
  180MOL     C246900   6.442   2.821   5.262  0.6719 -0.5165  0.9375
  180MOL     C346901   6.435   2.871   5.400 -0.2120  0.6010 -0.2381
  180MOL     C446902   6.557   2.805   5.352 -0.2133  0.3444  0.8569
  180MOL     C546903   6.340   3.028   5.142  0.1903 -0.1965  0.4353
  180MOL     H646904   6.550   2.957   5.158  0.0916 -0.1513  3.3868
  180MOL     H746905   6.383   2.731   5.246  0.2715  0.1962 -1.6843
  180MOL     H846906   6.442   2.980   5.406 -0.4644  0.5512  1.0308
  180MOL     H946907   6.371   2.821   5.472 -0.6080  1.7892  0.2409
  180MOL    H1046908   6.588   2.710   5.395  3.7807  0.8745 -0.7051
  180MOL    H1146909   6.642   2.871   5.338 -2.0395  2.4587 -0.7427
  180MOL    H1246910   6.322   3.076   5.239 -0.6337  0.1013  0.1467
  180MOL    H1346911   6.248   2.973   5.119 -0.8734  0.2895  3.2437
  180MOL    H1446912   6.462   2.856   5.059  0.0188  2.0398 -0.7717
  180MOL    C1546913   6.375   3.142   5.042  0.2995 -0.1221 -0.3026
  180MOL    C1646914   6.337   3.096   4.906  0.5748 -0.1752  0.5504
  180MOL    C1746915   6.417   3.005   4.828 -0.1315 -0.3696  0.0323
  180MOL    C1846916   6.398   3.154   4.788 -0.1231  0.2224 -0.7246
  180MOL    C1946917   6.303   3.277   5.077  0.7140  0.1544  0.1483
  180MOL    H2046918   6.484   3.152   5.047  0.2537  0.5007 -0.4832
  180MOL    H2146919   6.229   3.093   4.890  0.8344 -2.9688 -0.9084
  180MOL    H2246920   6.371   2.933   4.760 -4.0004  0.8355  1.2441
  180MOL    H2346921   6.514   2.984   4.872 -0.0143 -1.7775 -0.8712
  180MOL    H2446922   6.493   3.206   4.782 -0.1598  0.6782  2.2143
  180MOL    H2546923   6.329   3.185   4.710 -2.1550 -2.6899 -0.1568
  180MOL    H2646924   6.196   3.259   5.064  0.2679  1.1787  2.2504
  180MOL    H2746925   6.325   3.347   4.995 -1.0935  0.2167 -0.3031
  180MOL    C2846926   6.331   3.344   5.212  0.0022  0.6339 -0.5333
  180MOL    C2946927   6.275   3.484   5.210  0.0493  0.1700 -0.4918
  180MOL    C3046928   6.119   3.501   5.217  0.5618 -0.2779  0.4182
  180MOL    C3146929   6.207   3.563   5.322  0.6487  0.5238  0.4459
  180MOL    C3246930   6.483   3.353   5.235  0.5186  0.5213  0.3849
  180MOL    H3346931   6.292   3.286   5.296 -5.0178 -1.0524 -3.8050
  180MOL    H3446932   6.331   3.537   5.133 -1.6507  0.6031 -1.4582
  180MOL    H3546933   6.066   3.409   5.240  0.9317 -0.6048 -0.0438
  180MOL    H3646934   6.068   3.557   5.139  2.4827 -0.9057 -1.3056
  180MOL    H3746935   6.195   3.518   5.420 -1.9709 -0.1836 -0.1501
  180MOL    H3846936   6.235   3.667   5.310 -0.0916  0.5565 -1.1935
  180MOL    H3946937   6.537   3.406   5.156 -0.2271 -0.7293 -0.9942
  180MOL    H4046938   6.525   3.252   5.227  0.9469  0.6650  0.8175
  180MOL    C4146939   6.522   3.406   5.378 -0.4024 -0.7361 -0.0715
  180MOL    C4246940   6.670   3.434   5.406  0.0910  0.0481 -0.3869
  180MOL    C4346941   6.757   3.495   5.304 -0.2308  0.3239  1.1342
  180MOL    C4446942   6.780   3.347   5.344  0.3217 -0.1009 -0.6375
  180MOL    C4546943   6.482   3.296   5.480  0.1913 -0.8639 -0.1756
  180MOL    H4646944   6.487   3.506   5.404 -0.5912 -0.1818 -2.3415
  180MOL    H4746945   6.699   3.479   5.500 -0.1412 -0.7625  0.0759
  180MOL    H4846946   6.703   3.520   5.213 -2.3779 -3.9710  1.0689
  180MOL    H4946947   6.831   3.567   5.338  0.0708  1.3294 -1.4931
  180MOL    H5046948   6.866   3.324   5.407 -0.1469 -2.9485 -0.9616
  180MOL    H5146949   6.759   3.272   5.269  0.1969 -0.7844  0.0712
  180MOL    H5246950   6.552   3.213   5.470  0.5237 -0.4100 -1.9007
  180MOL    H5346951   6.391   3.242   5.457  0.2907 -0.4398 -1.6647
  180MOL    C5446952   6.480   3.335   5.627  0.5913 -0.1019 -0.0334
  180MOL    C5546953   6.384   3.451   5.660 -0.1905 -0.3117 -0.2108
  180MOL    C5646954   6.435   3.587   5.645  0.0201  0.0564  0.1079
  180MOL    C5746955   6.404   3.542   5.782  0.0258 -0.7630  0.7084
  180MOL    C5846956   6.440   3.206   5.703  0.0159  0.1562 -0.0529
  180MOL    H5946957   6.582   3.357   5.658 -0.0592  0.0708  2.0608
  180MOL    H6046958   6.280   3.422   5.648  0.4135 -3.1099  0.9086
  180MOL    H6146959   6.543   3.593   5.631  0.4166  0.6266  3.0439
  180MOL    H6246960   6.365   3.646   5.586 -0.2490  1.9405  2.2428
  180MOL    H6346961   6.310   3.576   5.826  0.3315  0.7627  0.2216
  180MOL    H6446962   6.475   3.522   5.862 -0.7035  0.3818  1.6624
  180MOL    H6546963   6.332   3.187   5.700 -0.0457  0.6507 -1.5459
  180MOL    H6646964   6.474   3.123   5.642  2.0422  0.8416  0.1024
  180MOL    C6746965   6.497   3.200   5.852  0.1087  0.0551 -0.0874
  180MOL    C6846966   6.383   3.171   5.945 -0.1030  0.0724 -0.3062
  180MOL    C6946967   6.393   3.186   6.099  0.5185 -0.0188  0.5627
  180MOL    C7046968   6.308   3.283   6.019  0.2899 -0.5602  0.4616
  180MOL    C7146969   6.595   3.087   5.878 -0.0289 -0.4941 -0.1926
  180MOL    H7246970   6.542   3.293   5.887  0.2514  0.6260 -1.7131
  180MOL    H7346971   6.325   3.085   5.914  1.3549 -1.2564  0.5364
  180MOL    H7446972   6.338   3.127   6.173 -0.9641  0.1878 -0.3515
  180MOL    H7546973   6.498   3.200   6.123  0.4824  2.0878 -0.4705
  180MOL    H7646974   6.346   3.384   6.005  0.0130 -0.4580  0.4648
  180MOL    H7746975   6.201   3.269   6.033 -0.1792 -0.2272 -2.3635
  180MOL    H7846976   6.554   2.995   5.836  2.0556 -1.4846 -0.1384
  180MOL    H7946977   6.601   3.070   5.986 -1.0307  0.1450 -0.0279
  180MOL    C8046978   6.735   3.120   5.816  0.1961 -0.1698 -0.2325
  180MOL    C8146979   6.785   2.987   5.748 -0.1576  0.0630  0.8399
  180MOL    C8246980   6.913   2.976   5.677 -0.0099  0.2967  0.3477
  180MOL    C8346981   6.787   2.983   5.594  0.0449  0.2315 -0.0064
  180MOL    C8446982   6.837   3.156   5.932 -0.0516 -0.1505  0.4741
  180MOL    H8546983   6.721   3.206   5.750 -0.9428 -1.4322 -1.6428
  180MOL    H8646984   6.767   2.895   5.804 -0.2956 -0.4458 -0.0331
  180MOL    H8746985   6.965   2.881   5.681 -1.5701 -0.5639  0.3165
  180MOL    H8846986   6.978   3.064   5.667 -0.8251  0.5743 -3.1327
  180MOL    H8946987   6.762   3.072   5.537 -0.5264 -0.2869 -0.5761
  180MOL    H9046988   6.771   2.888   5.542  1.4543  2.0855 -4.0241
  180MOL    H9146989   6.841   3.071   6.000 -0.5433 -1.3869 -1.0178
  180MOL    H9246990   6.939   3.156   5.894 -0.2173 -1.0930 -0.0011
  180MOL    C9346991   6.822   3.274   6.031 -0.3265 -0.2625  0.4989
  180MOL    C9446992   6.893   3.239   6.164 -0.0224  0.0313  0.4598
  180MOL    C9546993   6.846   3.292   6.303  0.2701  0.6991  0.7528
  180MOL    C9646994   6.834   3.146   6.266  0.5707  0.1297 -0.1741
  180MOL    C9746995   6.878   3.399   5.953  0.2042 -0.0852  0.4489
  180MOL    H9846996   6.715   3.292   6.046 -0.3331 -0.0290  0.1941
  180MOL    H9946997   7.002   3.237   6.157 -0.1050  1.2171 -1.3586
  180MOL   H10046998   6.927   3.317   6.371  1.9387 -1.0722 -0.5375
  180MOL   H10146999   6.753   3.348   6.306 -1.8780 -2.6991  0.7998
  180MOL   H10247000   6.906   3.071   6.299  0.2595  1.2278  3.2021
  180MOL   H10347001   6.738   3.100   6.246 -0.4780  2.9065 -1.7407
  180MOL   H10447002   6.817   3.409   5.863 -0.3817  1.0088  0.9500
  180MOL   H10547003   6.985   3.388   5.936 -0.2782 -0.9978 -2.3393
  180MOL   C10647004   6.856   3.533   6.018 -0.0255 -0.3279  0.0963
  180MOL   C10747005   6.918   3.646   5.938 -0.4288 -0.2319  0.3224
  180MOL   C10847006   6.952   3.780   6.001  0.1590 -0.3389 -0.0894
  180MOL   C10947007   7.062   3.687   5.950 -0.2226 -0.4672 -0.3363
  180MOL   C11047008   6.708   3.568   6.035  0.2998  0.2810 -0.5328
  180MOL   H11147009   6.897   3.532   6.119 -1.9671 -1.6372  0.9147
  180MOL   H11247010   6.882   3.650   5.835  0.0192 -2.1564  0.0658
  180MOL   H11347011   6.922   3.874   5.955  0.6277 -0.8948 -1.5687
  180MOL   H11447012   6.936   3.769   6.108 -0.5460 -4.3386 -0.5029
  180MOL   H11547013   7.125   3.639   6.024 -2.6724 -2.9332  0.2219
  180MOL   H11647014   7.111   3.735   5.865  0.7183  2.0612  1.6125
  180MOL   H11747015   6.661   3.575   5.937 -0.2593 -0.8107 -0.3374
  180MOL   H11847016   6.664   3.476   6.072  2.2001 -0.4941 -0.1264
  180MOL   C11947017   6.671   3.680   6.133 -0.9625  0.1645  0.2688
  180MOL   C12047018   6.525   3.705   6.141 -0.2244  0.1528  0.6149
  180MOL   C12147019   6.462   3.774   6.019 -0.7196  0.0175 -0.2106
  180MOL   C12247020   6.455   3.843   6.154 -0.1716  0.6198  0.2672
  180MOL   C12347021   6.720   3.654   6.288 -0.0945  1.1544  0.0505
  180MOL   H12447022   6.710   3.773   6.093  2.3117 -1.1583  0.1818
  180MOL   H12547023   6.468   3.624   6.186 -0.8612  0.2443 -0.0068
  180MOL   H12647024   6.372   3.729   5.979 -0.0517  1.3826 -3.4367
  180MOL   H12747025   6.520   3.820   5.939  0.3706  1.0162  1.1326
  180MOL   H12847026   6.506   3.939   6.167  1.0498 -0.1247  1.1103
  180MOL   H12947027   6.364   3.836   6.213  0.1852  0.9921  0.8783
  180MOL   H13047028   6.662   3.571   6.328  2.3738 -0.6902 -0.0624
  180MOL   H13147029   6.822   3.615   6.294 -0.8425 -0.7545  0.6595
  180MOL   C13247030   6.708   3.777   6.374 -0.1577 -0.6271 -0.1725
  180MOL   C13347031   6.812   3.882   6.342 -0.0065  0.7693 -0.6735
  180MOL   C13447032   6.816   4.012   6.411  0.2056 -0.4053 -0.1804
  180MOL   C13547033   6.791   4.010   6.263 -0.1362  0.2123  0.1938
  180MOL   C13647034   6.714   3.743   6.526  0.9734  0.0424  0.1398
  180MOL   H13747035   6.610   3.823   6.358  0.7625  1.2429 -0.6552
  180MOL   H13847036   6.914   3.843   6.338 -0.3274 -0.4228  1.6538
  180MOL   H13947037   6.726   4.042   6.462  0.0806 -3.4300  1.5060
  180MOL   H14047038   6.917   4.031   6.448  0.7331  0.0047 -1.7690
  180MOL   H14147039   6.693   4.028   6.218 -0.3917 -1.4249  0.0564
  180MOL   H14247040   6.869   4.060   6.207  0.8590 -0.7847  0.6649
  180MOL   H14347041   6.815   3.707   6.544  1.6169  2.5943  1.8826
  180MOL   H14447042   6.706   3.834   6.586 -3.4330 -0.7702  0.9762
  180MOL   C14547043   6.619   3.638   6.581  0.1301  1.1557  0.9454
  180MOL   C14647044   6.661   3.600   6.720  0.2642  0.0267 -0.7602
  180MOL   C14747045   6.625   3.463   6.785 -0.0928  0.2721 -0.4666
  180MOL   C14847046   6.766   3.505   6.755 -0.0131  0.0080 -0.3410
  180MOL   C14947047   6.467   3.676   6.579 -0.0702  0.2643  0.6109
  180MOL   H15047048   6.618   3.544   6.526  0.4354  0.4795  2.1057
  180MOL   H15147049   6.647   3.680   6.792 -0.0830  0.1013 -0.9110
  180MOL   H15247050   6.597   3.468   6.890 -4.0227 -1.4802 -1.3492
  180MOL   H15347051   6.564   3.402   6.719  2.4367 -0.5418 -2.1290
  180MOL   H15447052   6.831   3.461   6.679  0.5228 -2.1080  1.2928
  180MOL   H15547053   6.822   3.533   6.844 -1.2398  0.9118  0.1569
  180MOL   H15647054   6.451   3.739   6.667 -2.8002  0.6823 -0.1102
  180MOL   H15747055   6.456   3.737   6.489  1.6612  1.9259  1.4876
  180MOL   C15847056   6.363   3.561   6.568  0.1258  0.1221 -0.0415
  180MOL   C15947057   6.371   3.492   6.426  0.2441 -0.9942  0.2332
  180MOL   C16047058   6.468   3.395   6.373 -0.5558 -0.5874  0.2247
  180MOL   C16147059   6.333   3.350   6.413 -0.4797 -0.2799 -0.4157
  180MOL   C16247060   6.217   3.619   6.591 -0.3885  0.6479 -0.0953
  180MOL   H16347061   6.385   3.486   6.645 -1.7161 -2.4068 -1.8699
  180MOL   H16447062   6.359   3.560   6.343  1.5768 -1.5735 -0.4466
  180MOL   H16547063   6.553   3.379   6.439 -0.8334 -1.1496  0.4495
  180MOL   H16647064   6.485   3.385   6.265 -0.6656 -0.6431  0.2129
  180MOL   H16747065   6.271   3.333   6.325 -0.7382 -1.1630 -0.0660
  180MOL   H16847066   6.323   3.290   6.503  1.8595  0.4803  0.3787
  180MOL   H16947067   6.142   3.541   6.580  1.4358 -1.0559 -0.6729
  180MOL   H17047068   6.207   3.701   6.520 -1.5363  1.2264  0.7188
  180MOL   C17147069   6.181   3.683   6.730  0.4695 -0.2641 -0.2024
  180MOL   C17247070   6.031   3.709   6.724 -0.7415 -0.2449 -0.6231
  180MOL   C17347071   5.965   3.837   6.772  0.1184  0.0901  0.1450
  180MOL   C17447072   5.961   3.805   6.628 -0.7742  1.1435  0.7484
  180MOL   C17547073   6.228   3.592   6.847  0.4617  0.2412  0.1460
  180MOL   H17647074   6.238   3.773   6.751  0.3701  0.4085 -2.7501
  180MOL   H17747075   5.968   3.624   6.748  0.0420 -0.9936 -1.1928
  180MOL   H17847076   5.881   3.819   6.839  1.0373 -0.7088  1.1056
  180MOL   H17947077   6.045   3.905   6.802  1.7681 -1.4608 -0.6377
  180MOL   H18047078   6.027   3.850   6.553  1.1755 -1.5311  0.7823
  180MOL   H18147079   5.860   3.778   6.598  0.8896 -1.5094 -2.9316
  180MOL   H18247080   6.333   3.564   6.836  0.7989  1.7270 -0.6412
  180MOL   H18347081   6.172   3.500   6.831  2.3011 -0.6059 -1.7594
  180MOL   C18447082   6.214   3.645   6.994  0.9256 -0.4668  0.2912
  180MOL   C18547083   6.072   3.635   7.045 -0.1545 -0.0517  0.0151
  180MOL   C18647084   6.056   3.630   7.194  0.7088 -0.2686 -0.3193
  180MOL   C18747085   6.013   3.508   7.105 -0.2100  0.0785 -0.6133
  180MOL   C18847086   6.260   3.790   7.011 -0.2673 -0.3186  0.2158
  180MOL   H18947087   6.277   3.579   7.054  0.6231 -0.8752  0.1627
  180MOL   H19047088   6.004   3.691   6.981  0.7216  1.4138  0.3529
  180MOL   H19147089   5.969   3.668   7.247  0.0210 -0.2892 -1.4255
  180MOL   H19247090   6.149   3.613   7.249  1.0733  0.6498 -0.6545
  180MOL   H19347091   5.908   3.492   7.084  0.0574 -1.9636 -0.5068
  180MOL   H19447092   6.075   3.418   7.109 -1.1111 -0.5683 -1.0416
  180MOL   H19547093   6.231   3.824   7.111 -0.9334 -0.2383 -0.0077
  180MOL   H19647094   6.210   3.862   6.946  1.0919 -0.3307 -0.8591
  180MOL   C19747095   6.418   3.810   7.000  0.2606 -0.9002  0.1578
  180MOL   C19847096   6.492   3.798   7.139  0.2213  0.8141  0.1002
  180MOL   C19947097   6.641   3.761   7.159  0.1321  0.2129  0.1760
  180MOL   C20047098   6.530   3.661   7.192  0.0137 -0.4742  0.2234
  180MOL   C20147099   6.466   3.932   6.922 -0.1727 -0.1289  0.2684
  180MOL   H20247100   6.463   3.732   6.938  3.8157 -0.1004  1.5517
  180MOL   H20347101   6.439   3.860   7.211  2.1372  1.6248  0.8458
  180MOL   H20447102   6.705   3.754   7.072 -0.4173 -0.7590 -0.1588
  180MOL   H20547103   6.682   3.825   7.237  1.6290 -0.3329 -0.1460
  180MOL   H20647104   6.499   3.575   7.132 -0.2494 -0.2622  0.0526
  180MOL   H20747105   6.515   3.646   7.299  0.9427 -3.0761  0.0321
  180MOL   H20847106   6.571   3.913   6.898  0.1235 -0.4471  1.7230
  180MOL   H20947107   6.418   3.919   6.826  1.1189  0.0875 -0.4183
  180MOL   C21047108   6.442   4.067   6.990 -0.2994 -0.7965  0.0468
  180MOL   C21147109   6.556   4.163   6.994  0.1646 -0.1858  0.3172
  180MOL   C21247110   6.704   4.115   7.011  0.4402 -0.3057  0.2910
  180MOL   C21347111   6.652   4.185   6.883 -0.0483 -0.8154  0.3802
  180MOL   C21447112   6.306   4.131   6.955 -0.3796  0.2532 -0.3450
  180MOL   H21547113   6.425   4.050   7.097 -4.5320  0.9118 -0.2720
  180MOL   H21647114   6.535   4.254   7.051  0.0776 -0.4993  0.7901
  180MOL   H21747115   6.757   4.183   7.077  0.3024  1.9609 -1.8683
  180MOL   H21847116   6.712   4.008   7.033 -0.3886 -0.3089  0.6290
  180MOL   H21947117   6.685   4.287   6.862 -4.1794  0.3275 -1.0336
  180MOL   H22047118   6.653   4.125   6.792  1.3174 -0.0411 -0.1341
  180MOL   H22147119   6.223   4.060   6.962  0.1376 -0.2744  0.4467
  180MOL   H22247120   6.284   4.194   7.041 -0.7642 -0.0947 -0.1848
  180MOL   C22347121   6.303   4.229   6.835  0.8374  0.4349  0.8361
  180MOL   C22447122   6.169   4.309   6.831 -0.2283  1.0025  0.5988
  180MOL   C22547123   6.142   4.430   6.905  0.1397  0.2014 -0.0722
  180MOL   C22647124   6.159   4.438   6.754  0.1772  0.4231 -0.1190
  180MOL   C22747125   6.325   4.161   6.698  0.2988 -0.6340  0.9055
  180MOL   H22847126   6.380   4.305   6.850  0.9647 -0.1785  3.4186
  180MOL   H22947127   6.083   4.243   6.821  0.5389  0.1735 -0.6449
  180MOL   H23047128   6.225   4.461   6.968  0.7639 -0.0335 -0.7614
  180MOL   H23147129   6.044   4.463   6.939  0.9019  0.7940  1.6003
  180MOL   H23247130   6.068   4.456   6.697 -0.0089 -2.0538 -0.6604
  180MOL   H23347131   6.252   4.490   6.729  1.2670 -0.6195  1.6593
  180MOL   H23447132   6.403   4.087   6.715 -0.1798 -1.1356  0.9044
  180MOL   H23547133   6.235   4.103   6.680  0.6869 -1.1811  0.7332
  180MOL   C23647134   6.348   4.236   6.568  0.0150  0.5660 -0.2036
  180MOL   C23747135   6.355   4.145   6.449 -0.0643  0.2161  0.3986
  180MOL   C23847136   6.248   4.063   6.396 -0.1589 -0.7862  0.4884
  180MOL   C23947137   6.305   4.176   6.314 -0.4329 -0.4946 -0.4159
  180MOL   C24047138   6.467   4.335   6.582  0.4469  0.1694  0.1072
  180MOL   H24147139   6.256   4.293   6.558 -0.1972  0.6699  2.0517
  180MOL   H24247140   6.447   4.088   6.458  0.9015  1.4846 -1.1243
  180MOL   H24347141   6.274   3.961   6.369  0.0724 -0.3558 -0.9859
  180MOL   H24447142   6.146   4.070   6.433 -0.4758 -0.8666 -0.3529
  180MOL   H24547143   6.235   4.256   6.291  0.0701 -0.0143 -0.2721
  180MOL   H24647144   6.354   4.133   6.227  1.0348  1.6101 -0.6702
  180MOL   H24747145   6.442   4.414   6.652  1.0949  0.3054  0.1940
  180MOL   H24847146   6.555   4.282   6.619 -1.2884 -2.3764  0.6824
  180MOL   C24947147   6.516   4.406   6.452  0.1588 -0.4386  0.0758
  180MOL   C25047148   6.650   4.471   6.469 -0.3574  0.9162  0.0556
  180MOL   C25147149   6.783   4.389   6.460 -0.2277 -0.3529 -0.0156
  180MOL   C25247150   6.746   4.483   6.352 -0.6997  0.3738 -0.2347
  180MOL   C25347151   6.413   4.507   6.404 -0.1736  0.2593 -0.6259
  180MOL   H25447152   6.525   4.334   6.371 -0.3912 -0.2481 -0.1586
  180MOL   H25547153   6.647   4.560   6.531 -0.2935  0.3433  0.8962
  180MOL   H25647154   6.858   4.414   6.535 -0.3062 -1.1945  0.3517
  180MOL   H25747155   6.758   4.284   6.447 -0.4338 -0.0769 -1.9288
  180MOL   H25847156   6.799   4.577   6.345  0.7464 -0.4926 -1.2092
  180MOL   H25947157   6.721   4.434   6.258  0.3351 -2.8507  1.0865
  180MOL   H26047158   6.439   4.568   6.318  1.9347  1.0551  0.5196
  180MOL   H26147159   6.401   4.586   6.479  2.3068  0.0550  0.0462
  180MOL   H26247160   6.323   4.448   6.387 -0.1417  0.5386 -1.7568
  181MOL     C147161   3.770   0.059   7.729  0.3347  0.0531  0.5606
  181MOL     C247162   3.686   7.777   7.677 -0.5057  0.3108  0.0264
  181MOL     C347163   3.741   7.660   7.599 -0.1254 -0.4717 -0.2582
  181MOL     C447164   3.656   7.766   7.529  0.2749  0.3549 -0.3815
  181MOL     C547165   3.683   0.188   7.734  0.0411  0.0117 -0.4640
  181MOL     H647166   3.799   0.047   7.833 -0.3307  0.5051  0.8017
  181MOL     H747167   3.606   7.753   7.747 -0.7370  0.5342 -0.1611
  181MOL     H847168   3.848   7.668   7.583 -0.5670  1.7122 -2.4849
  181MOL     H947169   3.695   7.565   7.624  0.8366 -0.9205 -0.1784
  181MOL    H1047170   3.559   7.738   7.489 -0.5856  2.5373  0.1176
  181MOL    H1147171   3.710   7.832   7.462 -0.5250 -0.2690 -1.6474
  181MOL    H1247172   3.626   0.192   7.826  0.2184  0.3215 -0.3675
  181MOL    H1347173   3.615   0.187   7.649  1.1064 -0.2310 -1.3395
  181MOL    H1447174   3.850   0.083   7.659  0.3735  0.1401  0.6352
  181MOL    C1547175   3.765   0.318   7.709 -0.4956 -0.0116 -0.6191
  181MOL    C1647176   3.672   0.435   7.678  0.9814  0.5825  0.1549
  181MOL    C1747177   3.589   0.440   7.544 -0.0740  0.0487  0.4975
  181MOL    C1847178   3.698   0.539   7.568 -0.3966  0.7374  0.3488
  181MOL    C1947179   3.882   0.356   7.800 -0.3452 -1.1284  0.5597
  181MOL    H2047180   3.805   0.302   7.609 -2.2690 -2.2582 -1.0346
  181MOL    H2147181   3.618   0.467   7.766 -0.6199  0.5787 -0.8021
  181MOL    H2247182   3.483   0.467   7.542 -0.2463 -0.6547 -0.2607
  181MOL    H2347183   3.621   0.363   7.475  1.3322 -0.0782  1.2718
  181MOL    H2447184   3.784   0.543   7.501 -0.2231 -0.8924  0.4580
  181MOL    H2547185   3.657   0.638   7.585  1.4822  1.4711  0.8151
  181MOL    H2647186   3.916   0.274   0.024  3.7345 -1.3224 -1.7626
  181MOL    H2747187   3.829   0.421   0.030  0.3399 -1.0674  1.0251
  181MOL    C2847188   3.997   0.435   7.744  0.6338  0.3887  0.0943
  181MOL    C2947189   4.111   0.330   7.719  0.1105 -0.0616 -0.3162
  181MOL    C3047190   4.104   0.234   7.603  0.9377 -0.7108 -0.2503
  181MOL    C3147191   4.214   0.338   7.607  0.1404 -0.0369  0.0339
  181MOL    C3247192   4.033   0.550   7.837  0.8805  0.5987  0.5324
  181MOL    H3347193   3.952   0.484   7.658 -0.4643  1.5795  1.3085
  181MOL    H3447194   4.157   0.299   7.813 -2.2717 -2.3436  0.1759
  181MOL    H3547195   4.020   0.250   7.535 -0.4362  2.2871  2.0330
  181MOL    H3647196   4.131   0.130   7.617 -1.9267 -1.4454  0.2616
  181MOL    H3747197   4.200   0.430   7.550  1.8649  0.4811  0.4142
  181MOL    H3847198   4.319   0.317   7.625  0.7933 -0.1572 -3.5700
  181MOL    H3947199   4.090   0.508   0.081  1.2240 -1.3182 -0.6295
  181MOL    H4047200   3.956   0.602   0.056 -0.2796  1.1807 -1.4932
  181MOL    C4147201   4.102   0.653   7.757 -0.2479  0.1938 -1.0781
  181MOL    C4247202   4.201   0.732   0.010  0.0061  0.7297 -0.5935
  181MOL    C4347203   4.321   0.797   7.796 -0.1884 -0.6162 -0.5393
  181MOL    C4447204   4.340   0.686   0.053 -0.9391 -0.0222  0.6696
  181MOL    C4547205   3.990   0.744   7.700 -0.0482  0.3072 -0.1173
  181MOL    H4647206   4.158   0.614   7.672 -0.5083 -0.8609 -0.7703
  181MOL    H4747207   4.151   0.793   0.086 -1.6607  0.7064 -1.6502
  181MOL    H4847208   4.354   0.777   7.694  0.8871 -0.1361 -0.2858
  181MOL    H4947209   4.328   0.902   7.825 -2.6403 -0.6583  0.3085
  181MOL    H5047210   4.373   0.704   0.155  0.2289 -1.9040  0.6542
  181MOL    H5147211   4.389   0.598   0.009 -1.9129 -0.6985  0.9181
  181MOL    H5247212   3.953   0.812   7.777  0.4039 -2.3486  2.5272
  181MOL    H5347213   3.900   0.683   7.703 -0.4088  0.8385 -0.0451
  181MOL    C5447214   4.016   0.824   7.562  0.0371  0.1662  0.5261
  181MOL    C5547215   4.062   0.734   7.447  0.8190  0.2475  0.0775
  181MOL    C5647216   4.208   0.721   7.410 -0.2384  0.0512  0.5046
  181MOL    C5747217   4.115   0.794   7.320  0.1145 -0.4764  0.3830
  181MOL    C5847218   3.894   0.907   7.518  0.3899 -0.4765  0.0685
  181MOL    H5947219   4.102   0.886   7.585  0.9165 -0.4085 -1.1695
  181MOL    H6047220   4.000   0.645   7.437 -2.2613  2.1133  1.5913
  181MOL    H6147221   4.282   0.793   7.446 -2.7520  3.3273 -0.6286
  181MOL    H6247222   4.246   0.626   7.373  2.8303  1.0635  0.9002
  181MOL    H6347223   4.087   0.743   7.228 -0.3194 -0.2418  0.3814
  181MOL    H6447224   4.116   0.903   7.310  3.5704 -0.4932  0.0463
  181MOL    H6547225   3.924   0.953   7.424 -1.2086  0.9000  0.2189
  181MOL    H6647226   3.809   0.841   7.497  0.5352 -0.1876 -1.4931
  181MOL    C6747227   3.841   1.020   7.607 -0.5659 -0.4539  0.1733
  181MOL    C6847228   3.945   1.126   7.624  0.3711 -0.8703 -0.0044
  181MOL    C6947229   3.924   1.230   7.732 -0.1625  0.7390  0.2148
  181MOL    C7047230   4.025   1.127   7.760 -0.2731  0.9151 -0.4244
  181MOL    C7147231   3.718   1.079   7.529 -0.3933 -0.1340  0.0732
  181MOL    H7247232   3.818   0.983   7.707 -0.2730  1.3665  0.9495
  181MOL    H7347233   3.995   1.161   7.534 -3.2866  0.5736 -1.5628
  181MOL    H7447234   3.978   1.324   7.742  1.6669 -0.1979 -0.4331
  181MOL    H7547235   3.831   1.218   7.786  0.3829  1.3756  1.3110
  181MOL    H7647236   4.002   1.059   0.002 -2.1547  2.4610  0.3639
  181MOL    H7747237   4.130   1.156   7.749 -0.3981  2.2644  1.6331
  181MOL    H7847238   3.739   1.085   7.423  1.2041 -2.3516  0.2300
  181MOL    H7947239   3.697   1.185   7.550  0.1126 -0.0495  0.1649
  181MOL    C8047240   3.588   0.996   7.550  0.2749 -0.0053  0.1321
  181MOL    C8147241   3.520   0.978   7.407 -0.8368  0.2155 -0.5776
  181MOL    C8247242   3.433   0.866   7.382 -0.3559  0.3288  0.3473
  181MOL    C8347243   3.560   0.877   7.302  0.1726  0.1043 -0.5723
  181MOL    C8447244   3.490   1.063   7.644  0.4247  0.3320  0.4089
  181MOL    H8547245   3.618   0.893   7.573  2.1402 -0.1858 -2.9023
  181MOL    H8647246   3.503   1.073   7.358  0.1048 -0.0659 -1.4572
  181MOL    H8747247   3.339   0.887   7.333  0.7195  1.3706 -1.3322
  181MOL    H8847248   3.426   0.787   7.456  0.4418 -0.0868 -0.0091
  181MOL    H8947249   3.639   0.803   7.308  1.7122  1.7174 -0.2950
  181MOL    H9047250   3.565   0.927   7.206  1.1553 -0.3441 -0.7602
  181MOL    H9147251   3.464   1.162   7.609  1.0002  0.2466 -0.2649
  181MOL    H9247252   3.390   1.020   7.639  1.1893 -1.4869  0.2476
  181MOL    C9347253   3.532   1.070   7.792 -0.6522 -0.1142  0.2413
  181MOL    C9447254   3.426   1.163   0.022 -0.0560 -0.3882 -0.4329
  181MOL    C9547255   3.464   1.262   0.123  0.1239  0.1662 -0.1167
  181MOL    C9647256   3.431   1.310   7.830  0.3432  0.4837  0.2384
  181MOL    C9747257   3.533   0.938   0.028  0.2098  0.0700 -0.2754
  181MOL    H9847258   3.632   1.115   7.790 -0.9018  0.4778  0.9960
  181MOL    H9947259   3.329   1.123   0.048 -0.4157  0.0158 -1.1379
  181MOL   H10047260   3.403   1.298   0.207  0.6998  0.5574  0.1321
  181MOL   H10147261   3.570   1.266   0.144  0.4896 -0.7930 -1.7164
  181MOL   H10247262   3.332   1.352   7.815  1.4417  2.8764 -0.5290
  181MOL   H10347263   3.507   1.334   7.756  0.7460 -1.3971  0.0257
  181MOL   H10447264   3.605   0.874   7.816  1.3313 -0.3180  1.7598
  181MOL   H10547265   3.436   0.889   0.012  2.1704 -2.8953 -3.7689
  181MOL   C10647266   3.570   0.943   0.178 -0.1457 -0.3496 -0.1929
  181MOL   C10747267   3.546   0.801   0.234 -0.3002  0.2873 -0.7520
  181MOL   C10847268   3.507   0.775   0.379  0.2357 -0.4129 -0.4819
  181MOL   C10947269   3.416   0.735   0.273 -0.6004  0.3226  0.1884
  181MOL   C11047270   3.714   0.987   0.208  0.2457  0.2223 -0.2144
  181MOL   H11147271   3.505   1.014   0.229  0.7451  3.1519 -3.6464
  181MOL   H11247272   3.621   0.739   0.184 -1.0203 -1.2527  0.0356
  181MOL   H11347273   3.553   0.691   0.432 -0.4133 -0.4949 -0.0432
  181MOL   H11447274   3.475   0.858   0.441 -1.8093 -1.7273  0.2932
  181MOL   H11547275   3.317   0.779   0.284 -0.4341  0.5021  1.0054
  181MOL   H11647276   3.399   0.629   0.254  1.9382 -0.1515  0.4837
  181MOL   H11747277   3.783   0.916   0.162  0.3544 -1.7837  2.8836
  181MOL   H11847278   3.728   1.084   0.161 -1.2963  0.0663 -1.0277
  181MOL   C11947279   3.761   0.999   0.356 -0.6432 -0.5867 -0.4030
  181MOL   C12047280   3.903   1.052   0.356 -0.0989 -0.7011 -0.6140
  181MOL   C12147281   4.009   0.949   0.345  0.5963 -0.1603  1.0539
  181MOL   C12247282   3.992   1.022   0.477 -0.7763 -0.0051  0.2527
  181MOL   C12347283   3.672   1.117   0.418 -0.4521  0.5803 -0.1557
  181MOL   H12447284   3.747   0.906   0.411 -0.5739  0.1930  0.9451
  181MOL   H12547285   3.918   1.144   0.299  0.1071 -1.9056 -2.5504
  181MOL   H12647286   4.087   0.973   0.273 -0.3840 -3.1032 -1.0984
  181MOL   H12747287   4.001   0.842   0.360  0.4858 -0.2347  0.4617
  181MOL   H12847288   3.950   0.959   0.555 -1.5255 -0.4566 -0.5045
  181MOL   H12947289   4.079   1.083   0.501  0.8508 -0.6727 -3.6111
  181MOL   H13047290   3.699   1.212   0.371  1.3420 -0.0065 -0.3699
  181MOL   H13147291   3.566   1.101   0.401 -0.3975 -1.5827  1.2464
  181MOL   C13247292   3.688   1.149   0.565  0.2611  0.3532  0.5988
  181MOL   C13347293   3.628   1.031   0.644  0.0837 -0.4726 -0.8362
  181MOL   C13447294   3.687   1.000   0.781  0.4065  0.0628 -0.2676
  181MOL   C13547295   3.697   0.897   0.671 -0.5893  0.0981  0.1896
  181MOL   C13647296   3.631   1.287   0.597 -0.1250  0.0541 -0.5195
  181MOL   H13747297   3.795   1.145   0.584  0.5985  3.8384 -0.1342
  181MOL   H13847298   3.522   1.012   0.626  0.1148 -1.7113  0.2275
  181MOL   H13947299   3.784   1.049   0.797  0.6102  0.6359 -2.9856
  181MOL   H14047300   3.618   0.986   0.864  0.4953  0.4969 -0.1185
  181MOL   H14147301   3.786   0.870   0.614 -0.3164 -1.1875  1.2023
  181MOL   H14247302   3.631   0.814   0.696  0.1495 -0.3574  0.6811
  181MOL   H14347303   3.634   1.358   0.515  2.6122  0.0292 -0.4800
  181MOL   H14447304   3.522   1.276   0.595 -0.0997 -0.1472 -0.7053
  181MOL   C14547305   3.674   1.357   0.731 -0.6080 -0.0826 -0.5466
  181MOL   C14647306   3.825   1.359   0.742  0.1443 -0.1633 -0.2548
  181MOL   C14747307   3.891   1.404   0.871 -0.2315  0.0128 -0.7607
  181MOL   C14847308   3.900   1.262   0.829 -0.1217 -0.1848  0.4672
  181MOL   C14947309   3.624   1.503   0.755 -0.0220 -0.0113 -0.2783
  181MOL   H15047310   3.647   1.299   0.820  1.2006  0.1087  0.1529
  181MOL   H15147311   3.886   1.399   0.661  1.8792  0.0535  1.1194
  181MOL   H15247312   3.972   1.475   0.853  0.1080 -0.0553  0.4105
  181MOL   H15347313   3.815   1.423   0.947 -0.2371 -1.3338 -0.4310
  181MOL   H15447314   3.854   1.195   0.902 -0.6387  0.1017  0.4061
  181MOL   H15547315   3.999   1.232   0.795 -0.7483  0.7915 -2.3122
  181MOL   H15647316   3.648   1.527   0.858  0.5898 -0.4929 -0.3003
  181MOL   H15747317   3.691   1.556   0.687  0.9086 -0.7841  0.0199
  181MOL   C15847318   3.474   1.535   0.710 -0.1843 -0.0329  0.7533
  181MOL   C15947319   3.464   1.683   0.705 -0.0681 -0.1147  0.5360
  181MOL   C16047320   3.548   1.782   0.625 -0.2201  0.4784  0.0299
  181MOL   C16147321   3.416   1.740   0.573  0.1108  0.6929  0.0356
  181MOL   C16247322   3.369   1.465   0.793 -0.3586 -0.8771  0.1408
  181MOL   H16347323   3.468   1.491   0.610  0.4138 -0.4845  0.9142
  181MOL   H16447324   3.428   1.726   0.799 -1.5201  0.0109 -0.0653
  181MOL   H16547325   3.624   1.762   0.549  1.0200 -0.3235  1.4513
  181MOL   H16647326   3.559   1.884   0.662  3.2567 -0.3604  1.4725
  181MOL   H16747327   3.324   1.798   0.577  0.0379  0.5522  0.5224
  181MOL   H16847328   3.424   1.680   0.483 -1.3158  0.3112  0.1579
  181MOL   H16947329   3.356   1.523   0.884  0.6769  0.2175 -0.3891
  181MOL   H17047330   3.406   1.370   0.831  0.6073 -0.3021  0.6618
  181MOL   C17147331   3.224   1.464   0.727 -0.1702  0.6942 -0.2532
  181MOL   C17247332   3.208   1.360   0.622  0.8936  0.6489  0.4692
  181MOL   C17347333   3.088   1.376   0.528  0.1235 -0.4594 -0.0795
  181MOL   C17447334   3.226   1.373   0.467 -0.9887 -0.3228 -0.0716
  181MOL   C17547335   3.111   1.434   0.841 -0.4563  0.2548 -0.1445
  181MOL   H17647336   3.196   1.562   0.688 -1.4841  0.9001  1.1598
  181MOL   H17747337   3.213   1.257   0.658  0.5784  0.2734 -0.5423
  181MOL   H17847338   3.027   1.289   0.506  0.1472 -1.1414  2.3985
  181MOL   H17947339   3.046   1.475   0.540  3.7780  1.1403  0.3345
  181MOL   H18047340   3.273   1.466   0.437 -0.5584 -0.6551 -0.4248
  181MOL   H18147341   3.264   1.288   0.410  0.8146 -0.9849  2.0333
  181MOL   H18247342   3.147   1.468   0.938  0.5046 -1.5495  0.1417
  181MOL   H18347343   3.099   1.326   0.852  1.4627  0.2612  2.5114
  181MOL   C18447344   2.974   1.514   0.825  0.4736 -0.7199  0.4770
  181MOL   C18547345   2.982   1.668   0.843 -1.5301  0.2148 -0.2089
  181MOL   C18647346   2.869   1.758   0.804  0.6933 -0.5951 -0.0053
  181MOL   C18747347   2.993   1.744   0.716 -0.0139 -0.9184 -0.0221
  181MOL   C18847348   2.871   1.451   0.921  0.0173 -0.4263 -0.7049
  181MOL   H18947349   2.936   1.499   0.725 -2.8222  2.0818  1.2090
  181MOL   H19047350   3.030   1.709   0.931 -1.5145 -0.5817  0.1537
  181MOL   H19147351   2.858   1.858   0.847  1.1221 -0.6774  0.2949
  181MOL   H19247352   2.782   1.716   0.754 -0.0375  2.0604 -1.0614
  181MOL   H19347353   3.075   1.816   0.716 -3.1295  2.8718 -1.4273
  181MOL   H19447354   2.974   1.686   0.626  2.7393 -2.4134  0.3319
  181MOL   H19547355   2.792   1.525   0.934 -0.5004 -1.1860  0.5478
  181MOL   H19647356   2.923   1.438   1.016  0.6951  0.5863 -0.9223
  181MOL   C19747357   2.810   1.311   0.874 -0.1497 -0.4202  0.1526
  181MOL   C19847358   2.658   1.323   0.848 -0.1709 -0.3687 -0.1289
  181MOL   C19947359   2.579   1.229   0.757 -0.2061 -0.0670 -0.4405
  181MOL   C20047360   2.587   1.377   0.730 -0.8061  0.7581 -0.2673
  181MOL   C20147361   2.848   1.200   0.971  0.2486 -0.4070 -0.5714
  181MOL   H20247362   2.861   1.283   0.782  0.5379  1.8935 -0.2043
  181MOL   H20347363   2.606   1.343   0.942  1.7940 -0.5456  1.0255
  181MOL   H20447364   2.638   1.166   0.691 -0.5412 -1.3252  0.4239
  181MOL   H20547365   2.494   1.177   0.800  1.0744 -1.4777  0.4386
  181MOL   H20647366   2.641   1.407   0.641 -0.5588 -0.6933 -0.6199
  181MOL   H20747367   2.492   1.424   0.753 -1.0313  0.4155 -0.4884
  181MOL   H20847368   2.947   1.222   1.011 -0.6396  1.7904  0.5455
  181MOL   H20947369   2.783   1.193   1.058 -0.6428  0.1425 -1.1834
  181MOL   C21047370   2.836   1.055   0.916  0.5430  0.3211 -0.3194
  181MOL   C21147371   2.940   1.011   0.823  0.2919 -0.0747 -0.0438
  181MOL   C21247372   2.944   0.893   0.744  0.7048 -0.6948  0.8124
  181MOL   C21347373   2.917   1.027   0.675  0.0636  0.4385  0.3383
  181MOL   C21447374   2.831   0.951   1.025 -0.5130  0.4575  0.1349
  181MOL   H21547375   2.744   1.046   0.858  0.6544 -3.3932 -0.0536
  181MOL   H21647376   3.040   1.032   0.859  0.9362 -1.1324 -1.1735
  181MOL   H21747377   3.039   0.842   0.724  0.3792 -1.6082  1.5463
  181MOL   H21847378   2.872   0.812   0.731  1.0949 -0.7402 -1.3173
  181MOL   H21947379   3.001   1.084   0.635 -0.7399  0.3442 -1.4999
  181MOL   H22047380   2.818   1.045   0.635 -0.4382 -0.6883  1.0493
  181MOL   H22147381   2.823   0.850   0.985  0.4096 -0.3529  1.9368
  181MOL   H22247382   2.927   0.953   1.076 -0.4438  0.5137  0.0024
  181MOL   C22347383   2.722   0.949   1.136 -0.1812 -0.0281  0.6770
  181MOL   C22447384   2.757   0.845   1.245  0.6797 -0.2051 -0.1149
  181MOL   C22547385   2.838   0.873   1.371  0.0899  0.3925 -0.1588
  181MOL   C22647386   2.689   0.855   1.388  0.6486  0.2349 -0.3357
  181MOL   C22747387   2.584   0.910   1.073 -0.3082  0.2460  0.2337
  181MOL   H22847388   2.721   1.048   1.182  1.6219  0.3335 -0.0024
  181MOL   H22947389   2.781   0.743   1.215  0.3053 -1.1554  2.6942
  181MOL   H23047390   2.871   0.975   1.387  2.1323 -0.2380 -0.2638
  181MOL   H23147391   2.908   0.793   1.393 -0.4026  0.0810  0.2831
  181MOL   H23247392   2.644   0.774   1.446  0.1470  1.2197  0.6930
  181MOL   H23347393   2.637   0.949   1.409  0.7196 -0.1619  1.7305
  181MOL   H23447394   2.588   0.966   0.980  1.0470  0.0271  0.1590
  181MOL   H23547395   2.583   0.803   1.057 -2.1279  0.3188 -0.2116
  181MOL   C23647396   2.465   0.973   1.154  0.6096  0.6372 -0.4424
  181MOL   C23747397   2.332   0.901   1.128 -0.0139 -0.4887 -0.3291
  181MOL   C23847398   2.291   0.766   1.189  0.0393  0.3777  0.5204
  181MOL   C23947399   2.228   0.892   1.231  0.8728  0.5545 -0.2085
  181MOL   C24047400   2.455   1.121   1.113 -0.0631  0.4925 -1.0018
  181MOL   H24147401   2.488   0.961   1.260  0.0779  1.7056 -0.2017
  181MOL   H24247402   2.290   0.925   1.031 -1.2523  0.4826  0.4219
  181MOL   H24347403   2.226   0.698   1.134 -0.9195  1.7716 -0.1085
  181MOL   H24447404   2.371   0.718   1.244 -1.2845 -0.9153  1.3593
  181MOL   H24547405   2.244   0.922   1.334 -1.1883 -1.3721  0.7050
  181MOL   H24647406   2.125   0.910   1.198  0.3635 -0.1825  0.9778
  181MOL   H24747407   2.552   1.167   1.097  0.5751 -1.7778 -4.0394
  181MOL   H24847408   2.407   1.131   1.016  0.8274  1.9332 -1.3069
  181MOL   C24947409   2.373   1.214   1.212 -0.5735 -0.2116  0.9045
  181MOL   C25047410   2.375   1.348   1.151  0.4886 -0.8580 -0.4559
  181MOL   C25147411   2.314   1.470   1.215 -0.0063  0.4756  0.3728
  181MOL   C25247412   2.464   1.465   1.184 -0.0076 -0.0286  0.0726
  181MOL   C25347413   2.412   1.213   1.366 -0.5823  0.1587  0.2732
  181MOL   H25447414   2.270   1.179   1.203 -0.6822  0.3337 -0.0716
  181MOL   H25547415   2.357   1.344   1.044  0.3884 -0.0623 -0.4718
  181MOL   H25647416   2.251   1.531   1.151  1.7621  0.9295 -0.9689
  181MOL   H25747417   2.291   1.477   1.322  1.5306  0.6368  0.6965
  181MOL   H25847418   2.505   1.537   1.114 -1.0266 -2.0268 -2.6675
  181MOL   H25947419   2.524   1.449   1.273 -0.1203  0.2407  0.1969
  181MOL   H26047420   2.357   1.280   1.431 -1.2569 -1.1923  1.1185
  181MOL   H26147421   2.515   1.247   1.376  0.4088 -2.5101 -0.3081
  181MOL   H26247422   2.391   1.110   1.397  0.9366 -0.4230 -0.5612
  182MOL     C147423   3.682   6.257   4.648  0.2744 -0.3350  0.8466
  182MOL     C247424   3.711   6.218   4.791 -0.5622  0.0716  0.1001
  182MOL     C347425   3.843   6.152   4.829 -0.0706 -0.1891  0.2764
  182MOL     C447426   3.715   6.072   4.834  0.7146 -0.5760 -0.0753
  182MOL     C547427   3.533   6.250   4.616 -0.1637  0.0784  0.0554
  182MOL     H647428   3.721   6.357   4.630  0.9519 -0.9640 -1.2287
  182MOL     H747429   3.660   6.277   4.867  0.7569  2.2202 -0.6540
  182MOL     H847430   3.914   6.137   4.748 -0.3565  1.0109 -0.2062
  182MOL     H947431   3.894   6.179   4.920 -0.9890  2.0821  0.1606
  182MOL    H1047432   3.681   6.049   4.935  1.5031  1.7419  0.7490
  182MOL    H1147433   3.700   5.990   4.764  1.6726 -1.5205  0.8103
  182MOL    H1247434   3.474   6.324   4.670 -2.1439 -1.5929  0.2267
  182MOL    H1347435   3.497   6.155   4.655  1.2447 -0.0196  1.1883
  182MOL    H1447436   3.743   6.199   4.579 -1.4944 -0.3293 -0.7508
  182MOL    C1547437   3.503   6.252   4.458  0.1716  0.0768 -1.5281
  182MOL    C1647438   3.375   6.180   4.433  0.3649  0.1456 -0.2207
  182MOL    C1747439   3.360   6.029   4.445  0.4355 -0.1713  0.3290
  182MOL    C1847440   3.333   6.098   4.309 -0.4046  0.3463 -0.4084
  182MOL    C1947441   3.517   6.390   4.402  0.4399 -0.2053 -0.0708
  182MOL    H2047442   3.584   6.190   4.421 -0.6916 -1.9184 -0.1729
  182MOL    H2147443   3.294   6.249   4.457 -0.1183 -0.3515 -0.4191
  182MOL    H2247444   3.276   5.985   4.499  0.4529 -0.6760 -0.0519
  182MOL    H2347445   3.443   5.960   4.441  0.3980 -0.2524  0.9059
  182MOL    H2447446   3.398   6.083   4.223 -0.1374 -1.3965  0.0814
  182MOL    H2547447   3.230   6.097   4.273 -0.2663 -2.7170 -0.8605
  182MOL    H2647448   3.602   6.443   4.447  1.3958 -0.2437 -1.8000
  182MOL    H2747449   3.422   6.442   4.415  0.7492 -0.1467  2.2546
  182MOL    C2847450   3.552   6.389   4.255  0.3375  0.6857 -0.0375
  182MOL    C2947451   3.691   6.333   4.230 -0.3923 -0.3795  0.2283
  182MOL    C3047452   3.716   6.192   4.193 -0.8475  0.2440  0.1253
  182MOL    C3147453   3.732   6.303   4.092  0.7837 -0.2495  0.3513
  182MOL    C3247454   3.543   6.521   4.186 -0.4102  0.2271  0.1668
  182MOL    H3347455   3.484   6.320   4.205 -0.0748  0.8518  0.2996
  182MOL    H3447456   3.772   6.377   4.288  0.0007 -1.4890  0.5482
  182MOL    H3547457   3.639   6.115   4.197  1.1316 -1.8132 -0.1543
  182MOL    H3647458   3.808   6.146   4.229 -1.1918 -1.1245 -0.7277
  182MOL    H3747459   3.655   6.311   4.015  1.5265  2.6552 -0.1719
  182MOL    H3847460   3.835   6.320   4.061  0.4488 -1.7680 -1.7634
  182MOL    H3947461   3.578   6.520   4.083  1.1256 -0.6635  0.6739
  182MOL    H4047462   3.615   6.584   4.240  2.6932 -0.0753 -3.4135
  182MOL    C4147463   3.395   6.565   4.180  0.5719  0.2546  0.7322
  182MOL    C4247464   3.315   6.485   4.074  0.3729 -0.0457 -0.2687
  182MOL    C4347465   3.160   6.482   4.084 -0.9943 -0.2831  0.4316
  182MOL    C4447466   3.237   6.366   4.130  0.5050 -0.1539 -0.3222
  182MOL    C4547467   3.387   6.717   4.139  0.0767  0.5029 -0.1820
  182MOL    H4647468   3.342   6.546   4.273 -2.3562 -0.8154 -1.0819
  182MOL    H4747469   3.363   6.465   3.978  1.6194 -0.4522  0.4224
  182MOL    H4847470   3.109   6.537   4.163 -0.5630  1.5128 -0.5023
  182MOL    H4947471   3.101   6.476   3.993 -1.2924  0.3485  0.5801
  182MOL    H5047472   3.198   6.284   4.068 -2.2958  0.5107  0.4678
  182MOL    H5147473   3.240   6.337   4.235  1.1372  0.4536 -0.1720
  182MOL    H5247474   3.425   6.723   4.037  0.5697 -1.1606 -0.1168
  182MOL    H5347475   3.444   6.786   4.200  1.1185 -0.8640  0.3899
  182MOL    C5447476   3.250   6.795   4.151  0.3842  0.0483  0.5868
  182MOL    C5547477   3.222   6.826   4.293 -0.3028 -0.8286  0.6170
  182MOL    C5647478   3.207   6.722   4.400  0.3868 -0.2144  0.3346
  182MOL    C5747479   3.086   6.798   4.350  0.5748  0.6574 -0.2944
  182MOL    C5847480   3.248   6.916   4.061  0.2445  0.4995  0.1853
  182MOL    H5947481   3.168   6.733   4.114 -0.5439  1.1632  0.7626
  182MOL    H6047482   3.275   6.912   4.332 -1.5934 -0.5543  1.8191
  182MOL    H6147483   3.197   6.615   4.385 -0.8642 -0.1586  0.7520
  182MOL    H6247484   3.236   6.741   4.503 -2.4766 -0.1992  1.1827
  182MOL    H6347485   3.048   6.880   4.411 -0.8898 -0.6709  0.6133
  182MOL    H6447486   3.014   6.749   4.285  1.8496  0.2556 -1.4201
  182MOL    H6547487   3.182   6.988   4.110 -0.8952 -0.8782  0.7053
  182MOL    H6647488   3.347   6.962   4.064 -0.3607  1.7720  1.3892
  182MOL    C6747489   3.198   6.895   3.914 -0.5934  0.3995 -0.1913
  182MOL    C6847490   3.053   6.851   3.925 -0.1773 -0.6507  0.0894
  182MOL    C6947491   2.952   6.938   3.992  0.6919 -0.8872  0.2742
  182MOL    C7047492   2.931   6.906   3.843  0.3157  0.1623 -0.1458
  182MOL    C7147493   3.218   7.009   3.816 -0.0471  0.2711  0.4747
  182MOL    H7247494   3.250   6.807   3.875  2.1996  1.3785  1.2275
  182MOL    H7347495   3.035   6.745   3.944 -0.2325 -0.8238 -0.8622
  182MOL    H7447496   2.887   6.892   4.066 -0.2624 -0.7454 -0.4775
  182MOL    H7547497   2.988   7.038   4.015 -1.7336  0.0411  0.1221
  182MOL    H7647498   2.928   6.996   3.782 -1.0375  0.0173 -0.3105
  182MOL    H7747499   2.840   6.848   3.830 -0.3175  1.3087 -0.9723
  182MOL    H7847500   3.146   7.086   3.845  0.2978  1.0828 -0.7627
  182MOL    H7947501   3.184   6.964   3.722 -0.9597  1.1653  0.3638
  182MOL    C8047502   3.353   7.075   3.813 -0.4861 -0.1806  0.3529
  182MOL    C8147503   3.351   7.202   3.732  0.1936  0.5261 -1.0753
  182MOL    C8247504   3.449   7.317   3.754 -0.2890  0.2713  0.1929
  182MOL    C8347505   3.306   7.328   3.795 -0.0314  0.2004  0.3057
  182MOL    C8447506   3.455   6.982   3.748 -0.2642  0.0926  0.3661
  182MOL    H8547507   3.373   7.101   3.917 -0.6957  0.0020  0.3474
  182MOL    H8647508   3.325   7.183   3.628 -0.3920 -0.6819 -0.7260
  182MOL    H8747509   3.475   7.384   3.672  0.0789  0.4790  0.4786
  182MOL    H8847510   3.522   7.306   3.834 -0.1227  0.9747  0.1379
  182MOL    H8947511   3.280   7.324   3.900  0.7510  2.6933  0.6263
  182MOL    H9047512   3.251   7.401   3.735 -0.3753  0.4640  0.9393
  182MOL    H9147513   3.431   6.886   3.795 -2.0653  1.5682  2.5301
  182MOL    H9247514   3.431   6.977   3.641 -1.9575  1.2406  0.6739
  182MOL    C9347515   3.604   6.985   3.774  0.0804 -0.4540  0.4545
  182MOL    C9447516   3.677   7.087   3.683  0.5474 -0.2024  0.4836
  182MOL    C9547517   3.817   7.054   3.631  0.7920  0.5437  0.1372
  182MOL    C9647518   3.699   7.060   3.535 -0.3349 -0.0216 -0.6119
  182MOL    C9747519   3.630   7.010   3.924 -0.4559  0.4513  0.8875
  182MOL    H9847520   3.659   6.895   3.746 -1.8744 -1.4947 -0.1253
  182MOL    H9947521   3.666   7.192   3.711  0.0518 -0.6201  1.8855
  182MOL   H10047522   3.886   7.131   3.597 -0.1563  1.9326  1.2479
  182MOL   H10147523   3.862   6.956   3.623 -0.2935 -0.0228  0.8182
  182MOL   H10247524   3.700   7.146   3.468 -2.0460  0.7621  0.3363
  182MOL   H10347525   3.665   6.966   3.492 -0.0505 -0.4834  0.1641
  182MOL   H10447526   3.551   6.972   3.989  0.1917 -0.5846  1.0796
  182MOL   H10547527   3.625   7.118   3.942  2.0064  0.5563  1.1888
  182MOL   C10647528   3.763   6.964   3.979  0.1796 -0.5884  0.1561
  182MOL   C10747529   3.774   7.022   4.122 -0.4839 -0.3100  0.1866
  182MOL   C10847530   3.912   7.048   4.176 -0.1479  0.4073  0.6412
  182MOL   C10947531   3.816   7.162   4.141  0.1007 -0.0077  0.0085
  182MOL   C11047532   3.783   6.812   3.979  0.0371 -0.1852  0.2933
  182MOL   H11147533   3.843   7.004   3.917 -1.1930  2.6841  0.4038
  182MOL   H11247534   3.707   6.978   4.196 -1.7789 -0.6599 -1.1680
  182MOL   H11347535   3.930   7.022   4.280  0.8671  1.4393  0.7313
  182MOL   H11447536   4.003   7.048   4.116 -0.5931  0.8399 -0.0526
  182MOL   H11547537   3.842   7.213   4.049 -2.4304  0.3413 -0.5551
  182MOL   H11647538   3.785   7.220   4.228 -0.9148 -0.4496 -0.0498
  182MOL   H11747539   3.727   6.774   4.064 -1.9036  2.0777  0.0944
  182MOL   H11847540   3.741   6.752   3.898 -0.4452 -0.3624  0.6691
  182MOL   C11947541   3.932   6.771   4.001 -0.0637  0.6498 -0.1438
  182MOL   C12047542   3.937   6.670   4.108 -0.1604 -0.5159 -0.6055
  182MOL   C12147543   3.903   6.694   4.258  0.6436 -0.0421  0.4941
  182MOL   C12247544   4.053   6.675   4.208  0.0498  0.1134 -0.6599
  182MOL   C12347545   3.978   6.715   3.859 -0.5122  0.4952 -0.2065
  182MOL   H12447546   4.003   6.851   4.021  0.9880 -0.3088 -0.0100
  182MOL   H12547547   3.909   6.572   4.072  0.7419  0.1995 -3.4413
  182MOL   H12647548   3.848   6.611   4.301 -2.1207  0.6600 -1.5655
  182MOL   H12747549   3.883   6.791   4.303 -0.2427  0.4989 -1.0164
  182MOL   H12847550   4.120   6.761   4.209  0.8626 -0.4947 -1.7040
  182MOL   H12947551   4.108   6.582   4.214  0.7811  0.4860 -1.5718
  182MOL   H13047552   3.909   6.634   3.835  0.6401 -0.2248 -1.1139
  182MOL   H13147553   3.952   6.785   3.780 -3.8189 -0.9306 -0.4584
  182MOL   C13247554   4.121   6.678   3.847  0.2861  0.7009 -0.1630
  182MOL   C13347555   4.217   6.797   3.821  0.0224  0.4265 -0.3298
  182MOL   C13447556   4.365   6.784   3.846 -0.6521  0.0799  0.1311
  182MOL   C13547557   4.286   6.881   3.921 -0.2963  0.5717 -0.0522
  182MOL   C13647558   4.128   6.569   3.744  0.5519  0.4553 -0.2387
  182MOL   H13747559   4.156   6.628   3.938 -0.2843 -0.8818 -0.8068
  182MOL   H13847560   4.186   6.856   3.735  0.3785  0.0704 -0.7057
  182MOL   H13947561   4.405   6.700   3.903 -0.3878 -0.0926 -0.3109
  182MOL   H14047562   4.423   6.827   3.765 -1.6145  0.2059 -0.4960
  182MOL   H14147563   4.268   6.849   4.023 -1.3446  0.6970 -0.1930
  182MOL   H14247564   4.309   6.985   3.898  2.2939  0.2029  0.7015
  182MOL   H14347565   4.035   6.519   3.715 -0.1642  0.7047  1.5812
  182MOL   H14447566   4.170   6.615   3.655  1.2983  0.0527 -0.0975
  182MOL   C14547567   4.221   6.460   3.781  0.2396  0.0173  0.4430
  182MOL   C14647568   4.166   6.361   3.884  0.0662 -0.0135  0.1455
  182MOL   C14747569   4.255   6.273   3.965 -0.2250  0.3134  0.3292
  182MOL   C14847570   4.182   6.384   4.034  0.1716 -0.0797 -0.5776
  182MOL   C14947571   4.274   6.376   3.660 -0.7616 -0.2519  0.4413
  182MOL   H15047572   4.308   6.509   3.824  1.9832 -1.8094 -0.8977
  182MOL   H15147573   4.069   6.318   3.859 -0.6476  1.3699  0.4799
  182MOL   H15247574   4.216   6.176   3.994 -2.0304  0.6469 -0.9080
  182MOL   H15347575   4.364   6.278   3.966 -0.0603 -0.9148 -3.5325
  182MOL   H15447576   4.247   6.461   4.075  0.0692 -0.4967  0.3809
  182MOL   H15547577   4.115   6.347   4.112  1.4961 -1.4124 -0.0447
  182MOL   H15647578   4.331   6.292   3.701 -1.1214  0.4591  2.4712
  182MOL   H15747579   4.183   6.328   3.624 -1.6164  0.8633  1.0951
  182MOL   C15847580   4.355   6.443   3.546  0.5556  0.3451 -0.3971
  182MOL   C15947581   4.394   6.345   3.436 -0.2277  0.3055  0.1160
  182MOL   C16047582   4.480   6.230   3.469  0.4825 -0.2490 -0.0069
  182MOL   C16147583   4.346   6.196   3.427  0.1608  0.8553 -0.2408
  182MOL   C16247584   4.481   6.515   3.597  0.2186  0.2084  0.4077
  182MOL   H16347585   4.286   6.517   3.506 -0.2449  0.5745  1.3532
  182MOL   H16447586   4.386   6.387   3.336 -0.3940 -1.7990 -0.7894
  182MOL   H16547587   4.515   6.233   3.572  1.2490 -0.9521 -0.2386
  182MOL   H16647588   4.565   6.207   3.405  0.4445  0.0256 -0.1551
  182MOL   H16747589   4.348   6.148   3.330 -0.8618  1.0958 -0.3797
  182MOL   H16847590   4.267   6.164   3.495  2.2325 -1.6563  1.0963
  182MOL   H16947591   4.542   6.431   3.632  1.1504  0.5642 -0.3393
  182MOL   H17047592   4.449   6.573   3.684  0.4934 -1.0516  1.3750
  182MOL   C17147593   4.557   6.605   3.488  0.0571  0.9668 -0.4881
  182MOL   C17247594   4.464   6.713   3.442  0.5321  0.0510 -0.1375
  182MOL   C17347595   4.516   6.797   3.327  0.1343 -0.7275 -0.4939
  182MOL   C17447596   4.393   6.713   3.313 -0.1119 -0.3687  0.8770
  182MOL   C17547597   4.691   6.667   3.549 -0.3744  0.3828 -0.6515
  182MOL   H17647598   4.570   6.534   3.406 -0.9352 -1.0685  1.0622
  182MOL   H17747599   4.440   6.782   3.523  0.0087 -0.3903  0.0835
  182MOL   H17847600   4.493   6.903   3.334  0.5248 -0.6422 -0.4662
  182MOL   H17947601   4.593   6.763   3.258  1.2906 -0.8513  0.8264
  182MOL   H18047602   4.407   6.628   3.247 -1.3618 -0.3509  0.5726
  182MOL   H18147603   4.294   6.754   3.300 -0.7156 -1.9196  0.5055
  182MOL   H18247604   4.661   6.739   3.625  0.0639  0.7718 -0.8492
  182MOL   H18347605   4.733   6.726   3.468 -1.8313 -0.8140 -2.3391
  182MOL   C18447606   4.794   6.568   3.612  0.4359  0.5252 -0.1658
  182MOL   C18547607   4.924   6.641   3.647 -0.2342 -0.5719 -0.1950
  182MOL   C18647608   4.985   6.620   3.786 -0.0576 -0.3946 -0.4794
  182MOL   C18747609   4.937   6.758   3.735 -0.3702 -0.3891 -0.1496
  182MOL   C18847610   4.825   6.450   3.519  0.3969 -0.4194 -0.1740
  182MOL   H18947611   4.744   6.526   3.700  1.3734 -2.0688 -0.8421
  182MOL   H19047612   5.007   6.635   3.577  0.4458  2.2381  0.3313
  182MOL   H19147613   5.092   6.628   3.806 -0.4519 -0.1661  1.7634
  182MOL   H19247614   4.924   6.569   3.861  0.4424  2.1354  1.7283
  182MOL   H19347615   5.010   6.835   3.711 -1.0195  0.2315 -0.1475
  182MOL   H19447616   4.857   6.803   3.793  0.1510  1.9205 -1.1585
  182MOL   H19547617   4.859   6.498   3.427 -1.5405  2.0831  0.3554
  182MOL   H19647618   4.729   6.402   3.497 -1.3677  2.6100  0.5396
  182MOL   C19747619   4.907   6.330   3.572  0.0670  0.5117  0.1010
  182MOL   C19847620   4.962   6.246   3.460 -0.6467  0.3393  0.1630
  182MOL   C19947621   5.091   6.168   3.479 -0.3830 -0.2906  0.5632
  182MOL   C20047622   5.086   6.290   3.401  0.6358  0.2649  0.2157
  182MOL   C20147623   4.821   6.232   3.664 -0.3169 -0.3256  0.1207
  182MOL   H20247624   4.994   6.368   3.625  0.3861 -2.2643  1.6639
  182MOL   H20347625   4.885   6.210   3.392  0.8802  1.0588 -1.9966
  182MOL   H20447626   5.163   6.180   3.560  0.8273  1.2904 -0.7002
  182MOL   H20547627   5.103   6.080   3.417  1.5555 -0.3091  0.9418
  182MOL   H20647628   5.140   6.368   3.453 -0.4580 -0.8521  3.1271
  182MOL   H20747629   5.100   6.285   3.293  0.2916  0.5824  0.1539
  182MOL   H20847630   4.755   6.299   3.720  2.4111  2.5760  0.0094
  182MOL   H20947631   4.758   6.166   3.604  1.0632  0.4799 -2.3093
  182MOL   C21047632   4.890   6.151   3.770 -0.5508 -0.1860 -0.0027
  182MOL   C21147633   4.953   6.241   3.880  0.2335 -0.7211  0.1599
  182MOL   C21247634   5.055   6.188   3.969  0.0742 -0.1836 -0.1217
  182MOL   C21347635   5.094   6.291   3.859  0.0352  0.1434  0.2826
  182MOL   C21447636   4.797   6.049   3.840  0.5669 -0.1636 -0.0621
  182MOL   H21547637   4.971   6.096   3.723  1.5264  2.9943 -0.3546
  182MOL   H21647638   4.889   6.315   3.927  0.8408  1.1272 -1.8355
  182MOL   H21747639   5.051   6.226   4.071  0.6030  1.7751 -0.7927
  182MOL   H21847640   5.067   6.081   3.959  1.1503 -0.1346  0.5838
  182MOL   H21947641   5.121   6.394   3.882 -0.1132 -0.0083  1.1865
  182MOL   H22047642   5.149   6.253   3.774  0.5754  0.3193  0.5516
  182MOL   H22147643   4.837   6.029   3.939  0.2937  0.8436  0.2509
  182MOL   H22247644   4.699   6.094   3.857  1.3435  1.9053 -0.9916
  182MOL   C22347645   4.782   5.913   3.764 -0.2545  1.0592 -0.6975
  182MOL   C22447646   4.643   5.872   3.742  0.8038 -0.2201 -0.4023
  182MOL   C22547647   4.558   5.912   3.623 -0.2996  0.8198  0.2638
  182MOL   C22647648   4.587   5.764   3.644  1.1464  0.1165  0.6610
  182MOL   C22747649   4.867   5.802   3.816  0.1888 -0.2173 -0.0665
  182MOL   H22847650   4.827   5.938   3.668  1.0237  1.6489  0.0310
  182MOL   H22947651   4.586   5.870   3.834 -0.6700 -0.4229 -1.3027
  182MOL   H23047652   4.604   5.963   3.539 -0.2614  0.6149  0.1601
  182MOL   H23147653   4.459   5.945   3.655 -0.4144  0.5020  0.2420
  182MOL   H23247654   4.515   5.697   3.691  0.3572 -0.0081 -0.7043
  182MOL   H23347655   4.639   5.713   3.563  0.4732  0.2481  0.1462
  182MOL   H23447656   4.964   5.842   3.843  0.3469 -0.6155 -0.0529
  182MOL   H23547657   4.818   5.766   3.906 -0.2561  1.3768  0.3525
  182MOL   C23647658   4.897   5.683   3.721 -0.0155  0.2631  0.0343
  182MOL   C23747659   4.956   5.573   3.810  0.3785  0.0670 -0.2712
  182MOL   C23847660   4.873   5.456   3.858  0.6152 -0.1128 -0.5494
  182MOL   C23947661   4.975   5.431   3.748  0.5379 -0.5333 -0.9291
  182MOL   C24047662   4.999   5.742   3.619  0.1875  0.4051  0.0624
  182MOL   H24147663   4.806   5.651   3.671  0.1585 -0.1370 -0.0346
  182MOL   H24247664   5.032   5.604   3.881  0.7210 -3.2920  0.9174
  182MOL   H24347665   4.884   5.411   3.956 -0.3036 -0.8269 -0.7625
  182MOL   H24447666   4.773   5.438   3.818 -1.3471  1.7477  3.2513
  182MOL   H24547667   4.935   5.398   3.653  0.0462 -0.0987 -0.8725
  182MOL   H24647668   5.068   5.381   3.777  0.4646  0.7005  1.5625
  182MOL   H24747669   4.979   5.839   3.573 -2.4384  0.5444  1.4378
  182MOL   H24847670   5.090   5.767   3.673 -0.0673  2.6415 -0.4842
  182MOL   C24947671   5.036   5.647   3.500 -0.0976  0.1611  0.5132
  182MOL   C25047672   5.137   5.709   3.410  0.0033  0.8156 -0.1548
  182MOL   C25147673   5.288   5.701   3.429 -1.0569 -0.2568 -0.5633
  182MOL   C25247674   5.222   5.637   3.311 -0.3718  0.4474  0.1176
  182MOL   C25347675   4.923   5.587   3.409  0.2763 -0.4384 -0.0615
  182MOL   H25447676   5.081   5.557   3.544  0.8398  1.2663  1.8412
  182MOL   H25547677   5.107   5.811   3.386  1.0347  0.8978 -1.1361
  182MOL   H25647678   5.350   5.786   3.402  0.6578 -1.7387 -1.3639
  182MOL   H25747679   5.338   5.629   3.494 -3.0749 -0.3553  0.9438
  182MOL   H25847680   5.232   5.688   3.216  2.5217 -0.5019 -0.1306
  182MOL   H25947681   5.211   5.529   3.312 -2.3107  0.6221 -0.4982
  182MOL   H26047682   4.897   5.663   3.336 -0.8949  1.2875  2.0857
  182MOL   H26147683   4.836   5.572   3.473  0.7423  3.6054  1.7160
  182MOL   H26247684   4.952   5.497   3.356  0.4029  0.2779 -1.2229
  183MOL     C147685   7.581   1.800   0.515 -0.6117  0.3468 -0.3314
  183MOL     C247686   7.464   1.830   0.606 -0.4490  0.4590  0.2949
  183MOL     C347687   7.382   1.955   0.588  0.6647 -0.8263  0.3824
  183MOL     C447688   7.470   1.945   0.709  0.3356 -0.5322 -0.1642
  183MOL     C547689   7.688   1.701   0.570  0.4069 -0.0357  0.1313
  183MOL     H647690   7.550   1.773   0.415 -0.6894 -0.0664 -0.1948
  183MOL     H747691   7.403   1.743   0.630 -2.8407  2.0288 -0.0326
  183MOL     H847692   7.412   2.027   0.512 -1.8560  0.4355  0.5196
  183MOL     H947693   7.273   1.948   0.593  0.3113  2.4482 -1.4286
  183MOL    H1047694   7.415   1.942   0.802  1.3053 -1.6397  0.3820
  183MOL    H1147695   7.569   1.990   0.710  0.3350 -0.5443  0.5293
  183MOL    H1247696   7.637   1.605   0.579  0.4715 -0.1471 -0.6696
  183MOL    H1347697   7.710   1.725   0.674 -0.3506  1.1226  0.0316
  183MOL    H1447698   7.644   1.888   0.499  0.6044 -0.8089 -2.0138
  183MOL    C1547699   7.811   1.701   0.484 -0.1067 -0.0594  0.1074
  183MOL    C1647700   0.095   1.634   0.556 -0.0662  0.2122  0.2911
  183MOL    C1747701   0.152   1.685   0.686 -0.4578  0.8714  0.7521
  183MOL    C1847702   0.227   1.716   0.563  0.3570  0.4467 -0.4992
  183MOL    C1947703   7.779   1.645   0.346  0.3969 -0.3337 -0.2457
  183MOL    H2047704   0.005   1.804   0.478  3.1279 -0.9351  1.9141
  183MOL    H2147705   0.110   1.534   0.515 -0.2996  0.9161 -1.5842
  183MOL    H2247706   0.177   1.607   0.757 -1.9984  0.0041  0.3641
  183MOL    H2347707   0.088   1.764   0.725  0.4913  2.2675 -0.4305
  183MOL    H2447708   0.221   1.816   0.521 -1.0202  0.3176 -0.6420
  183MOL    H2547709   0.323   1.665   0.567 -0.8565 -1.7756  1.9147
  183MOL    H2647710   7.673   1.652   0.323  0.5351  1.8734 -0.3333
  183MOL    H2747711   7.791   1.537   0.341  0.1509 -0.3840  0.2064
  183MOL    C2847712   0.003   1.727   0.225 -0.9972 -0.2209  0.1613
  183MOL    C2947713   7.778   1.684   0.096 -0.0957 -0.5583 -0.2607
  183MOL    C3047714   7.640   1.738   0.064 -0.1761 -0.0679 -0.0116
  183MOL    C3147715   7.758   1.775   7.816  0.3646 -0.4869  0.6220
  183MOL    C3247716   0.151   1.698   0.219  0.1946 -0.0629 -0.4526
  183MOL    H3347717   7.827   1.834   0.235 -1.6147 -0.1746 -1.2931
  183MOL    H3447718   7.800   1.579   0.080  0.7399 -0.3443 -0.5307
  183MOL    H3547719   7.607   1.808   0.140  1.3272  1.0850 -0.3992
  183MOL    H3647720   7.572   1.660   0.030  0.2591 -0.1973 -0.5940
  183MOL    H3747721   7.806   1.872   7.826  1.6743 -1.0765  0.0730
  183MOL    H3847722   7.776   1.734   7.717  1.0031 -0.6116  0.7895
  183MOL    H3947723   0.160   1.592   0.244  1.1324 -0.0970 -0.9091
  183MOL    H4047724   0.188   1.750   0.308 -2.1546 -0.6399  0.9046
  183MOL    C4147725   0.239   1.746   0.099 -0.1506 -0.4481  0.0693
  183MOL    C4247726   0.376   1.677   0.095  0.4866 -0.0718 -0.7661
  183MOL    C4347727   0.403   1.542   0.145 -0.1189 -0.3869  0.5787
  183MOL    C4447728   0.464   1.657   0.213  0.4001 -0.3420 -0.1638
  183MOL    C4547729   0.258   1.901   0.088 -0.1034 -0.6420  0.3645
  183MOL    H4647730   0.194   1.716   0.004  0.2343  1.0781 -0.6051
  183MOL    H4747731   0.415   1.691   7.834  0.6514 -1.4712 -0.8970
  183MOL    H4847732   0.324   1.497   0.206 -0.2817  0.4549  0.9916
  183MOL    H4947733   0.463   1.474   0.084 -2.1921 -1.8982  0.1401
  183MOL    H5047734   0.569   1.683   0.199  0.5974 -1.2519 -0.3657
  183MOL    H5147735   0.431   1.672   0.316  0.1440  0.0415 -0.3012
  183MOL    H5247736   0.333   1.937   0.159 -0.3153  0.6962 -0.0747
  183MOL    H5347737   0.168   1.949   0.127  0.8046  1.1729  0.2744
  183MOL    C5447738   0.305   1.972   7.794 -0.4122  0.7295  0.1374
  183MOL    C5547739   0.214   1.947   7.678 -0.3049 -0.0263 -0.3347
  183MOL    C5647740   0.234   1.834   7.580 -0.4877  0.6974  0.0192
  183MOL    C5747741   0.263   1.979   7.541 -0.3335 -0.1943 -1.1374
  183MOL    C5847742   0.335   2.125   7.813  0.5027  0.9541 -0.3288
  183MOL    H5947743   0.397   1.915   7.779 -1.8951 -2.0182  1.0382
  183MOL    H6047744   0.112   1.978   7.701 -0.4056 -0.3546 -0.3441
  183MOL    H6147745   0.319   1.769   7.599 -1.8493 -0.6406  1.6608
  183MOL    H6247746   0.148   1.775   7.547 -1.7073  1.9682  0.8863
  183MOL    H6347747   0.195   2.043   7.486 -0.4133 -1.1480 -2.1697
  183MOL    H6447748   0.369   2.004   7.538 -0.5821  0.8612 -1.0895
  183MOL    H6547749   0.271   2.178   7.743  1.3636 -0.5048 -2.2569
  183MOL    H6647750   0.312   2.170   0.070 -2.2044  2.7249 -1.7481
  183MOL    C6747751   0.482   2.147   7.776  0.5129 -0.1300 -0.5980
  183MOL    C6847752   0.511   2.290   7.733 -0.3793  0.8662  0.8405
  183MOL    C6947753   0.614   2.322   7.626 -0.1216  0.0988 -0.0726
  183MOL    C7047754   0.470   2.351   7.599 -0.3848  0.1727 -0.8698
  183MOL    C7147755   0.582   2.076   0.032  0.3867 -0.5604  0.3762
  183MOL    H7247756   0.492   2.090   7.684 -3.6928 -3.6126  0.9155
  183MOL    H7347757   0.499   2.356   7.818  1.3962  1.3252  0.7504
  183MOL    H7447758   0.686   2.402   7.646 -1.8649  0.8631  3.5694
  183MOL    H7547759   0.664   2.238   7.579 -2.1894 -0.3862 -1.4736
  183MOL    H7647760   0.425   2.297   7.516 -3.5144  0.8548  0.3100
  183MOL    H7747761   0.435   2.454   7.602 -0.2170  0.2051  0.3761
  183MOL    H7847762   0.536   1.997   0.091  1.3023 -1.6804 -0.3839
  183MOL    H7947763   0.614   2.155   0.100  0.2031  1.2608 -1.5877
  183MOL    C8047764   0.707   2.015   7.808 -0.3807 -0.3761  0.3575
  183MOL    C8147765   0.692   1.878   7.737 -0.5204 -0.4491 -0.6226
  183MOL    C8247766   0.789   1.830   7.627  0.5764 -0.3581  0.2632
  183MOL    C8347767   0.652   1.880   7.592  0.8099  0.4758  0.7000
  183MOL    C8447768   0.810   1.988   0.082  0.8915  0.4003 -0.0431
  183MOL    H8547769   0.751   2.081   7.733  0.4254 -2.1439 -0.7696
  183MOL    H8647770   0.638   1.804   7.796 -1.5838 -1.4875 -2.8551
  183MOL    H8747771   0.811   1.724   7.616 -0.7796 -0.6700  0.4999
  183MOL    H8847772   0.878   1.891   7.617 -0.8376  1.4569 -1.7604
  183MOL    H8947773   0.644   1.969   7.530  1.4914  0.4947  0.6412
  183MOL    H9047774   0.587   1.799   7.561  1.1753  0.0967  0.9214
  183MOL    H9147775   0.772   1.906   0.143  0.2729  0.5653 -0.2068
  183MOL    H9247776   0.895   1.940   0.034  0.0482  1.2249 -2.4136
  183MOL    C9347777   0.862   2.101   0.177  0.1256 -0.1921  0.1917
  183MOL    C9447778   0.956   2.041   0.288  0.3495 -0.3067  0.7007
  183MOL    C9547779   0.932   2.085   0.438  0.8730 -0.0588  1.1944
  183MOL    C9647780   0.918   1.940   0.396 -0.7282  0.0816  0.4621
  183MOL    C9747781   0.932   2.225   0.114 -0.0617 -0.8102 -0.3409
  183MOL    H9847782   0.773   2.138   0.228 -0.5629 -0.3544 -0.8606
  183MOL    H9947783   1.058   2.022   0.254 -0.6445 -1.9219 -1.4922
  183MOL   H10047784   1.022   2.128   0.479  1.5541 -0.4116  0.0951
  183MOL   H10147785   0.837   2.137   0.450  1.2702  0.6779  1.1255
  183MOL   H10247786   0.997   1.873   0.430 -1.0593 -0.9171 -0.6865
  183MOL   H10347787   0.814   1.910   0.402 -1.2526  2.0028  1.3630
  183MOL   H10447788   0.896   2.235   0.012 -0.1943  4.1811  0.0349
  183MOL   H10547789   1.039   2.209   0.098 -0.4125 -0.9795 -2.5852
  183MOL   C10647790   0.907   2.363   0.184  0.3285 -0.0078  0.0403
  183MOL   C10747791   1.029   2.458   0.170  0.0064 -0.3133  0.3419
  183MOL   C10847792   1.080   2.533   0.293  0.4237 -0.7612  0.4815
  183MOL   C10947793   1.166   2.429   0.233  0.3583  0.7791 -0.2188
  183MOL   C11047794   0.780   2.442   0.137  0.3964  0.1409 -0.1606
  183MOL   H11147795   0.897   2.335   0.289  0.2147 -0.5247 -0.1078
  183MOL   H11247796   1.036   2.529   0.088  1.9048 -1.4651 -0.5405
  183MOL   H11347797   1.110   2.637   0.282 -0.8432 -0.5570 -1.3892
  183MOL   H11447798   1.037   2.514   0.391  1.7102  1.1638  1.4549
  183MOL   H11547799   1.181   2.336   0.288 -2.7902  0.0931 -0.3980
  183MOL   H11647800   1.257   2.467   0.188  1.5862  0.1887  1.7289
  183MOL   H11747801   0.800   2.481   0.037 -0.4278  0.8768 -0.0498
  183MOL   H11847802   0.699   2.372   0.116  0.9125 -0.3430 -0.5720
  183MOL   C11947803   0.722   2.550   0.237  0.0826 -0.8719 -0.5352
  183MOL   C12047804   0.619   2.638   0.169  0.5962  0.7242 -0.5274
  183MOL   C12147805   0.670   2.725   0.054  0.5063  0.1497 -0.2963
  183MOL   C12247806   0.603   2.784   0.172  0.8071 -0.7080  0.4120
  183MOL   C12347807   0.663   2.475   0.360  1.0940  0.8053  0.1528
  183MOL   H12447808   0.804   2.617   0.265 -0.2362 -0.9006  0.5082
  183MOL   H12547809   0.548   2.573   0.119  0.6032 -0.7718  1.3403
  183MOL   H12647810   0.613   2.730   7.801 -1.5209 -2.2150  0.7854
  183MOL   H12747811   0.773   2.758   0.042  0.3850  0.5078 -0.3822
  183MOL   H12847812   0.665   2.846   0.236 -0.3299  1.4910 -0.5647
  183MOL   H12947813   0.503   2.823   0.155  0.8911 -1.7453 -2.7229
  183MOL   H13047814   0.585   2.408   0.323 -0.0084  1.8408  0.5397
  183MOL   H13147815   0.734   2.408   0.408  0.2420 -0.3530 -0.1935
  183MOL   C13247816   0.595   2.567   0.465  0.0854  0.9309 -0.5369
  183MOL   C13347817   0.690   2.626   0.568 -0.0116  0.8397 -0.4571
  183MOL   C13447818   0.676   2.771   0.613 -0.1278 -0.1379 -0.0473
  183MOL   C13547819   0.784   2.725   0.524 -0.2067 -0.3976  0.6875
  183MOL   C13647820   0.484   2.486   0.534  0.3850  0.0300 -0.2175
  183MOL   H13747821   0.543   2.647   0.412 -1.2582 -0.6939 -1.7128
  183MOL   H13847822   0.729   2.559   0.644 -2.5053 -0.2799 -0.0984
  183MOL   H13947823   0.609   2.842   0.564 -1.6547 -0.6240  1.3007
  183MOL   H14047824   0.706   2.805   0.712 -2.1045 -0.1271  0.5726
  183MOL   H14147825   0.780   2.769   0.425 -0.0597  2.0257  1.7194
  183MOL   H14247826   0.884   2.719   0.565  0.5625 -0.2756 -1.1291
  183MOL   H14347827   0.517   2.383   0.545 -2.8949 -1.0812 -0.3367
  183MOL   H14447828   0.460   2.532   0.629  0.1668  1.8489 -1.1291
  183MOL   C14547829   0.352   2.488   0.444 -0.6818 -0.0817  0.3787
  183MOL   C14647830   0.289   2.351   0.443  0.2133  1.2062 -0.1922
  183MOL   C14747831   0.233   2.292   0.314 -0.7786 -0.4336 -0.0187
  183MOL   C14847832   0.354   2.231   0.385  0.5038 -0.4760 -0.1639
  183MOL   C14947833   0.267   2.600   0.507 -0.1753  0.6145  0.0383
  183MOL   H15047834   0.385   2.522   0.346  0.0416  2.2846  1.3838
  183MOL   H15147835   0.216   2.336   0.521 -0.5179  1.4865 -0.8162
  183MOL   H15247836   0.149   2.223   0.321 -1.1380  0.0880  0.7702
  183MOL   H15347837   0.260   2.322   0.213 -0.4449 -1.8722 -0.3751
  183MOL   H15447838   0.445   2.230   0.326 -0.2016 -0.1765 -1.2760
  183MOL   H15547839   0.327   2.131   0.419 -2.5830 -0.3100 -1.8897
  183MOL   H15647840   0.228   2.562   0.602 -0.1627  1.5313  0.4139
  183MOL   H15747841   0.332   2.685   0.529 -0.6081  0.7378  0.8833
  183MOL   C15847842   0.143   2.636   0.413 -0.4081 -0.1513 -1.1133
  183MOL   C15947843   0.191   2.708   0.292  0.5724 -0.0586 -0.0402
  183MOL   C16047844   0.206   2.622   0.167 -0.1113  1.0231 -0.5100
  183MOL   C16147845   0.102   2.727   0.166 -0.2004  0.3532 -0.4875
  183MOL   C16247846   0.044   2.737   0.473 -0.2178 -0.0544  0.2227
  183MOL   H16347847   0.086   2.548   0.381  0.3412 -0.9258 -0.3505
  183MOL   H16447848   0.259   2.789   0.316  2.1715 -2.0686  2.5549
  183MOL   H16547849   0.150   2.530   0.149  0.7865  0.3999 -0.1202
  183MOL   H16647850   0.292   2.631   0.101  0.0724 -0.8430 -0.5409
  183MOL   H16747851   0.125   2.819   0.112  0.3631  1.5786  1.7668
  183MOL   H16847852   7.837   2.698   0.174  0.7770 -3.2399  0.0686
  183MOL   H16947853   7.797   2.756   0.409  0.8738 -2.3835 -1.9966
  183MOL   H17047854   0.093   2.833   0.486 -0.9054  0.1119  1.7189
  183MOL   C17147855   7.824   2.710   0.608  0.0112  0.4018  0.3151
  183MOL   C17247856   7.755   2.836   0.656 -0.1866 -0.0765 -0.3204
  183MOL   C17347857   7.761   2.862   0.809  0.1101 -0.6656  0.5127
  183MOL   C17447858   7.824   2.961   0.713  0.0383  0.1860  0.1661
  183MOL   C17547859   7.723   2.593   0.615  0.1536 -0.2165 -0.3066
  183MOL   H17647860   0.064   2.683   0.677 -1.4375 -2.7414  0.7989
  183MOL   H17747861   7.663   2.857   0.603 -0.4210  1.1763  0.5797
  183MOL   H17847862   7.672   2.904   0.855  0.3967  0.4571  0.0447
  183MOL   H17947863   7.825   2.794   0.866 -0.0993 -1.3555 -0.0569
  183MOL   H18047864   0.093   2.961   0.703  0.2208  2.6895  1.7426
  183MOL   H18147865   7.770   3.054   0.730 -0.5736  0.3008 -2.2231
  183MOL   H18247866   7.661   2.581   0.526  0.2509 -0.0544 -0.3975
  183MOL   H18347867   7.645   2.617   0.687  0.5226 -1.9204  0.6908
  183MOL   C18447868   7.780   2.450   0.648 -0.2136  0.0623  0.1064
  183MOL   C18547869   7.685   2.339   0.589 -0.2116 -0.4973 -0.1630
  183MOL   C18647870   7.734   2.212   0.520  0.1813  0.0781  0.6865
  183MOL   C18747871   7.679   2.332   0.444  0.1039  0.6653 -0.2236
  183MOL   C18847872   7.800   2.435   0.797  0.0932  0.6398 -0.1254
  183MOL   H18947873   0.035   2.447   0.592  0.3665  0.8321  1.0159
  183MOL   H19047874   7.592   2.341   0.644 -1.9348 -2.1894 -2.9084
  183MOL   H19147875   7.678   2.119   0.517 -0.3739  0.4142  0.5285
  183MOL   H19247876   7.838   2.184   0.508 -0.1120 -0.9267  0.4600
  183MOL   H19347877   7.581   2.334   0.397  0.1969 -0.2872 -0.4695
  183MOL   H19447878   7.759   2.389   0.396  1.4512 -1.5986 -0.7492
  183MOL   H19547879   7.702   2.461   0.836 -0.1864 -1.2581  0.4533
  183MOL   H19647880   0.008   2.527   0.833  0.9486 -0.0377  0.5080
  183MOL   C19747881   0.028   2.310   0.848  0.7268 -0.7967  0.4367
  183MOL   C19847882   7.804   2.277   0.982 -0.3526  0.3278 -0.1299
  183MOL   C19947883   7.803   2.136   1.048  0.3259 -0.0267  0.2609
  183MOL   C20047884   7.671   2.205   1.003 -0.4689  0.3818 -0.1653
  183MOL   C20147885   0.180   2.335   0.860 -0.3874  0.1499 -0.1262
  183MOL   H20247886   0.019   2.226   0.779 -0.3108 -0.1692 -0.1940
  183MOL   H20347887   7.809   2.365   1.046 -1.8561  1.2556 -1.2549
  183MOL   H20447888   0.005   2.053   0.991 -0.1977 -0.0666 -0.0573
  183MOL   H20547889   7.804   2.122   1.156 -0.0828 -0.6166  0.1935
  183MOL   H20647890   7.619   2.165   0.916 -1.4912  0.8369  0.2172
  183MOL   H20747891   7.599   2.242   1.076  0.4894 -0.2237  1.0818
  183MOL   H20847892   0.200   2.372   0.759 -0.2002  0.8839  0.1783
  183MOL   H20947893   0.187   2.412   0.937  1.0582 -0.3557  0.2599
  183MOL   C21047894   0.275   2.218   0.891  0.5036 -0.3620  0.6756
  183MOL   C21147895   0.313   2.128   0.771  0.6189 -0.3825 -1.1567
  183MOL   C21247896   0.349   1.982   0.788  0.2319 -0.5937  0.4974
  183MOL   C21347897   0.214   2.017   0.736  0.0168 -0.4439 -0.8555
  183MOL   C21447898   0.397   2.287   0.958 -0.1948 -0.1515 -0.5390
  183MOL   H21547899   0.217   2.163   0.965  0.5019  0.0997  1.0186
  183MOL   H21647900   0.359   2.179   0.687  1.0034 -1.5279 -1.6460
  183MOL   H21747901   0.420   1.938   0.718  0.3623  0.3899 -0.0022
  183MOL   H21847902   0.336   1.927   0.881  1.3622  1.4490  1.9075
  183MOL   H21947903   0.201   1.999   0.629 -0.4246  1.3312 -1.1195
  183MOL   H22047904   0.124   2.011   0.796 -0.6455  1.9981 -1.5532
  183MOL   H22147905   0.440   2.360   0.889  0.8325 -1.6370 -1.4810
  183MOL   H22247906   0.364   2.342   1.046  0.4091 -0.6735  0.0088
  183MOL   C22347907   0.499   2.192   1.017 -0.0108 -0.8987  0.3162
  183MOL   C22447908   0.443   2.121   1.149 -0.3459  0.8450 -0.2715
  183MOL   C22547909   0.440   1.970   1.177  1.0003  0.1721 -0.2282
  183MOL   C22647910   0.527   2.062   1.261 -0.3398 -0.4159  0.0504
  183MOL   C22747911   0.629   2.263   1.049  0.0488 -0.9644  0.0724
  183MOL   H22847912   0.525   2.115   0.944  1.1280 -0.0282 -0.1959
  183MOL   H22947913   0.362   2.170   1.202 -0.6628  0.2041 -0.1499
  183MOL   H23047914   0.480   1.916   1.092 -1.1535 -0.7923 -0.6598
  183MOL   H23147915   0.356   1.929   1.234 -0.3544  1.9174 -0.9288
  183MOL   H23247916   0.489   2.100   1.356 -2.7831 -1.7733 -0.3315
  183MOL   H23347917   0.634   2.046   1.247 -0.5439 -1.6445 -0.1990
  183MOL   H23447918   0.603   2.345   1.116 -0.1274 -0.4391 -0.6362
  183MOL   H23547919   0.692   2.193   1.104 -1.0662 -1.0025  1.3336
  183MOL   C23647920   0.708   2.317   0.932  0.3107 -0.6553 -0.0576
  183MOL   C23747921   0.778   2.205   0.854 -0.6154  0.0798 -0.0514
  183MOL   C23847922   0.710   2.132   0.736 -0.2996 -0.1464  0.2439
  183MOL   C23947923   0.828   2.230   0.712  0.4716 -0.3180  0.3683
  183MOL   C24047924   0.813   2.407   0.999  0.0525 -0.3823  0.9103
  183MOL   H24147925   0.655   2.390   0.871  3.7456  3.1047  1.2197
  183MOL   H24247926   0.849   2.151   0.916  0.3503 -0.9433 -1.9872
  183MOL   H24347927   0.738   2.033   0.702 -0.2418  0.7557 -2.4102
  183MOL   H24447928   0.606   2.154   0.715 -0.3260 -2.1130 -1.8762
  183MOL   H24547929   0.801   2.327   0.670  2.8118  0.4312  0.5060
  183MOL   H24647930   0.925   2.191   0.682  0.1011 -0.9568 -0.0020
  183MOL   H24747931   0.813   2.397   1.107  2.9166 -0.3375  0.9520
  183MOL   H24847932   0.913   2.368   0.980  0.8632  0.9183  2.3824
  183MOL   C24947933   0.808   2.559   0.973 -0.0842 -0.4947  0.5278
  183MOL   C25047934   0.931   2.617   1.035  0.5151 -0.7333  0.0449
  183MOL   C25147935   1.057   2.628   0.957  0.4586 -0.2505 -0.0438
  183MOL   C25247936   0.988   2.756   0.989 -0.6634 -0.1820 -0.6382
  183MOL   C25347937   0.687   2.624   1.036 -0.3128  0.1936 -0.6571
  183MOL   H25447938   0.801   2.582   0.866 -0.7386 -2.2301  0.1780
  183MOL   H25547939   0.955   2.587   1.137 -1.7183 -3.1386 -0.0958
  183MOL   H25647940   1.151   2.604   1.006  0.3553 -0.0131  0.2790
  183MOL   H25747941   1.069   2.597   0.854  0.4115 -0.4463  0.0100
  183MOL   H25847942   1.034   2.815   1.069 -0.2979 -0.8408 -0.3557
  183MOL   H25947943   0.948   2.801   0.899  2.9502 -0.9427 -2.7551
  183MOL   H26047944   0.693   2.733   1.027 -0.1067  0.2358 -0.0032
  183MOL   H26147945   0.670   2.604   1.142 -0.5973  0.0597 -0.7291
  183MOL   H26247946   0.598   2.581   0.990 -1.1829 -0.5104  1.6171
  184MOL     C147947   1.967   3.838   3.960  0.1334  0.2781  0.1733
  184MOL     C247948   1.987   3.948   4.067 -0.0497 -0.0594  0.0422
  184MOL     C347949   2.008   4.087   4.023  0.1243 -0.1275 -0.2805
  184MOL     C447950   2.122   4.005   4.078 -0.4538  0.3011  0.2866
  184MOL     C547951   1.845   3.742   3.982  0.2986  0.0522  0.6469
  184MOL     H647952   1.955   3.895   3.867 -1.8872 -0.9791 -0.3726
  184MOL     H747953   1.927   3.930   4.157  0.6122  0.2708  0.5527
  184MOL     H847954   1.997   4.109   3.917  0.0068  0.1418 -0.2128
  184MOL     H947955   1.973   4.160   4.095  1.2860  0.2530 -0.0832
  184MOL    H1047956   2.166   4.038   4.172 -2.9996 -0.1966  1.6878
  184MOL    H1147957   2.195   3.963   4.009  0.2518 -0.1618  1.3008
  184MOL    H1247958   1.753   3.800   3.968  0.5004  0.4665  1.0252
  184MOL    H1347959   1.862   3.710   4.085 -0.1007 -1.0107  0.3908
  184MOL    H1447960   2.061   3.792   3.931 -1.0204 -0.5119 -2.5175
  184MOL    C1547961   1.832   3.611   3.903  0.6963 -0.3697  0.2832
  184MOL    C1647962   1.802   3.638   3.754  0.8528  0.5684  0.1243
  184MOL    C1747963   1.664   3.692   3.706  0.3202 -0.1179  0.4226
  184MOL    C1847964   1.707   3.555   3.669  0.5971  0.4596  0.0658
  184MOL    C1947965   1.964   3.532   3.915 -0.2678  0.4010  0.7142
  184MOL    H2047966   1.745   3.553   3.934 -0.1386  0.6194 -0.1346
  184MOL    H2147967   1.890   3.679   3.705  0.0530  0.7552 -1.1753
  184MOL    H2247968   1.646   3.759   3.623 -2.0942 -0.7252  0.4167
  184MOL    H2347969   1.589   3.707   3.784 -1.7132  3.0566 -2.0520
  184MOL    H2447970   1.666   3.465   3.715 -1.5465  0.7848 -1.1280
  184MOL    H2547971   1.734   3.532   3.566 -0.3719 -0.1383 -0.0654
  184MOL    H2647972   2.008   3.547   4.014  0.2125  0.0395  0.5611
  184MOL    H2747973   2.038   3.573   3.846 -0.5553 -1.9017 -1.0123
  184MOL    C2847974   1.974   3.373   3.906 -0.9538  0.2680 -0.4751
  184MOL    C2947975   1.883   3.304   3.998  0.4873  0.5957  0.4257
  184MOL    C3047976   1.734   3.290   3.974 -0.3515  0.3079  0.1625
  184MOL    C3147977   1.830   3.167   3.974  0.5340 -0.1059  0.2992
  184MOL    C3247978   2.115   3.320   3.932  0.0871  0.4399 -0.7141
  184MOL    H3347979   1.941   3.346   3.806 -2.7189  0.9533 -0.0873
  184MOL    H3447980   1.909   3.318   4.103 -0.5314 -0.1345  0.7880
  184MOL    H3547981   1.692   3.314   3.877 -1.6200 -0.6165  0.4682
  184MOL    H3647982   1.674   3.291   4.064  0.6920  1.8222  0.8600
  184MOL    H3747983   1.837   3.124   3.875  0.2040  0.0865  0.1923
  184MOL    H3847984   1.837   3.095   4.055 -0.1813 -0.7517 -0.2080
  184MOL    H3947985   2.121   3.211   3.931 -1.8460  0.3150 -0.8720
  184MOL    H4047986   2.137   3.333   4.038 -1.3963  1.3233 -0.5014
  184MOL    C4147987   2.231   3.365   3.836  0.0567  0.0421 -1.1095
  184MOL    C4247988   2.210   3.308   3.695 -0.3496 -1.1436 -0.7362
  184MOL    C4347989   2.296   3.357   3.580  0.4237 -0.4136 -0.0289
  184MOL    C4447990   2.146   3.393   3.586 -0.7326  0.5837  0.4574
  184MOL    C4547991   2.367   3.321   3.890 -0.2776  0.0091 -0.8454
  184MOL    H4647992   2.224   3.473   3.830 -1.9206  0.0925  1.4544
  184MOL    H4747993   2.174   3.205   3.702  0.9029 -1.4179  2.6021
  184MOL    H4847994   2.372   3.432   3.601 -0.3901  0.3197  0.3042
  184MOL    H4947995   2.332   3.277   3.516 -2.0201 -0.4280 -1.4271
  184MOL    H5047996   2.093   3.354   3.499 -0.8504 -0.0160  0.7934
  184MOL    H5147997   2.124   3.496   3.612 -2.6109  1.0810 -2.8730
  184MOL    H5247998   2.444   3.329   3.814  0.2370  0.5370 -0.2683
  184MOL    H5347999   2.365   3.216   3.921  0.0260  0.3557  0.3867
  184MOL    C5448000   2.420   3.395   4.019 -0.0736 -0.0496 -0.2079
  184MOL    C5548001   2.491   3.291   4.106  0.7252  0.0188  0.1812
  184MOL    C5648002   2.413   3.188   4.178  0.3038  0.0978  0.4876
  184MOL    C5748003   2.491   3.300   4.254 -1.0375 -0.2141 -0.6706
  184MOL    C5848004   2.516   3.510   3.978  0.2043  0.5524  0.5949
  184MOL    H5948005   2.336   3.422   4.083 -0.5695 -0.2849 -0.7536
  184MOL    H6048006   2.574   3.243   4.054 -1.6715 -1.6308 -2.2685
  184MOL    H6148007   2.305   3.206   4.178  0.2265 -0.3402 -0.3311
  184MOL    H6248008   2.454   3.088   4.171 -0.8295 -0.2299 -1.9160
  184MOL    H6348009   2.579   3.271   4.311 -1.3294  2.6271  1.3836
  184MOL    H6448010   2.422   3.367   4.306 -1.4172 -1.7498  0.8635
  184MOL    H6548011   2.587   3.523   4.060 -0.6929  0.3094  1.4243
  184MOL    H6648012   2.578   3.480   3.894 -0.8199 -1.4205  0.5139
  184MOL    C6748013   2.452   3.646   3.958  0.0619  0.2045  0.1519
  184MOL    C6848014   2.450   3.672   3.805  0.1651 -0.3575  1.3146
  184MOL    C6948015   2.434   3.814   3.761 -0.3194  0.4174 -0.1316
  184MOL    C7048016   2.566   3.742   3.741 -0.9360 -0.1260  0.3438
  184MOL    C7148017   2.326   3.662   4.034  0.5902 -0.1835 -0.0231
  184MOL    H7248018   2.518   3.725   3.994 -0.3901  0.5144  0.2912
  184MOL    H7348019   2.379   3.618   3.741 -0.8451  3.0418 -0.5848
  184MOL    H7448020   2.381   3.845   3.671  0.5461 -2.0763 -1.5642
  184MOL    H7548021   2.424   3.880   3.847 -2.3330 -0.9372  0.7290
  184MOL    H7648022   2.641   3.782   3.810 -3.1516 -0.4362  3.0379
  184MOL    H7748023   2.592   3.704   3.643 -1.6382  0.1759  0.0427
  184MOL    H7848024   2.245   3.592   4.012 -1.1950  0.8728  2.8948
  184MOL    H7948025   2.289   3.759   4.001  0.2613 -0.2969  0.0117
  184MOL    C8048026   2.344   3.673   4.184  0.5556 -0.2010  0.2296
  184MOL    C8148027   2.200   3.661   4.258 -0.0775  0.3427  0.1091
  184MOL    C8248028   2.191   3.599   4.393  0.4539 -0.7747 -0.8039
  184MOL    C8348029   2.124   3.529   4.276  0.6412  0.0480 -0.0377
  184MOL    C8448030   2.412   3.801   4.228  0.1596 -0.3127  0.1085
  184MOL    H8548031   2.398   3.587   4.225  1.9001  0.3798 -0.3210
  184MOL    H8648032   2.143   3.753   4.244  2.1182  1.6593 -0.4777
  184MOL    H8748033   2.125   3.642   4.468  0.6377 -1.1724 -0.4093
  184MOL    H8848034   2.276   3.542   4.429 -2.1112 -3.9690  0.4649
  184MOL    H8948035   2.165   3.435   4.239  1.4365 -0.3842  1.8898
  184MOL    H9048036   2.015   3.538   4.273  0.8743  3.1397 -0.2780
  184MOL    H9148037   2.427   3.872   4.146 -2.2226 -0.2601 -0.3140
  184MOL    H9248038   2.351   3.848   4.305  0.5648  0.8448 -0.2627
  184MOL    C9348039   2.546   3.777   4.292 -0.4134 -0.1106 -0.1107
  184MOL    C9448040   2.636   3.894   4.311 -0.6085  0.7702 -0.3797
  184MOL    C9548041   2.780   3.893   4.261 -0.2785  0.5497 -0.0255
  184MOL    C9648042   2.671   3.980   4.191  0.6496 -0.2133  0.2760
  184MOL    C9748043   2.534   3.711   4.435  0.3009 -0.1994 -0.4010
  184MOL    H9848044   2.601   3.705   4.231 -3.3986 -1.4920 -1.2145
  184MOL    H9948045   2.624   3.947   4.405  2.9913  1.5056 -0.2387
  184MOL   H10048046   2.851   3.950   4.321  0.1236  0.0914 -0.0624
  184MOL   H10148047   2.807   3.795   4.223 -1.5042  0.2968 -0.2683
  184MOL   H10248048   2.680   4.088   4.197  1.2860 -0.3429  1.6148
  184MOL   H10348049   2.618   3.946   4.102  1.9667  1.0677 -1.0283
  184MOL   H10448050   2.483   3.615   4.421  1.3450 -0.6439 -1.1683
  184MOL   H10548051   2.479   3.782   4.497 -0.2987 -1.0858  0.1044
  184MOL   C10648052   2.664   3.660   4.498  0.0481 -0.2701 -0.1462
  184MOL   C10748053   2.661   3.674   4.652 -0.2957  0.1922  0.2553
  184MOL   C10848054   2.771   3.745   4.729 -0.1104 -0.2736 -0.2625
  184MOL   C10948055   2.633   3.809   4.713  0.0896 -0.3403 -0.3663
  184MOL   C11048056   2.697   3.514   4.463  0.4470 -0.1077  0.1194
  184MOL   H11148057   2.742   3.727   4.460  0.7583 -0.6153  0.6818
  184MOL   H11248058   2.609   3.588   4.695 -1.7098  0.5985 -0.6204
  184MOL   H11348059   2.794   3.684   4.816 -1.0116  0.2034  0.3106
  184MOL   H11448060   2.860   3.791   4.685 -0.2125 -0.3147 -0.5173
  184MOL   H11548061   2.627   3.894   4.646  0.9719  0.2449  0.2720
  184MOL   H11648062   2.562   3.808   4.796  2.7767 -0.1654  2.0484
  184MOL   H11748063   2.630   3.450   4.521  0.7307 -0.3514  0.1758
  184MOL   H11848064   2.664   3.506   4.359  3.1458 -0.6668 -0.7177
  184MOL   C11948065   2.842   3.473   4.479 -0.0284 -0.1792  0.5646
  184MOL   C12048066   2.861   3.335   4.541  1.1678 -0.2710 -0.4375
  184MOL   C12148067   2.812   3.294   4.681  0.5162 -0.3395  0.7214
  184MOL   C12248068   2.959   3.305   4.657 -0.4245  0.4222 -0.1836
  184MOL   C12348069   2.922   3.487   4.351  0.5037 -0.3114 -0.4856
  184MOL   H12448070   2.894   3.540   4.547 -1.3911  0.7752  0.6924
  184MOL   H12548071   2.849   3.256   4.467  0.8125 -0.6016 -0.0315
  184MOL   H12648072   2.782   3.193   4.708 -1.8748 -0.5197 -2.3022
  184MOL   H12748073   2.769   3.370   4.746 -0.2973  0.1441 -0.3518
  184MOL   H12848074   3.005   3.392   4.704 -1.6138  1.5355 -1.0639
  184MOL   H12948075   3.018   3.213   4.658 -1.8036 -0.4853 -0.9257
  184MOL   H13048076   2.902   3.408   4.280 -0.2475 -0.9938  0.4733
  184MOL   H13148077   2.892   3.572   4.289  2.9837  0.0226 -1.2534
  184MOL   C13248078   3.072   3.512   4.377 -0.5596 -0.2474  0.0120
  184MOL   C13348079   3.092   3.639   4.457 -0.2500 -0.4483 -0.3417
  184MOL   C13448080   3.231   3.683   4.508 -1.2562 -0.0565  0.3480
  184MOL   C13548081   3.127   3.638   4.603 -0.3339 -0.1278 -0.4048
  184MOL   C13648082   3.148   3.519   4.241  0.1036 -0.3211  0.1955
  184MOL   H13748083   3.113   3.431   4.437  0.6724  0.9743  0.8559
  184MOL   H13848084   3.043   3.724   4.408  2.4932  1.0326 -0.6261
  184MOL   H13948085   3.312   3.611   4.497 -1.1600  0.5043 -3.0994
  184MOL   H14048086   3.265   3.786   4.511  0.4229 -0.6370  2.3082
  184MOL   H14148087   3.153   3.541   4.647  2.1214  0.1670 -1.1106
  184MOL   H14248088   3.066   3.705   4.662  0.1726  0.1124 -0.1558
  184MOL   H14348089   3.089   3.569   4.165  2.1803  0.0762 -1.1742
  184MOL   H14448090   3.236   3.582   4.241 -0.7574  0.8928 -0.0965
  184MOL   C14548091   3.182   3.378   4.185  0.3554  0.0246 -0.4360
  184MOL   C14648092   3.167   3.380   4.036  0.3022 -0.2790 -0.2522
  184MOL   C14748093   3.127   3.254   3.953  0.5689  0.2021  0.4008
  184MOL   C14848094   3.045   3.383   3.959  0.0932  0.0976 -0.1050
  184MOL   C14948095   3.321   3.340   4.234 -0.1922  0.3398 -0.4231
  184MOL   H15048096   3.109   3.305   4.217  0.7672  0.5512  1.7851
  184MOL   H15148097   3.246   3.436   3.985  1.2608 -0.6816  0.7798
  184MOL   H15248098   3.144   3.237   3.847 -0.1029 -0.0123  0.3218
  184MOL   H15348099   3.075   3.174   4.005 -0.7453  0.0990 -1.0126
  184MOL   H15448100   2.954   3.369   4.016  1.1990 -1.2016  1.3535
  184MOL   H15548101   3.038   3.445   3.869 -0.3690 -1.8744 -1.4733
  184MOL   H15648102   3.383   3.403   4.170  0.5021 -1.8607 -1.9940
  184MOL   H15748103   3.318   3.360   4.341  0.3167  0.0985 -0.3660
  184MOL   C15848104   3.357   3.196   4.208 -0.1308  0.1018  0.2291
  184MOL   C15948105   3.309   3.101   4.319 -0.0586  0.2152  0.7734
  184MOL   C16048106   3.172   3.038   4.315 -0.0032  0.1823 -0.7645
  184MOL   C16148107   3.296   2.951   4.303  0.0869  0.2618  0.7424
  184MOL   C16248108   3.517   3.185   4.199 -0.3211  0.0077  0.4006
  184MOL   H16348109   3.317   3.155   4.115 -2.5943 -0.7545  1.6226
  184MOL   H16448110   3.355   3.128   4.414  1.2218 -1.0050  0.5257
  184MOL   H16548111   3.117   3.053   4.222 -1.6482 -2.1877 -0.2256
  184MOL   H16648112   3.109   3.030   4.404  0.2590 -0.4176 -0.6285
  184MOL   H16748113   3.323   2.888   4.388  1.7976  1.6452  1.2564
  184MOL   H16848114   3.339   2.916   4.209  2.3953 -0.6385  2.0732
  184MOL   H16948115   3.558   3.206   4.298 -1.2397 -0.8363  0.9807
  184MOL   H17048116   3.542   3.271   4.137  0.8728  0.0724  0.9607
  184MOL   C17148117   3.583   3.059   4.139 -0.1154  0.3392  0.3947
  184MOL   C17248118   3.550   3.041   3.987 -0.2887  0.2670  0.6317
  184MOL   C17348119   3.604   2.924   3.906 -0.0927  0.4268 -0.6419
  184MOL   C17448120   3.463   2.924   3.948  0.0219  0.2061  0.1686
  184MOL   C17548121   3.734   3.064   4.158  0.4628 -0.0832  0.5622
  184MOL   H17648122   3.554   2.965   4.186  1.7462 -0.0698  0.7773
  184MOL   H17748123   3.547   3.136   3.935 -0.2325 -0.1717 -0.1890
  184MOL   H17848124   3.617   2.933   3.798 -0.5627  0.5353 -0.6925
  184MOL   H17948125   3.664   2.851   3.959 -1.1843 -0.3022 -0.3804
  184MOL   H18048126   3.439   2.852   4.026 -1.0538  0.0088 -0.3454
  184MOL   H18148127   3.402   2.922   3.859 -0.4187 -1.9158  0.5099
  184MOL   H18248128   3.770   3.153   4.108 -1.9851 -0.2252 -1.5575
  184MOL   H18348129   3.784   2.976   4.116  2.0252  0.2892  1.6187
  184MOL   C18448130   3.774   3.064   4.314 -0.0274 -0.4640 -0.3418
  184MOL   C18548131   3.930   3.055   4.316 -0.3233 -0.4513 -1.4270
  184MOL   C18648132   4.010   3.117   4.428  0.1368  0.0407  0.2455
  184MOL   C18748133   4.016   3.179   4.289 -0.1789  0.3073 -0.1792
  184MOL   C18848134   3.706   2.944   4.392  0.5457  0.3658 -0.8097
  184MOL   H18948135   3.745   3.162   4.351 -0.0581  0.1890 -2.0497
  184MOL   H19048136   3.971   2.963   4.275  3.7921 -0.2072  1.8913
  184MOL   H19148137   4.092   3.052   4.459 -0.4620 -0.4880  0.7456
  184MOL   H19248138   3.957   3.180   4.499  2.1743  2.8863 -0.6547
  184MOL   H19348139   4.105   3.160   4.228 -0.4226 -0.0293 -0.4277
  184MOL   H19448140   3.963   3.271   4.266 -0.0910 -0.1950 -2.4690
  184MOL   H19548141   3.731   2.862   4.325 -1.3921  0.4706 -1.7184
  184MOL   H19648142   3.598   2.962   4.390  0.7148  1.5722  0.2929
  184MOL   C19748143   3.738   2.924   4.540  0.3749 -0.6793 -0.0575
  184MOL   C19848144   3.678   2.794   4.597  0.5470 -0.2163 -0.6896
  184MOL   C19948145   3.745   2.708   4.705 -0.5112  0.8590  0.4263
  184MOL   C20048146   3.741   2.661   4.565  0.3583 -0.3206 -0.3033
  184MOL   C20148147   3.688   3.056   4.612  0.0114  0.6385 -0.1758
  184MOL   H20248148   3.843   2.923   4.569  0.1235  0.5713  0.9136
  184MOL   H20348149   3.570   2.797   4.590  0.4762  0.9773  0.8334
  184MOL   H20448150   3.844   2.718   4.747 -0.2932  0.8414 -0.0775
  184MOL   H20548151   3.680   2.665   4.781  0.7853 -1.7923  0.0711
  184MOL   H20648152   3.840   2.665   4.519  0.0682  0.1879 -0.8801
  184MOL   H20748153   3.673   2.580   4.540 -0.1338 -0.3254  0.9744
  184MOL   H20848154   3.737   3.142   4.565 -1.5690  0.3779 -2.4003
  184MOL   H20948155   3.584   3.082   4.596 -0.8229 -2.3396  0.1416
  184MOL   C21048156   3.717   3.073   4.764  0.1973 -0.6931 -0.5275
  184MOL   C21148157   3.862   3.115   4.791  0.4095 -0.2757  0.1339
  184MOL   C21248158   3.924   3.103   4.927  0.1749  0.4504  0.2393
  184MOL   C21348159   3.958   3.004   4.820 -0.3306 -0.1868 -0.6776
  184MOL   C21448160   3.625   3.169   4.832 -0.9258 -0.1076 -0.3944
  184MOL   H21548161   3.707   2.978   4.818 -1.0190 -0.4009 -0.2275
  184MOL   H21648162   3.895   3.207   4.743  1.0447 -0.4442  0.2430
  184MOL   H21748163   4.009   3.166   4.950 -0.7522  2.0106 -0.4591
  184MOL   H21848164   3.859   3.077   5.010 -0.2614  1.4684  0.2274
  184MOL   H21948165   4.050   3.017   4.763 -1.6711  1.3741 -2.5597
  184MOL   H22048166   3.910   2.907   4.827 -0.8347  0.2478  2.3445
  184MOL   H22148167   3.668   3.211   4.923 -1.3410  0.5191 -0.4857
  184MOL   H22248168   3.628   3.248   4.757 -0.5681 -1.4270 -1.7973
  184MOL   C22348169   3.480   3.115   4.858  0.1872  0.6228  0.0965
  184MOL   C22448170   3.391   3.234   4.875  0.0604 -0.3959  0.7575
  184MOL   C22548171   3.342   3.306   4.754 -0.9055  0.4545  0.2706
  184MOL   C22648172   3.239   3.247   4.845  0.0677  0.3359 -0.1465
  184MOL   C22748173   3.474   3.013   4.981  0.2355 -0.0425  0.3091
  184MOL   H22848174   3.450   3.056   4.772  0.1496  1.9501 -0.8116
  184MOL   H22948175   3.438   3.303   4.946 -0.4297  1.0154 -0.2699
  184MOL   H23048176   3.337   3.250   4.661  0.2329  1.2238 -0.2564
  184MOL   H23148177   3.349   3.414   4.749 -2.7780  0.7363  2.7621
  184MOL   H23248178   3.173   3.321   4.889 -2.5762 -0.9215 -1.8469
  184MOL   H23348179   3.177   3.165   4.808  0.5806 -0.2483  0.2788
  184MOL   H23448180   3.566   2.957   4.997  1.7958  2.3810  0.0269
  184MOL   H23548181   3.484   3.078   5.068 -0.4159  1.8849 -1.0131
  184MOL   C23648182   3.361   2.908   4.994 -0.4349 -0.1761 -0.0224
  184MOL   C23748183   3.352   2.839   5.126 -0.1775 -0.4037  0.2642
  184MOL   C23848184   3.294   2.915   5.257  0.2735  0.1901 -0.2233
  184MOL   C23948185   3.225   2.793   5.198 -0.3844 -0.5408  0.0912
  184MOL   C24048186   3.374   2.797   4.895  0.6026  0.2884  0.7886
  184MOL   H24148187   3.264   2.957   4.985 -0.5190 -0.6416 -1.8299
  184MOL   H24248188   3.438   2.777   5.150 -0.0401  0.1676  1.2886
  184MOL   H24348189   3.352   2.906   5.348  3.1039 -4.3894 -2.2900
  184MOL   H24448190   3.241   3.009   5.239  0.9688  0.5870 -0.2249
  184MOL   H24548191   3.133   2.804   5.141  0.9471 -1.7141 -2.3639
  184MOL   H24648192   3.224   2.700   5.255 -1.6335 -0.9969 -0.6448
  184MOL   H24748193   3.387   2.841   4.796 -0.4540 -0.8193  0.1304
  184MOL   H24848194   3.474   2.759   4.916  1.0019  1.3726  0.8369
  184MOL   C24948195   3.259   2.682   4.884 -0.0500 -0.0111 -0.5109
  184MOL   C25048196   3.317   2.555   4.840 -0.0265  0.7042 -0.1794
  184MOL   C25148197   3.379   2.451   4.940  0.0063  0.4345  0.5381
  184MOL   C25248198   3.245   2.432   4.884 -0.2023  0.2803 -0.4587
  184MOL   C25348199   3.154   2.732   4.785 -0.3418  0.1207  0.3152
  184MOL   H25448200   3.215   2.657   4.980  2.1138 -0.7145  0.3207
  184MOL   H25548201   3.375   2.563   4.749 -0.9464 -2.7319 -1.1494
  184MOL   H25648202   3.467   2.399   4.904  0.0767  0.3622  0.8136
  184MOL   H25748203   3.380   2.479   5.046  0.2415  1.8994  0.1583
  184MOL   H25848204   3.231   2.351   4.813  1.9572 -0.4377 -0.1135
  184MOL   H25948205   3.174   2.422   4.966 -0.6924 -0.0219 -0.9204
  184MOL   H26048206   3.122   2.832   4.815  0.4664 -0.4240  3.1488
  184MOL   H26148207   3.066   2.668   4.777 -0.4759  0.4133 -0.5724
  184MOL   H26248208   3.205   2.755   4.692 -3.2553  1.1284 -1.0851
  185MOL     C148209   1.112   6.326   3.405  0.0898 -0.5363 -0.8138
  185MOL     C248210   1.035   6.461   3.420  0.0079 -0.6164  1.1819
  185MOL     C348211   0.896   6.476   3.356 -0.3071 -0.4020 -0.8787
  185MOL     C448212   1.014   6.556   3.302 -0.6065 -0.0779  0.1034
  185MOL     C548213   1.262   6.323   3.407  0.6478  0.0491 -0.1708
  185MOL     H648214   1.065   6.256   3.474 -0.8195  1.2666  0.4686
  185MOL     H748215   1.052   6.518   3.511  0.5884 -0.2719  0.8590
  185MOL     H848216   0.860   6.392   3.299 -0.4262  0.8390 -2.6815
  185MOL     H948217   0.815   6.529   3.406  0.6723  0.1893  0.1208
  185MOL    H1048218   1.003   6.663   3.323 -1.0632 -0.1052 -0.0006
  185MOL    H1148219   1.051   6.533   3.203  1.0899  2.0405  0.2027
  185MOL    H1248220   1.304   6.342   3.506 -2.9436 -2.3535  1.9036
  185MOL    H1348221   1.292   6.406   3.342 -0.7912  0.8938  0.2172
  185MOL    H1448222   1.090   6.289   3.305  1.6751 -0.1252 -1.3256
  185MOL    C1548223   1.326   6.192   3.360 -0.4041  0.1387 -0.2739
  185MOL    C1648224   1.459   6.233   3.315 -0.2128  1.0312  0.2404
  185MOL    C1748225   1.490   6.320   3.203  1.2758  0.2576  0.3410
  185MOL    C1848226   1.520   6.172   3.192  0.9038  0.5361  0.1640
  185MOL    C1948227   1.325   6.074   3.466 -0.1397  0.9938 -0.5033
  185MOL    H2048228   1.274   6.162   3.269  0.3798 -1.0535 -0.3428
  185MOL    H2148229   1.526   6.256   3.396  0.5717  2.2530 -0.7436
  185MOL    H2248230   1.566   6.391   3.236  1.2889  1.2075 -1.6143
  185MOL    H2348231   1.409   6.363   3.144  1.2011 -0.2109  0.1029
  185MOL    H2448232   1.460   6.109   3.127  0.6944 -0.2004  1.0611
  185MOL    H2548233   1.627   6.155   3.202  1.4215  2.3577 -1.9107
  185MOL    H2648234   1.349   6.109   3.566  3.1693 -1.6585 -0.2636
  185MOL    H2748235   1.407   6.008   3.437 -1.6655 -0.9258 -0.6049
  185MOL    C2848236   1.204   5.975   3.487  0.1965 -0.1024 -0.2242
  185MOL    C2948237   1.218   5.898   3.612  0.0424 -0.0945  0.4562
  185MOL    C3048238   1.179   5.953   3.746  0.1484 -0.0970 -0.0015
  185MOL    C3148239   1.090   5.845   3.689  0.1516  0.0910  0.7998
  185MOL    C3248240   1.183   5.884   3.362 -0.1167 -0.1025  0.3456
  185MOL    H3348241   1.123   6.046   3.502  1.6855  1.8503 -1.2247
  185MOL    H3448242   1.308   5.837   3.613  0.3695  0.3757 -0.2931
  185MOL    H3548243   1.134   6.052   3.756 -1.6360 -0.8475 -0.4361
  185MOL    H3648244   1.252   5.922   3.820 -0.3472  0.8646  0.9023
  185MOL    H3748245   0.995   5.860   3.639  0.5244  2.5052  0.7988
  185MOL    H3848246   1.104   5.745   3.731 -3.2458 -0.2459  1.2730
  185MOL    H3948247   1.278   5.848   3.324 -0.3203 -1.2488  0.8758
  185MOL    H4048248   1.156   5.954   3.283  1.4209  1.0557  0.8322
  185MOL    C4148249   1.079   5.772   3.365 -0.3762  0.1165  0.3830
  185MOL    C4248250   1.160   5.639   3.398  0.0003  0.7390  0.1437
  185MOL    C4348251   1.213   5.548   3.290  0.4644 -0.0331 -0.2561
  185MOL    C4448252   1.104   5.497   3.388 -0.9987  0.1328 -0.0341
  185MOL    C4548253   0.995   5.763   3.234  0.0969 -0.1561 -0.4005
  185MOL    H4648254   1.013   5.795   3.449  1.9910  0.3777  2.2205
  185MOL    H4748255   1.216   5.655   3.490 -0.8031 -0.1572  0.7997
  185MOL    H4848256   1.190   5.575   3.188 -3.3908 -0.3502  0.4671
  185MOL    H4948257   1.313   5.508   3.302  0.3028  0.0776  1.6047
  185MOL    H5048258   1.147   5.425   3.459  0.2777  0.6970 -0.2259
  185MOL    H5148259   0.999   5.495   3.361 -0.8631  0.9507 -0.6017
  185MOL    H5248260   0.975   5.658   3.214  0.9718 -0.3906 -0.0593
  185MOL    H5348261   1.053   5.794   3.146 -0.5273  0.8324 -0.4793
  185MOL    C5448262   0.861   5.829   3.237  0.7594  0.3826 -0.0954
  185MOL    C5548263   0.871   5.966   3.310 -0.0055  0.1005  0.0446
  185MOL    C5648264   0.838   5.992   3.454  0.4075  0.5065 -1.0104
  185MOL    C5748265   0.741   6.032   3.344  0.2118 -0.0791  0.3817
  185MOL    C5848266   0.805   5.857   3.095  0.2106  0.0463  0.5496
  185MOL    H5948267   0.789   5.769   3.293  1.0615 -1.3474 -1.5493
  185MOL    H6048268   0.939   6.032   3.257  2.1308 -0.1526  2.3881
  185MOL    H6148269   0.811   5.901   3.507  1.2452  1.4967  1.1910
  185MOL    H6248270   0.894   6.067   3.510 -1.7819  0.8324  0.8548
  185MOL    H6348271   0.718   6.135   3.321  0.2437  0.2353  1.6993
  185MOL    H6448272   0.653   5.969   3.333  0.1949 -0.1039  0.6612
  185MOL    H6548273   0.704   5.890   3.118  0.4186 -1.2207  3.4002
  185MOL    H6648274   0.855   5.945   3.053  0.1580  0.9651  2.3659
  185MOL    C6748275   0.782   5.743   2.985  0.1911 -0.1671 -0.2285
  185MOL    C6848276   0.693   5.627   3.035 -0.1128  0.0098 -0.3962
  185MOL    C6948277   0.676   5.496   2.965  0.4093 -0.0419 -0.1738
  185MOL    C7048278   0.765   5.503   3.088 -0.6861  0.2466  0.3718
  185MOL    C7148279   0.733   5.799   2.848  0.7051  0.5349 -0.0757
  185MOL    H7248280   0.883   5.703   2.982  1.5619  3.1752  0.0482
  185MOL    H7348281   0.603   5.662   3.085  0.1547  0.9543 -0.5593
  185MOL    H7448282   0.573   5.466   2.982  1.0637 -2.8867 -0.9432
  185MOL    H7548283   0.725   5.468   2.872 -1.0892 -0.5147 -0.8275
  185MOL    H7648284   0.869   5.477   3.069 -1.0045 -0.0693 -1.0280
  185MOL    H7748285   0.715   5.458   3.173 -1.2710  1.8964  0.9232
  185MOL    H7848286   0.691   5.899   2.857 -1.9039 -0.4646 -0.6608
  185MOL    H7948287   0.647   5.744   2.810  1.6945 -1.6761  0.7547
  185MOL    C8048288   0.849   5.808   2.746 -0.3519  0.0160  0.0590
  185MOL    C8148289   0.834   5.927   2.650 -0.1209  0.0957  0.3506
  185MOL    C8248290   0.947   6.012   2.596 -0.3666 -0.3541  0.5837
  185MOL    C8348291   0.850   6.069   2.695 -0.9906  1.4430  0.3967
  185MOL    C8448292   0.872   5.678   2.659  0.2923 -0.4211  0.0621
  185MOL    H8548293   0.944   5.821   2.798 -0.3834  0.5232 -0.0091
  185MOL    H8648294   0.745   5.922   2.587 -0.3679  0.7352  0.6484
  185MOL    H8748295   0.937   6.035   2.490  2.1343  0.6024  0.5313
  185MOL    H8848296   1.051   6.003   2.625 -0.2205 -0.8217 -0.0668
  185MOL    H8948297   0.895   6.093   2.792  2.3750 -1.1751 -0.4048
  185MOL    H9048298   0.792   6.148   2.649 -1.7506  0.9699  0.5314
  185MOL    H9148299   0.821   5.599   2.714  1.8832 -1.5901 -0.1153
  185MOL    H9248300   0.824   5.691   2.562  1.5025  0.9921 -0.3703
  185MOL    C9348301   1.016   5.624   2.654  0.1448 -0.0156 -0.3449
  185MOL    C9448302   1.072   5.580   2.788 -0.1541  0.0281 -0.3210
  185MOL    C9548303   1.222   5.562   2.807  0.1057 -0.1959  0.4002
  185MOL    C9648304   1.150   5.669   2.881 -0.6572  0.5056 -0.3246
  185MOL    C9748305   1.031   5.509   2.552  0.4454 -0.2935 -0.4559
  185MOL    H9848306   1.074   5.709   2.619  1.8098 -0.3190  1.6190
  185MOL    H9948307   1.006   5.505   2.831  1.2415 -1.5003 -0.8153
  185MOL   H10048308   1.243   5.465   2.851 -2.6382 -0.0446  2.1592
  185MOL   H10148309   1.283   5.598   2.724 -1.3844  1.3955 -0.0340
  185MOL   H10248310   1.113   5.660   2.983  1.3978 -0.7717  0.3184
  185MOL   H10348311   1.180   5.771   2.858 -0.2488  0.4333 -0.1156
  185MOL   H10448312   0.962   5.431   2.584  0.7532  0.0921  1.2472
  185MOL   H10548313   1.129   5.461   2.555  0.0334 -1.0678  2.1166
  185MOL   C10648314   1.004   5.540   2.407 -0.0846 -0.2416  0.2288
  185MOL   C10748315   1.118   5.612   2.344  0.4675 -0.5729  0.4955
  185MOL   C10848316   1.087   5.711   2.226  0.2424 -0.2518 -0.1449
  185MOL   C10948317   1.136   5.763   2.366  0.0016 -0.6608 -0.0200
  185MOL   C11048318   0.964   5.410   2.332  0.4017  0.4676 -0.4197
  185MOL   H11148319   0.918   5.607   2.408  0.5392  0.5929 -0.3286
  185MOL   H11248320   1.214   5.561   2.347  1.3862  1.1976  2.2047
  185MOL   H11348321   1.168   5.716   2.154  2.6917  0.8404  2.5809
  185MOL   H11448322   0.989   5.744   2.192 -0.4970 -0.5425  1.5901
  185MOL   H11548323   1.064   5.820   2.424  0.8950 -1.1983  1.6546
  185MOL   H11648324   1.241   5.782   2.390 -0.0146 -0.5261 -0.0580
  185MOL   H11748325   1.015   5.421   2.236  2.6297  1.0900  0.8097
  185MOL   H11848326   1.005   5.328   2.391 -2.3331 -1.5022 -1.1333
  185MOL   C11948327   0.813   5.389   2.284  0.3220 -0.5645 -0.0511
  185MOL   C12048328   0.794   5.270   2.192  0.1570 -0.3712  0.3308
  185MOL   C12148329   0.830   5.285   2.047  0.1109  0.4284  0.5233
  185MOL   C12248330   0.688   5.286   2.083 -0.7527 -0.5330  0.3477
  185MOL   C12348331   0.705   5.394   2.400 -0.1763  0.1327 -1.0798
  185MOL   H12448332   0.802   5.479   2.223 -1.4078 -1.9126 -1.7682
  185MOL   H12548333   0.819   5.173   2.235  0.4829 -0.1713  0.5988
  185MOL   H12648334   0.867   5.190   2.011  1.9480  1.2410  0.2218
  185MOL   H12748335   0.889   5.375   2.028 -0.9082  0.8182 -0.8727
  185MOL   H12848336   0.616   5.367   2.085 -0.8903 -0.6219 -0.5502
  185MOL   H12948337   0.636   5.191   2.068  1.8613 -1.6872 -1.9556
  185MOL   H13048338   0.739   5.463   2.478 -1.2191 -1.5783  0.9325
  185MOL   H13148339   0.617   5.438   2.353 -0.6314 -1.5335 -1.8117
  185MOL   C13248340   0.664   5.267   2.474 -0.0616 -0.2893 -0.5721
  185MOL   C13348341   0.548   5.298   2.567  0.6820  0.6255 -0.2579
  185MOL   C13448342   0.441   5.205   2.611 -0.1282  0.1265 -0.2936
  185MOL   C13548343   0.408   5.322   2.515 -0.6313  0.7995  0.3708
  185MOL   C13648344   0.782   5.194   2.543 -1.0289 -0.0228  0.2104
  185MOL   H13748345   0.626   5.198   2.399  0.5600 -0.6761 -0.5377
  185MOL   H13848346   0.577   5.380   2.632  1.7538 -1.1065  1.4876
  185MOL   H13948347   0.452   5.103   2.576  0.9079  0.3811 -0.7378
  185MOL   H14048348   0.432   5.213   2.719 -2.3302 -0.6751 -0.4046
  185MOL   H14148349   0.385   5.287   2.414  0.5403 -0.2600  0.4495
  185MOL   H14248350   0.345   5.401   2.554 -1.9807 -0.3264  0.4736
  185MOL   H14348351   0.877   5.203   2.491 -0.5014  0.7476  1.2605
  185MOL   H14448352   0.800   5.258   2.630  2.2226 -0.6066  0.0596
  185MOL   C14548353   0.772   5.042   2.583  0.3739  0.4301  0.1333
  185MOL   C14648354   0.778   4.973   2.455 -0.4990 -0.5224 -0.0599
  185MOL   C14748355   0.725   4.838   2.442  0.0921 -1.3680 -0.1620
  185MOL   C14848356   0.660   4.952   2.356  0.3194 -0.1403  0.0540
  185MOL   C14948357   0.880   4.990   2.669  0.3233 -0.2402 -0.6939
  185MOL   H15048358   0.674   5.020   2.626 -0.0207  0.8358 -0.5422
  185MOL   H15148359   0.872   4.983   2.402 -2.4396 -1.2361 -3.8489
  185MOL   H15248360   0.779   4.760   2.388  1.6183 -0.4739  0.0234
  185MOL   H15348361   0.672   4.795   2.527 -0.2668  0.4330  0.5471
  185MOL   H15448362   0.561   4.972   2.397  0.6053 -0.5458  0.9584
  185MOL   H15548363   0.675   4.961   2.249 -1.8907  1.0136 -0.1870
  185MOL   H15648364   0.898   4.883   2.665  0.0221 -0.4545  2.4484
  185MOL   H15748365   0.972   5.037   2.635  0.6820 -1.0271 -0.8251
  185MOL   C15848366   0.861   5.028   2.821 -0.1226 -0.4698  0.3058
  185MOL   C15948367   0.981   5.112   2.871  0.0024  0.0168 -0.4615
  185MOL   C16048368   0.980   5.254   2.879 -0.3343  0.1830 -0.0246
  185MOL   C16148369   0.994   5.173   3.010 -1.0611 -0.1783 -0.2829
  185MOL   C16248370   0.858   4.903   2.906  0.7735  0.3661 -0.5093
  185MOL   H16348371   0.774   5.091   2.838 -1.0909 -0.8784 -2.8614
  185MOL   H16448372   1.073   5.060   2.845 -0.6401 -1.7842  0.7622
  185MOL   H16548373   0.883   5.301   2.862  0.7315  1.3700 -3.0188
  185MOL   H16648374   1.067   5.308   2.844 -0.1050 -1.0853 -1.4628
  185MOL   H16748375   1.093   5.169   3.053 -0.6918 -1.3766 -1.2364
  185MOL   H16848376   0.907   5.159   3.073 -0.5975  1.6722  0.8231
  185MOL   H16948377   0.846   4.933   3.011  0.2604  2.3803 -1.1169
  185MOL   H17048378   0.957   4.860   2.893  1.4169  1.4927  0.5233
  185MOL   C17148379   0.743   4.808   2.886 -0.4472  1.2461  0.5268
  185MOL   C17248380   0.765   4.660   2.941 -0.2114  0.0845 -0.4692
  185MOL   C17348381   0.886   4.585   2.896  0.1708  0.3531  0.1523
  185MOL   C17448382   0.865   4.618   3.042  0.7786 -0.1257  0.2786
  185MOL   C17548383   0.612   4.874   2.941  0.6086  0.7558  0.1488
  185MOL   H17648384   0.725   4.795   2.779 -0.8359  2.3167  0.4584
  185MOL   H17748385   0.675   4.600   2.949 -1.1953  1.7021  0.7273
  185MOL   H17848386   0.856   4.486   2.863  1.1780  0.5030 -1.2916
  185MOL   H17948387   0.960   4.646   2.845  1.8645 -2.2788 -0.6805
  185MOL   H18048388   0.930   4.698   3.077  2.7936 -2.4188  1.9423
  185MOL   H18148389   0.820   4.544   3.108 -1.5615 -1.7826 -3.0465
  185MOL   H18248390   0.610   4.978   2.909 -0.0550 -0.1621 -2.9661
  185MOL   H18348391   0.620   4.885   3.049  2.2161 -0.0948  0.1253
  185MOL   C18448392   0.476   4.805   2.900 -0.5801 -0.9964 -0.3515
  185MOL   C18548393   0.475   4.760   2.753  0.7810 -0.5440  0.2114
  185MOL   C18648394   0.366   4.677   2.698 -1.1266  0.9794  0.6715
  185MOL   C18748395   0.500   4.613   2.722 -0.2269  0.3990 -0.0682
  185MOL   C18848396   0.355   4.896   2.935 -0.2221 -0.4688  0.2737
  185MOL   H18948397   0.466   4.718   2.964  1.8796 -0.0190  1.4576
  185MOL   H19048398   0.514   4.841   2.692 -1.1662  0.1464 -0.1552
  185MOL   H19148399   0.341   4.693   2.593  0.6596  1.3876  0.2911
  185MOL   H19248400   0.289   4.626   2.755 -0.6477 -1.6096 -0.9012
  185MOL   H19348401   0.573   4.598   2.643 -1.8739  1.3983 -1.8483
  185MOL   H19448402   0.504   4.554   2.813  2.1332  1.3271  0.4483
  185MOL   H19548403   0.271   4.848   2.885  0.8730 -1.0813 -1.0097
  185MOL   H19648404   0.371   4.991   2.884  0.9884 -0.1099  1.3041
  185MOL   C19748405   0.330   4.931   3.076 -0.4158  0.3050  0.5216
  185MOL   C19848406   0.333   4.814   3.168  0.0270 -0.2720 -0.1760
  185MOL   C19948407   0.339   4.837   3.317  0.0070 -0.0597  0.1484
  185MOL   C20048408   0.449   4.763   3.248  0.4605  0.1099 -0.4276
  185MOL   C20148409   0.197   5.002   3.082  0.1589  0.1976 -0.2069
  185MOL   H20248410   0.408   4.995   3.116  1.0025 -1.0469 -0.0447
  185MOL   H20348411   0.265   4.739   3.129 -0.6069  0.5333 -0.6320
  185MOL   H20448412   0.350   4.941   3.347 -1.1065  0.5233 -1.3633
  185MOL   H20548413   0.272   4.780   3.380  0.9408 -2.1625 -0.7220
  185MOL   H20648414   0.546   4.812   3.252  0.8314 -0.3644 -2.8209
  185MOL   H20748415   0.462   4.655   3.235  0.2327  0.0327 -0.0023
  185MOL   H20848416   0.160   5.036   2.985  0.8653  1.3717 -0.0722
  185MOL   H20948417   0.116   4.931   3.098  1.0895 -1.2148 -1.5482
  185MOL   C21048418   0.187   5.125   3.177 -0.4365 -0.2602  0.3162
  185MOL   C21148419   0.279   5.235   3.111 -1.0168  0.2401 -0.1196
  185MOL   C21248420   0.316   5.375   3.151  0.4815  0.0386  0.3487
  185MOL   C21348421   0.416   5.262   3.174 -0.2671  0.3843 -0.5694
  185MOL   C21448422   0.041   5.174   3.194 -0.9635 -0.3865 -0.2007
  185MOL   H21548423   0.224   5.092   3.275 -0.5093 -2.6313 -0.4126
  185MOL   H21648424   0.286   5.231   3.002  0.6224  1.6194 -0.0875
  185MOL   H21748425   0.328   5.441   3.065 -0.3805 -0.8575 -0.4647
  185MOL   H21848426   0.260   5.417   3.234  1.4278  2.7304 -0.2847
  185MOL   H21948427   0.502   5.269   3.108 -0.5992 -0.2555 -1.0815
  185MOL   H22048428   0.433   5.233   3.278 -0.2064 -1.6689 -1.1139
  185MOL   H22148429   0.014   5.217   3.097 -0.3008 -0.3111 -0.3548
  185MOL   H22248430   7.817   5.087   3.212 -1.7370  0.4038  0.8972
  185MOL   C22348431   0.013   5.275   3.308  1.9276  0.0858 -0.7941
  185MOL   C22448432   0.063   5.221   3.444  0.8551  0.1182  0.1007
  185MOL   C22548433   0.195   5.267   3.503 -0.5085 -0.0915 -0.7446
  185MOL   C22648434   0.066   5.306   3.566 -0.2574  0.6093 -0.2668
  185MOL   C22748435   7.706   5.318   3.325 -0.3529  0.7063 -1.2088
  185MOL   H22848436   0.048   5.373   3.277 -0.2810  0.6043 -1.7215
  185MOL   H22948437   0.026   5.120   3.463 -1.2878  0.8709  0.0793
  185MOL   H23048438   0.250   5.341   3.445  1.2114  0.5241  1.5898
  185MOL   H23148439   0.255   5.184   3.541 -0.2725 -0.3578 -1.6678
  185MOL   H23248440   0.034   5.260   3.660  0.6293 -0.5528 -0.5174
  185MOL   H23348441   0.027   5.407   3.563 -1.6237  0.0773 -2.0138
  185MOL   H23448442   7.657   5.224   3.352  0.6305 -0.2648 -2.7045
  185MOL   H23548443   7.698   5.394   3.402 -0.9178  0.0486 -0.6043
  185MOL   C23648444   7.646   5.365   3.186 -0.0152  0.5572 -0.7464
  185MOL   C23748445   7.598   5.505   3.189  0.3200  1.0427  0.4034
  185MOL   C23848446   7.696   5.621   3.211  0.9011 -0.5367  0.7807
  185MOL   C23948447   7.634   5.604   3.076 -0.0102  0.2269 -0.1754
  185MOL   C24048448   7.530   5.268   3.148 -0.4365  0.4043 -0.4055
  185MOL   H24148449   7.722   5.361   3.108 -0.2996 -4.0435 -0.9147
  185MOL   H24248450   7.500   5.524   3.231  0.2957  0.9348  0.3959
  185MOL   H24348451   7.665   5.698   3.282  2.0277  0.5672  0.1066
  185MOL   H24448452   7.800   5.592   3.230  1.0712 -1.2478 -1.1193
  185MOL   H24548453   7.700   5.573   2.995 -0.3683  0.0426 -0.3961
  185MOL   H24648454   7.565   5.681   3.046 -0.2037 -0.1007 -0.5678
  185MOL   H24748455   7.565   5.165   3.157 -0.7369  0.3924  0.6364
  185MOL   H24848456   7.448   5.292   3.216  0.6480  0.1139  1.0246
  185MOL   C24948457   7.461   5.291   3.013  0.8372  0.3558  0.6044
  185MOL   C25048458   7.342   5.193   3.011 -0.2884  0.2267 -0.1932
  185MOL   C25148459   7.211   5.240   3.065  0.4384 -0.5077  0.7609
  185MOL   C25248460   7.225   5.195   2.922  0.7387  0.4464  0.3036
  185MOL   C25348461   7.554   5.267   2.893  0.5493 -0.9788 -0.1701
  185MOL   H25448462   7.423   5.393   3.016 -0.6017 -0.1479 -0.1018
  185MOL   H25548463   7.360   5.091   3.045 -2.8120 -0.2618 -0.1949
  185MOL   H25648464   7.163   5.170   3.131 -0.3857 -0.4132  0.2686
  185MOL   H25748465   7.194   5.347   3.079  1.0330 -0.9322  5.1756
  185MOL   H25848466   7.193   5.099   2.881 -0.3191  0.6370  0.6595
  185MOL   H25948467   7.220   5.269   2.843  0.4221 -1.9058 -1.9725
  185MOL   H26048468   7.592   5.364   2.862 -1.1939  0.2645  1.4564
  185MOL   H26148469   7.498   5.237   2.804  0.2894  2.4177 -1.2490
  185MOL   H26248470   7.625   5.189   2.920  1.0485  0.2685  2.3268
  186MOL     C148471   6.496   7.003   7.415 -0.2793  0.3733 -1.2066
  186MOL     C248472   6.496   7.132   7.500 -0.3387  0.0699 -0.3235
  186MOL     C348473   6.501   7.253   7.416 -0.0325 -0.6717 -0.2635
  186MOL     C448474   6.611   7.229   7.509  0.0757  0.0448  0.2697
  186MOL     C548475   6.362   6.920   7.451 -0.5775 -0.4466 -0.2538
  186MOL     H648476   6.507   7.044   7.314 -2.7999  2.2623 -0.7558
  186MOL     H748477   6.447   7.120   7.597  2.2032  2.3352  1.2930
  186MOL     H848478   6.523   7.258   7.310  0.0563  1.8739 -0.1610
  186MOL     H948479   6.433   7.331   7.449  3.2626  1.7339  1.2189
  186MOL    H1048480   6.612   7.293   7.597 -0.5737 -0.6922  0.8285
  186MOL    H1148481   6.708   7.203   7.469  0.3738  1.4230  0.0885
  186MOL    H1248482   6.293   7.001   7.426 -1.7771 -0.4894  2.6870
  186MOL    H1348483   6.345   6.898   7.556 -0.7182  1.1454  0.0731
  186MOL    H1448484   6.582   6.945   7.448 -1.4467  0.1482  1.6058
  186MOL    C1548485   6.336   6.795   7.366  0.4732  0.3615  0.5901
  186MOL    C1648486   6.466   6.717   7.369  0.3214 -0.8031 -0.1774
  186MOL    C1748487   6.568   6.709   7.259  0.0038  0.4317 -0.4746
  186MOL    C1848488   6.469   6.594   7.284  0.7145  0.1034 -0.1854
  186MOL    C1948489   6.211   6.720   7.408  0.7414  0.2311  0.5655
  186MOL    H2048490   6.327   6.817   7.260 -2.1537  0.5838  0.8182
  186MOL    H2148491   6.521   6.709   7.463  0.0486  1.7193  0.2182
  186MOL    H2248492   6.673   6.685   7.275  0.1001  1.2809  0.1729
  186MOL    H2348493   6.542   6.774   7.177 -0.3258  1.4479  0.4263
  186MOL    H2448494   6.373   6.584   7.233 -0.2010  2.0839  1.0929
  186MOL    H2548495   6.524   6.508   7.321  1.9590  0.4435 -1.1993
  186MOL    H2648496   6.225   6.695   7.513  0.4548  2.1163  1.0766
  186MOL    H2748497   6.194   6.633   7.345 -1.5681  1.4329 -0.5766
  186MOL    C2848498   6.082   6.795   7.397 -0.0737 -0.9395  0.4279
  186MOL    C2948499   5.976   6.716   7.475 -0.1923  0.1058  0.1995
  186MOL    C3048500   5.960   6.741   7.621  0.4814 -0.1672 -0.0038
  186MOL    C3148501   5.849   6.773   7.525  0.1680  0.3524  0.4457
  186MOL    C3248502   6.035   6.820   7.251  0.1999  0.3769  0.2575
  186MOL    H3348503   6.082   6.895   7.441 -0.5777 -0.7584  0.0186
  186MOL    H3448504   5.965   6.612   7.443  1.1270 -0.1993  0.7265
  186MOL    H3548505   6.013   6.826   7.662  1.4719 -0.9393  0.3410
  186MOL    H3648506   5.954   6.653   7.686  4.9517 -0.4729  0.1401
  186MOL    H3748507   5.824   6.878   7.505 -2.8033 -0.2075  0.9545
  186MOL    H3848508   5.768   6.705   7.497  2.2838 -1.9049 -0.3260
  186MOL    H3948509   5.934   6.784   7.232  1.0184 -1.1524 -1.3348
  186MOL    H4048510   6.092   6.752   7.188 -1.2970  0.0757 -0.7866
  186MOL    C4148511   6.047   6.966   7.197 -0.3152  0.0707  0.9848
  186MOL    C4248512   5.930   7.048   7.233 -0.0931 -0.8956  0.6134
  186MOL    C4348513   5.934   7.198   7.259  0.7130 -0.3974  0.3881
  186MOL    C4448514   5.909   7.097   7.371 -0.7046 -0.1424  0.3279
  186MOL    C4548515   6.079   6.948   7.046 -0.2515  0.1306  0.1491
  186MOL    H4648516   6.136   7.010   7.243  0.1828 -1.4905  1.5687
  186MOL    H4748517   5.834   7.009   7.200  0.4112 -2.2664  0.7309
  186MOL    H4848518   6.034   7.241   7.247  0.5213 -0.3882 -1.2597
  186MOL    H4948519   5.844   7.243   7.219  1.4879  1.7658  1.0164
  186MOL    H5048520   5.811   7.067   7.409 -1.4394 -0.4773 -1.8003
  186MOL    H5148521   5.988   7.088   7.446  1.7545 -2.2415 -2.3961
  186MOL    H5248522   6.000   6.892   6.995  1.1295  0.5311 -2.4929
  186MOL    H5348523   6.167   6.888   7.026 -0.4860 -0.2815  0.3438
  186MOL    C5448524   6.098   7.083   6.970  0.5906 -0.3657  0.3323
  186MOL    C5548525   6.245   7.128   6.990  0.7714 -0.4108  0.3164
  186MOL    C5648526   6.294   7.195   7.118 -0.3820  0.4022  0.1152
  186MOL    C5748527   6.289   7.271   6.991  0.2546  0.2014  0.3736
  186MOL    C5848528   6.068   7.074   6.818 -0.5188 -0.1031 -0.2295
  186MOL    H5948529   6.027   7.162   6.996  1.7325  0.3387  1.3657
  186MOL    H6048530   6.310   7.062   6.934  1.6034 -0.9339  1.8779
  186MOL    H6148531   6.224   7.229   7.194 -0.9205  1.2233 -0.7565
  186MOL    H6248532   6.395   7.191   7.160 -1.1429  0.3365  2.0224
  186MOL    H6348533   6.381   7.297   6.939  0.6885  0.5294  1.3062
  186MOL    H6448534   6.203   7.335   6.969  0.1339 -0.5721 -1.5516
  186MOL    H6548535   6.126   6.989   6.783  0.4516  0.7435 -0.6939
  186MOL    H6648536   5.966   7.037   6.805 -0.6371  0.1565 -0.0416
  186MOL    C6748537   6.078   7.197   6.720  0.4372  0.5477 -1.1455
  186MOL    C6848538   6.064   7.158   6.575 -0.1381  0.4257 -0.5393
  186MOL    C6948539   6.111   7.028   6.510 -0.3938 -0.3797  0.4580
  186MOL    C7048540   5.965   7.051   6.527 -0.0894 -0.2551  0.0146
  186MOL    C7148541   5.988   7.314   6.763 -0.6915  0.2637 -0.2117
  186MOL    H7248542   6.183   7.226   6.727  0.5574  0.1661 -1.3708
  186MOL    H7348543   6.082   7.238   6.502 -0.0265 -0.1076 -1.0976
  186MOL    H7448544   6.155   7.041   6.411 -0.3888  3.3821  0.8631
  186MOL    H7548545   6.149   6.942   6.566 -0.0103 -0.7303 -0.3304
  186MOL    H7648546   5.920   6.992   6.606  0.5620 -1.3436 -0.4100
  186MOL    H7748547   5.906   7.066   6.437 -1.6710  0.0471  1.0917
  186MOL    H7848548   6.013   7.328   6.868  1.3892 -1.0427 -0.4842
  186MOL    H7948549   5.884   7.283   6.761 -0.5858 -0.1379  0.3993
  186MOL    C8048550   6.009   7.449   6.689 -0.5310 -0.5667  0.3563
  186MOL    C8148551   6.142   7.508   6.732 -0.1356 -0.2978  0.2807
  186MOL    C8248552   6.221   7.605   6.637 -0.1107 -0.5046  0.0965
  186MOL    C8348553   6.280   7.469   6.667 -0.0210  0.7626  0.1403
  186MOL    C8448554   5.889   7.542   6.710  0.0481  0.2604  0.2139
  186MOL    H8548555   6.017   7.428   6.583 -1.0812  2.7360 -0.3772
  186MOL    H8648556   6.139   7.514   6.841  2.0918 -1.3230  0.4464
  186MOL    H8748557   6.270   7.693   6.678  0.0835 -0.0405 -1.1060
  186MOL    H8848558   6.191   7.614   6.533  0.7440  1.4339 -0.0074
  186MOL    H8948559   6.270   7.382   6.603 -1.0962 -0.9738  2.5983
  186MOL    H9048560   6.374   7.454   6.720 -0.4872 -1.1560  0.4695
  186MOL    H9148561   5.790   7.497   6.721 -1.3627  3.1803 -0.1026
  186MOL    H9248562   5.895   7.577   6.813  1.7232  2.4173 -0.5930
  186MOL    C9348563   5.866   7.665   6.615 -0.5578  0.6832  0.0041
  186MOL    C9448564   5.800   7.617   6.485 -0.7852 -0.8380 -0.7503
  186MOL    C9548565   5.801   7.703   6.360 -0.4147  0.3702 -0.3128
  186MOL    C9648566   5.885   7.576   6.363  0.8041 -0.1909  0.0190
  186MOL    C9748567   5.774   7.767   6.691 -0.7942  0.5901  0.5309
  186MOL    H9848568   5.966   7.704   6.599 -0.1371 -0.3214  0.1563
  186MOL    H9948569   5.705   7.565   6.498 -0.6938 -0.3602  2.1360
  186MOL   H10048570   5.711   7.708   6.299 -2.0144 -1.8202  1.7537
  186MOL   H10148571   5.868   7.783   6.330  1.6390 -0.7985  0.9743
  186MOL   H10248572   5.847   7.498   6.297  1.9528  0.7241 -1.7664
  186MOL   H10348573   5.993   7.581   6.370  1.1567 -3.6453 -1.8981
  186MOL   H10448574   5.805   7.772   6.796 -1.3889 -0.6775  0.7843
  186MOL   H10548575   5.670   7.736   6.686 -0.5260 -0.2724  0.2145
  186MOL   C10648576   5.792   0.079   6.654  0.3015 -0.2446 -0.0074
  186MOL   C10748577   5.671   0.157   6.673 -0.2150  0.1638  0.3506
  186MOL   C10848578   5.643   0.287   6.596  0.1464 -1.2718 -0.1776
  186MOL   C10948579   5.556   0.153   6.582  0.3025 -0.2304 -0.2205
  186MOL   C11048580   5.920   0.132   6.725 -0.6267  0.0074 -0.2007
  186MOL   H11148581   5.813   0.088   6.547  0.0020 -1.7769 -0.1971
  186MOL   H11248582   5.641   0.144   6.777 -0.7631 -0.2705  0.1382
  186MOL   H11348583   5.581   0.367   6.636  1.9750 -0.3422  0.8325
  186MOL   H11448584   5.713   0.317   6.518  0.8697 -2.3374  0.0461
  186MOL   H11548585   5.556   0.095   6.491 -0.8511 -1.4671  0.5473
  186MOL   H11648586   5.463   0.160   6.639 -0.0944  2.9136 -1.1466
  186MOL   H11748587   5.999   0.062   6.696 -0.6339 -1.1899  2.4894
  186MOL   H11848588   5.949   0.230   6.687 -0.6718  0.0014 -0.2495
  186MOL   C11948589   5.902   0.147   6.883 -0.3956  0.6127  0.4117
  186MOL   C12048590   6.036   0.110   6.947 -0.4287  0.1471  0.1597
  186MOL   C12148591   6.082   7.808   6.971  0.5990  0.3867  0.4369
  186MOL   C12248592   6.043   0.057   7.088 -0.2773 -0.3431 -0.8383
  186MOL   C12348593   5.865   0.296   6.920  0.2943  0.4995 -0.2053
  186MOL   H12448594   5.816   0.092   6.922 -1.1512  0.8305 -0.9215
  186MOL   H12548595   6.119   0.172   6.914 -1.7695 -0.1882 -4.2204
  186MOL   H12648596   6.190   7.790   6.963  1.2014  3.1803  1.8092
  186MOL   H12748597   6.018   7.724   6.944  0.8797 -0.0138  0.9932
  186MOL   H12848598   5.946   0.038   7.134 -0.7400 -0.0089 -1.6618
  186MOL   H12948599   6.114   0.096   7.159 -0.1030 -0.9019 -0.7019
  186MOL   H13048600   5.961   0.347   6.905  0.5946 -0.4244 -1.5291
  186MOL   H13148601   5.792   0.347   6.857 -1.8859 -0.0658  1.7877
  186MOL   C13248602   5.822   0.310   7.063 -0.0046 -0.5386 -0.1307
  186MOL   C13348603   5.676   0.271   7.074  1.2326 -0.2049 -0.3020
  186MOL   C13448604   5.601   0.234   7.203 -0.6275 -0.3732 -0.2044
  186MOL   C13548605   5.637   0.129   7.097 -0.5480 -0.1688 -0.5012
  186MOL   C13648606   5.844   0.457   7.109  0.2967 -1.2535 -0.1529
  186MOL   H13748607   5.883   0.243   7.125 -0.5536 -1.6792 -0.8134
  186MOL   H13848608   5.613   0.323   7.002  0.8957  2.2447  1.6527
  186MOL   H13948609   5.659   0.226   7.295 -1.6520 -0.9845  0.3851
  186MOL   H14048610   5.504   0.282   7.192 -1.1659 -1.9674 -2.7305
  186MOL   H14148611   5.717   0.059   7.119  0.8005  1.7616  0.8688
  186MOL   H14248612   5.552   0.089   7.041 -0.6019 -0.6339 -0.0922
  186MOL   H14348613   5.945   0.486   7.082 -0.3953  0.1907 -1.2439
  186MOL   H14448614   5.776   0.530   7.063  1.1311  1.4244  2.6764
  186MOL   C14548615   5.848   0.476   7.260  0.0488  0.3844 -0.1065
  186MOL   C14648616   5.980   0.437   7.316 -0.0604  0.0533 -0.2847
  186MOL   C14748617   6.015   0.406   7.464  0.2925 -0.0267 -0.4985
  186MOL   C14848618   6.010   0.299   7.365  0.4924  0.0333 -0.4219
  186MOL   C14948619   5.821   0.627   7.289 -0.0501  0.2781  0.6661
  186MOL   H15048620   5.778   0.410   7.311 -1.0484  1.7838  0.2413
  186MOL   H15148621   6.060   0.480   7.256 -0.1991  1.2324  0.3569
  186MOL   H15248622   6.118   0.423   7.491 -0.1354 -0.1109  1.2419
  186MOL   H15348623   5.938   0.398   7.541  2.3698  1.1864  1.7391
  186MOL   H15448624   5.926   0.231   7.353  1.2194 -1.1435  1.0195
  186MOL   H15548625   6.101   0.253   7.329  1.5101  0.9767  0.9254
  186MOL   H15648626   5.918   0.676   7.284  0.2309 -0.1811  1.5158
  186MOL   H15748627   5.763   0.681   7.214 -1.5640  1.1643  2.4109
  186MOL   C15848628   5.763   0.664   7.431 -0.0767 -1.0880 -0.1850
  186MOL   C15948629   5.629   0.589   7.442 -1.1219 -0.8383 -0.4514
  186MOL   C16048630   5.622   0.474   7.531 -0.5277  0.0799 -0.0178
  186MOL   C16148631   5.559   0.602   7.572  0.0841 -0.0869 -0.1186
  186MOL   C16248632   5.743   0.818   7.440  0.4062  1.1587 -0.2319
  186MOL   H16348633   5.827   0.629   7.511 -1.1564 -0.2199  1.0855
  186MOL   H16448634   5.566   0.612   7.356 -1.0066  3.1159  0.4004
  186MOL   H16548635   5.705   0.433   7.589 -0.4555  0.1062 -0.1036
  186MOL   H16648636   5.549   0.398   7.504 -2.4619  2.0260 -0.3748
  186MOL   H16748637   5.452   0.619   7.572  0.0980  0.0223 -1.0481
  186MOL   H16848638   5.606   0.653   7.656 -2.6628  2.2453  0.1027
  186MOL   H16948639   5.648   0.829   7.492  0.4634  1.2851 -0.1522
  186MOL   H17048640   5.732   0.858   7.339  1.5008 -1.0631 -1.2620
  186MOL   C17148641   5.857   0.894   7.516  0.1290  0.6178  0.0918
  186MOL   C17248642   5.991   0.881   7.448  0.0527  0.3455 -0.1470
  186MOL   C17348643   6.117   0.905   7.521 -0.4215  0.4512 -0.2429
  186MOL   C17448644   6.080   0.770   7.484  0.0390  0.3251  0.3331
  186MOL   C17548645   5.835   1.044   7.539 -0.0423 -0.1495  0.3346
  186MOL   H17648646   5.878   0.844   7.610 -0.8789  0.1287  0.0622
  186MOL   H17748647   5.978   0.906   7.343 -0.3311 -2.7249 -0.8785
  186MOL   H17848648   6.198   0.953   7.467 -0.3026  0.3240 -0.1764
  186MOL   H17948649   6.112   0.944   7.622  2.5619  0.8715 -0.2048
  186MOL   H18048650   6.067   0.704   7.570  1.3206 -0.5070 -0.0905
  186MOL   H18148651   6.132   0.724   7.400 -4.1876 -3.2712 -0.5435
  186MOL   H18248652   5.804   1.083   7.441  1.4635 -0.4422 -0.2801
  186MOL   H18348653   5.924   1.095   7.577 -0.1345  2.1262 -2.2617
  186MOL   C18448654   5.721   1.083   7.636 -0.4105  0.4636  0.1204
  186MOL   C18548655   5.705   1.236   7.647 -0.3454  0.1199  0.1264
  186MOL   C18648656   5.573   1.310   7.679 -1.1485  0.8019  0.6124
  186MOL   C18748657   5.629   1.314   7.541 -0.1505  0.3835 -0.0926
  186MOL   C18848658   5.745   1.028   7.782  0.1091  0.0445  0.1461
  186MOL   H18948659   5.627   1.044   7.595 -1.4847  4.8163 -1.8162
  186MOL   H19048660   5.805   1.277   7.661  0.7994 -2.0477 -1.3364
  186MOL   H19148661   5.573   1.400   7.740 -0.3257  0.2983  1.3612
  186MOL   H19248662   5.492   1.239   7.694 -0.2516 -1.2422 -3.4379
  186MOL   H19348663   5.686   1.400   7.508 -1.3045  1.2013  0.0124
  186MOL   H19448664   5.575   1.256   7.467 -0.5822 -0.6910  1.0308
  186MOL   H19548665   5.828   1.091   7.814 -1.2850  2.3335 -0.6394
  186MOL   H19648666   5.776   0.924   7.785  2.8886  0.8546  0.7630
  186MOL   C19748667   5.629   1.045   0.052  0.2148 -0.4534  0.6430
  186MOL   C19848668   5.689   1.014   0.189 -0.9099 -0.5868  0.4309
  186MOL   C19948669   5.645   1.095   0.305 -0.3896  0.5583  0.0790
  186MOL   C20048670   5.790   1.100   0.263  1.3765  0.0329 -0.4215
  186MOL   C20148671   5.503   0.962   0.015 -0.0703  0.2959  0.1422
  186MOL   H20248672   5.608   1.152   0.050 -1.0224 -0.7066 -1.9746
  186MOL   H20348673   5.704   0.908   0.205  0.3070 -0.9225 -2.6119
  186MOL   H20448674   5.596   1.190   0.288  0.7302  0.9552 -0.9780
  186MOL   H20548675   5.615   1.032   0.389  2.3267  0.3555  0.9379
  186MOL   H20648676   5.831   1.184   0.208 -0.5609  0.2571 -1.5802
  186MOL   H20748677   5.864   1.037   0.312  0.9293  1.4473  2.1508
  186MOL   H20848678   5.476   0.964   7.749 -0.7988  1.5926  0.3401
  186MOL   H20948679   5.524   0.855   0.018  0.8362  0.3787 -2.0572
  186MOL   C21048680   5.370   0.997   0.096 -0.0559 -0.7889  0.5283
  186MOL   C21148681   5.238   0.994   0.008 -0.3101  0.1580  0.4853
  186MOL   C21248682   5.103   1.073   0.029 -0.2620 -0.7775  0.3085
  186MOL   C21348683   5.207   1.116   7.761  0.6313  0.3950 -0.0843
  186MOL   C21448684   5.348   0.897   0.206  0.0218 -0.5084 -0.1187
  186MOL   H21548685   5.378   1.095   0.143  1.3577 -1.6364  2.1203
  186MOL   H21648686   5.212   0.903   7.792 -0.5094  0.5148 -0.0159
  186MOL   H21748687   5.006   1.036   7.835 -1.0978  2.5935 -1.1985
  186MOL   H21848688   5.102   1.147   0.108  1.7466  1.1321 -1.3714
  186MOL   H21948689   5.170   1.107   7.659  0.3882 -0.9601  0.1131
  186MOL   H22048690   5.265   1.206   7.780  2.8736 -1.1099  0.4122
  186MOL   H22148691   5.309   0.812   0.150  0.5101 -0.7414 -0.1055
  186MOL   H22248692   5.440   0.871   0.260 -1.0063  2.5915  3.3432
  186MOL   C22348693   5.241   0.927   0.308 -0.4204  0.5999 -0.7574
  186MOL   C22448694   5.290   1.030   0.409  0.0299  0.1635 -0.7229
  186MOL   C22548695   5.251   1.174   0.381  0.2321  0.4650  0.5686
  186MOL   C22648696   5.190   1.108   0.500  0.2479  0.6387  0.5820
  186MOL   C22748697   5.221   0.802   0.397 -0.5211 -0.0742 -0.6103
  186MOL   H22848698   5.149   0.969   0.267 -1.4548 -1.0087 -0.1252
  186MOL   H22948699   5.393   1.024   0.444  0.3540  3.4982 -0.9479
  186MOL   H23048700   5.180   1.198   0.303  1.0224 -0.7610 -0.5510
  186MOL   H23148701   5.326   1.249   0.407  1.7019 -0.3071 -1.3336
  186MOL   H23248702   5.222   1.139   0.600  0.2929  0.3428  0.6592
  186MOL   H23348703   5.085   1.079   0.497  0.3233  0.5112 -1.9131
  186MOL   H23448704   5.321   0.765   0.421  0.0458 -0.5560 -3.5043
  186MOL   H23548705   5.182   0.834   0.494 -2.0568 -1.8523 -0.6180
  186MOL   C23648706   5.121   0.698   0.334 -0.3516  0.7766 -0.2759
  186MOL   C23748707   4.978   0.746   0.335 -0.1592 -0.1640  0.5932
  186MOL   C23848708   4.923   0.839   0.231 -0.3705  0.3496 -0.7984
  186MOL   C23948709   4.885   0.693   0.229  0.3387 -0.1907  0.4616
  186MOL   C24048710   5.134   0.565   0.420 -0.1622 -0.1338 -0.4988
  186MOL   H24148711   5.150   0.681   0.231  2.9411  0.8376  0.6014
  186MOL   H24248712   4.939   0.763   0.435  1.2820  2.6678  0.7257
  186MOL   H24348713   4.848   0.908   0.269  1.2052  0.8318  1.5300
  186MOL   H24448714   4.993   0.874   0.155 -0.0324  0.9958 -0.1864
  186MOL   H24548715   4.916   0.631   0.145  1.2061 -0.4330  0.9517
  186MOL   H24648716   4.794   0.655   0.274  0.8920 -0.5761  1.2576
  186MOL   H24748717   5.091   0.578   0.519 -0.4587  4.0715 -1.0674
  186MOL   H24848718   5.070   0.488   0.376 -2.0579  0.4378  1.2151
  186MOL   C24948719   5.275   0.504   0.448  0.1296 -0.2371 -0.7623
  186MOL   C25048720   5.357   0.467   0.318  0.2022  0.7609  0.9452
  186MOL   C25148721   5.477   0.544   0.259 -0.5136  0.6011  0.2072
  186MOL   C25248722   5.498   0.407   0.319 -0.5142  0.1300 -0.5032
  186MOL   C25348723   5.257   0.383   0.543  0.9948  0.4618 -0.6181
  186MOL   H25448724   5.326   0.584   0.501 -2.9988  0.6114  1.0841
  186MOL   H25548725   5.281   0.439   0.246 -0.3715 -0.6749  2.0699
  186MOL   H25648726   5.476   0.545   0.150  1.7918 -1.1009  0.1249
  186MOL   H25748727   5.522   0.625   0.314  0.2716  0.2365  0.1032
  186MOL   H25848728   5.538   0.344   0.240  0.9448 -1.4746  1.4460
  186MOL   H25948729   5.551   0.393   0.413 -1.3383 -2.4423 -0.3715
  186MOL   H26048730   5.184   0.310   0.509  1.7990 -0.0756 -1.2095
  186MOL   H26148731   5.223   0.422   0.638  0.0763 -0.4356 -0.5748
  186MOL   H26248732   5.343   0.321   0.567 -0.5917 -1.1332  1.0692
  187MOL     C148733   2.618   6.639   3.239  0.5018  0.1329 -0.4906
  187MOL     C248734   2.601   6.753   3.347 -0.1015  0.4466 -0.0547
  187MOL     C348735   2.646   6.893   3.310  0.0058 -0.0900  0.5698
  187MOL     C448736   2.725   6.813   3.413 -0.8568  0.3879 -0.0056
  187MOL     C548737   2.667   6.514   3.295  0.5102 -0.0748 -0.3741
  187MOL     H648738   2.527   6.633   3.180 -0.7365  0.3157  1.3487
  187MOL     H748739   2.511   6.745   3.408  2.3861 -1.1558  3.5707
  187MOL     H848740   2.707   6.934   3.230 -0.3770  0.7364  0.6898
  187MOL     H948741   2.569   6.965   3.337 -1.5815 -1.2587 -0.7347
  187MOL    H1048742   2.720   6.859   3.512 -1.3489 -0.6489  0.4688
  187MOL    H1148743   2.812   6.753   3.388 -0.3732  0.5341  1.2924
  187MOL    H1248744   2.763   6.547   3.335  0.1100  1.0345 -0.2972
  187MOL    H1348745   2.668   6.436   3.218 -0.6117  0.0918 -0.5721
  187MOL    H1448746   2.690   6.679   3.167  2.1812 -1.5039  0.2171
  187MOL    C1548747   2.585   6.457   3.408  0.5292 -0.0778  0.8100
  187MOL    C1648748   2.453   6.401   3.356 -0.3014 -0.1143 -0.6947
  187MOL    C1748749   2.324   6.481   3.327  0.4706 -0.7854  0.3440
  187MOL    C1848750   2.336   6.390   3.443 -0.4379 -0.1468 -0.0227
  187MOL    C1948751   2.672   6.342   3.474 -0.1434 -0.8668 -0.3768
  187MOL    H2048752   2.566   6.541   3.476 -1.0216  0.9981 -0.8753
  187MOL    H2148753   2.469   6.313   3.295  1.7610 -2.1534  2.6293
  187MOL    H2248754   2.281   6.464   3.229 -2.7549 -0.3879  1.5963
  187MOL    H2348755   2.328   6.590   3.339 -0.6596 -0.5098 -1.5634
  187MOL    H2448756   2.337   6.441   3.539  0.4931  0.2112 -0.2171
  187MOL    H2548757   2.286   6.294   3.449  1.8856 -1.2965  1.0948
  187MOL    H2648758   2.778   6.366   3.461 -0.2464 -0.0190  0.3455
  187MOL    H2748759   2.667   6.254   3.410  1.4171  0.9365 -3.0933
  187MOL    C2848760   2.650   6.313   3.626  0.4237  0.0479  0.7941
  187MOL    C2948761   2.731   6.403   3.717  0.0162 -0.6023 -0.6003
  187MOL    C3048762   2.691   6.542   3.749 -0.5820 -0.1923  0.2360
  187MOL    C3148763   2.672   6.436   3.852  0.3131  0.0789  0.7128
  187MOL    C3248764   2.680   6.167   3.659  0.7394 -0.4432 -0.1913
  187MOL    H3348765   2.544   6.333   3.643  0.3156 -0.3304  0.5790
  187MOL    H3448766   2.837   6.380   3.725 -0.1635 -0.9059  1.0271
  187MOL    H3548767   2.601   6.584   3.705 -1.2989  0.3148  2.1357
  187MOL    H3648768   2.769   6.616   3.769  2.4652 -2.7081 -1.7388
  187MOL    H3748769   2.576   6.387   3.865  0.1387  0.6895  1.7400
  187MOL    H3848770   2.736   6.430   3.940  0.1887 -2.5170  0.6675
  187MOL    H3948771   2.698   6.152   3.766 -1.3365  0.7461  0.3640
  187MOL    H4048772   2.769   6.136   3.604  0.7531 -1.6848  0.4943
  187MOL    C4148773   2.562   6.074   3.617 -0.3197  0.4960 -0.5547
  187MOL    C4248774   2.469   6.041   3.740  0.0710  0.1128  0.1310
  187MOL    C4348775   2.331   5.992   3.723 -0.8649 -0.6335  0.2313
  187MOL    C4448776   2.349   6.132   3.760  0.2035  0.1511 -0.1741
  187MOL    C4548777   2.608   5.933   3.563 -0.2230 -0.3178 -0.5981
  187MOL    H4648778   2.506   6.121   3.536 -1.5060  0.6968  0.3760
  187MOL    H4748779   2.515   5.990   3.825 -0.2918 -1.0017 -0.3306
  187MOL    H4848780   2.285   5.982   3.624 -1.2835  2.3974  0.0836
  187MOL    H4948781   2.309   5.918   3.800  2.2445  0.0672  1.8605
  187MOL    H5048782   2.337   6.174   3.859 -1.4527  2.3674 -1.2847
  187MOL    H5148783   2.349   6.212   3.686  1.5440  0.1576 -0.1940
  187MOL    H5248784   2.640   5.869   3.646 -0.2620 -0.9767 -1.0858
  187MOL    H5348785   2.704   5.953   3.515  0.2192  0.3862  0.5695
  187MOL    C5448786   2.519   5.860   3.462  0.0236 -0.4960  0.0374
  187MOL    C5548787   2.500   5.933   3.333  0.4456 -0.9241  0.0683
  187MOL    C5648788   2.372   6.017   3.307  0.0737 -0.9193 -0.8854
  187MOL    C5748789   2.391   5.879   3.243 -0.0642  0.5342  0.3509
  187MOL    C5848790   2.564   5.720   3.441  0.2123 -0.1293  0.3220
  187MOL    H5948791   2.421   5.843   3.507 -1.3982 -2.3451 -3.6166
  187MOL    H6048792   2.589   5.980   3.292 -0.9780  2.8233  1.0234
  187MOL    H6148793   2.288   6.019   3.376  1.1785  2.6003  0.4803
  187MOL    H6248794   2.378   6.113   3.257  0.8129  0.2576  1.3795
  187MOL    H6348795   2.388   5.888   3.135  2.7232  0.5720  0.2359
  187MOL    H6448796   2.334   5.794   3.280  1.7547 -0.5155  0.8426
  187MOL    H6548797   2.511   5.683   3.353 -4.3706 -0.0089  2.8752
  187MOL    H6648798   2.668   5.720   3.410 -0.2237  0.0050 -1.1987
  187MOL    C6748799   2.544   5.611   3.556 -0.3033  0.0121  0.5345
  187MOL    C6848800   2.402   5.592   3.610  0.2031 -0.1937 -0.3294
  187MOL    C6948801   2.375   5.508   3.732  0.7410 -0.2058  0.0995
  187MOL    C7048802   2.360   5.653   3.740 -0.3024  0.2068 -0.3655
  187MOL    C7148803   2.580   5.471   3.497 -0.2449 -0.1069  0.4187
  187MOL    H7248804   2.608   5.639   3.640  0.2905  0.0191  0.0810
  187MOL    H7348805   2.329   5.593   3.528 -1.1719 -1.4413  0.8529
  187MOL    H7448806   2.289   5.442   3.722  0.8391 -0.1599 -1.1633
  187MOL    H7548807   2.464   5.456   3.768 -0.7284 -1.5541  1.8738
  187MOL    H7648808   2.437   5.709   3.793 -0.0822 -1.4743  1.1604
  187MOL    H7748809   2.262   5.701   3.748  0.4281  1.9090 -1.3780
  187MOL    H7848810   2.514   5.457   3.412  0.2667  2.0844 -0.3592
  187MOL    H7948811   2.546   5.393   3.565 -0.8631  0.0829  0.3302
  187MOL    C8048812   2.724   5.443   3.446 -0.3851 -0.2695 -0.2490
  187MOL    C8148813   2.734   5.318   3.362  0.2886 -0.0700  0.1302
  187MOL    C8248814   2.828   5.311   3.251 -0.5027  0.6121  0.3986
  187MOL    C8348815   2.682   5.321   3.218 -0.8082  0.8191  0.8077
  187MOL    C8448816   2.813   5.432   3.571  0.3065  0.5248  0.0222
  187MOL    H8548817   2.759   5.530   3.390 -1.7270 -0.4337 -1.3587
  187MOL    H8648818   2.718   5.228   3.421  0.7749 -0.4895 -0.3812
  187MOL    H8748819   2.876   5.214   3.252 -1.9289 -0.1291 -0.3094
  187MOL    H8848820   2.897   5.394   3.244 -0.0380  0.0679 -1.7165
  187MOL    H8948821   2.648   5.409   3.165 -0.1906 -0.0786 -1.1468
  187MOL    H9048822   2.637   5.228   3.183  0.6519  0.9401 -1.4784
  187MOL    H9148823   2.784   5.503   3.648 -0.3675  1.3486 -0.9737
  187MOL    H9248824   2.791   5.339   3.624 -1.7179  0.9513 -0.0268
  187MOL    C9348825   2.966   5.427   3.544  0.7816 -0.1164 -0.5012
  187MOL    C9448826   3.024   5.560   3.482  0.3617 -0.6607  0.7955
  187MOL    C9548827   2.947   5.690   3.503  0.3079  0.1112 -0.4929
  187MOL    C9648828   3.087   5.680   3.559 -0.4562 -0.4068 -0.4440
  187MOL    C9748829   3.044   5.384   3.673 -0.4522 -0.0970 -0.7551
  187MOL    H9848830   2.987   5.358   3.462 -2.1382 -1.5922 -0.0570
  187MOL    H9948831   3.042   5.555   3.375  1.1189  0.0926  0.8913
  187MOL   H10048832   2.935   5.748   3.412 -2.2066  0.3969 -0.0297
  187MOL   H10148833   2.873   5.700   3.582 -0.0011  0.3167 -0.8066
  187MOL   H10248834   3.168   5.738   3.515  1.2453 -0.7833  2.0891
  187MOL   H10348835   3.094   5.671   3.667  2.4607  0.3584 -0.5353
  187MOL   H10448836   2.990   5.303   3.721  1.6904 -0.8496  0.5063
  187MOL   H10548837   3.037   5.465   3.747  1.8373 -2.2791  1.9919
  187MOL   C10648838   3.193   5.348   3.649  0.2641  0.0253  0.0642
  187MOL   C10748839   3.269   5.348   3.780  0.0701  0.1787  0.2890
  187MOL   C10848840   3.407   5.409   3.783  0.2110  0.0787  0.5010
  187MOL   C10948841   3.296   5.474   3.859  0.0241 -0.1160 -0.7073
  187MOL   C11048842   3.200   5.203   3.585 -0.0524 -0.4262  0.3393
  187MOL   H11148843   3.233   5.424   3.582 -0.8443 -0.0328 -0.6720
  187MOL   H11248844   3.247   5.251   3.824 -1.1698 -0.1530 -1.0318
  187MOL   H11348845   3.484   5.351   3.833  1.8726  0.8900 -1.0483
  187MOL   H11448846   3.433   5.452   3.686 -0.9253 -2.9789 -1.2215
  187MOL   H11548847   3.255   5.564   3.814  0.6372  0.9913  0.8911
  187MOL   H11648848   3.294   5.470   3.968 -1.9745  1.6436 -0.6452
  187MOL   H11748849   3.172   5.140   3.669  0.9204 -1.6042 -0.2223
  187MOL   H11848850   3.122   5.190   3.510  0.1648 -2.0834  0.3930
  187MOL   C11948851   3.340   5.168   3.526  0.0758  0.2226  0.1841
  187MOL   C12048852   3.386   5.030   3.576  0.4214 -0.0020 -0.1422
  187MOL   C12148853   3.437   5.026   3.716 -0.9916  0.0616  0.2867
  187MOL   C12248854   3.533   4.995   3.602  0.4597 -0.2152 -0.3006
  187MOL   C12348855   3.339   5.156   3.373  0.0807  0.5229  0.3357
  187MOL   H12448856   3.426   5.228   3.555  0.0666  0.6346 -0.6422
  187MOL   H12548857   3.310   4.953   3.562 -1.1233  1.4401  0.2201
  187MOL   H12648858   3.409   4.944   3.781  2.8717  0.1385  2.2207
  187MOL   H12748859   3.442   5.122   3.767 -1.4049 -0.0544  0.5429
  187MOL   H12848860   3.619   5.060   3.585  1.7392 -1.6833  0.4410
  187MOL   H12948861   3.552   4.892   3.574  0.5015 -0.1571 -0.4892
  187MOL   H13048862   3.433   5.110   3.341 -0.0347  1.1920 -1.0139
  187MOL   H13148863   3.265   5.084   3.337  1.0899 -0.2231 -0.2841
  187MOL   C13248864   3.332   5.299   3.296  0.2603  0.2545 -1.3262
  187MOL   C13348865   3.299   5.281   3.150  0.0064  0.1334 -0.6239
  187MOL   C13448866   3.202   5.379   3.083  0.8587 -0.8178 -0.0548
  187MOL   C13548867   3.162   5.227   3.109 -0.3816 -0.7559 -0.0236
  187MOL   C13648868   3.448   5.391   3.321  0.2239 -0.2487 -0.0126
  187MOL   H13748869   3.246   5.353   3.334  1.4682  1.9969 -1.0298
  187MOL   H13848870   3.376   5.236   3.088 -0.1175  1.8601 -2.0746
  187MOL   H13948871   3.161   5.450   3.153  0.8755  0.1916 -1.0550
  187MOL   H14048872   3.222   5.405   2.979 -0.5414 -0.2903 -0.1983
  187MOL   H14148873   3.096   5.197   3.190  0.0624  1.0420  1.0524
  187MOL   H14248874   3.164   5.168   3.018  1.5773  0.7606 -1.0105
  187MOL   H14348875   3.473   5.401   3.426  0.5767 -0.3601 -0.0853
  187MOL   H14448876   3.536   5.338   3.286  1.1907  0.1499  1.7898
  187MOL   C14548877   3.456   5.534   3.260  0.5783  0.1297  0.3502
  187MOL   C14648878   3.478   5.649   3.366  0.4134 -0.1765 -0.4521
  187MOL   C14748879   3.590   5.621   3.473  0.0889 -0.0858 -0.1657
  187MOL   C14848880   3.606   5.730   3.376 -0.4458 -0.3094 -0.5270
  187MOL   C14948881   3.556   5.542   3.147  0.2423  0.2318 -0.3584
  187MOL   H15048882   3.357   5.553   3.217  1.3908  0.8545 -1.2541
  187MOL   H15148883   3.380   5.688   3.394  1.1264 -0.0692  1.9707
  187MOL   H15248884   3.574   5.661   3.572 -1.7567 -0.3857 -0.3211
  187MOL   H15348885   3.670   5.549   3.457  1.7515  1.9926 -1.4220
  187MOL   H15448886   3.674   5.708   3.294  0.0087  0.3496 -0.3200
  187MOL   H15548887   3.611   5.836   3.395 -1.9949 -0.3844  0.4443
  187MOL   H15648888   3.654   5.525   3.192  0.0636  0.1889  0.0086
  187MOL   H15748889   3.542   5.458   3.078  0.3316  1.2640 -1.6468
  187MOL   C15848890   3.556   5.665   3.053 -0.3124  0.0351 -0.0263
  187MOL   C15948891   3.444   5.666   2.960 -0.0980  0.1425  0.0025
  187MOL   C16048892   3.298   5.693   2.999  0.7914  0.8078 -0.2020
  187MOL   C16148893   3.372   5.795   2.914 -0.1160 -0.3224 -0.1953
  187MOL   C16248894   3.693   5.704   2.993 -0.5542  0.1805  0.2418
  187MOL   H16348895   3.522   5.751   3.111  0.4161  1.4347 -1.6391
  187MOL   H16448896   3.453   5.591   2.881 -2.7716  0.2706 -0.4736
  187MOL   H16548897   3.280   5.719   3.103  1.8776 -1.2068  0.5209
  187MOL   H16648898   3.217   5.644   2.945  0.7753 -0.6671  1.1116
  187MOL   H16748899   3.341   5.804   2.810 -0.4647 -1.5639 -0.1993
  187MOL   H16848900   3.393   5.890   2.963  4.6395 -0.5778 -1.5805
  187MOL   H16948901   3.777   5.720   3.061  0.4254  0.2418 -0.9685
  187MOL   H17048902   3.681   5.799   2.941  1.9342  1.4477  1.8355
  187MOL   C17148903   3.743   5.596   2.891 -0.3708  0.4608 -0.1154
  187MOL   C17248904   3.797   5.670   2.763 -0.4654  0.2857  0.3483
  187MOL   C17348905   3.756   5.632   2.627  0.0538 -0.3571  0.1722
  187MOL   C17448906   3.698   5.758   2.687 -0.7739 -0.1615  0.5154
  187MOL   C17548907   3.836   5.491   2.935 -0.2708  0.6375  0.0005
  187MOL   H17648908   3.649   5.555   2.855  0.9539 -0.2121 -2.9144
  187MOL   H17748909   3.896   5.715   2.765  0.4042 -1.6259  0.5987
  187MOL   H17848910   3.829   5.650   2.548 -0.5259 -1.4488 -0.6269
  187MOL   H17948911   3.690   5.547   2.610 -2.5750  1.5487  0.6510
  187MOL   H18048912   3.595   5.758   2.722 -0.9760  1.2356 -0.0588
  187MOL   H18148913   3.733   5.850   2.641  0.0269 -1.6236 -1.9252
  187MOL   H18248914   3.806   5.464   3.036 -1.2389  2.5100  0.2502
  187MOL   H18348915   3.931   5.540   2.954  0.2775 -0.1103 -0.7948
  187MOL   C18448916   3.867   5.371   2.843 -0.4743 -0.0290  0.1289
  187MOL   C18548917   3.730   5.286   2.799 -0.0328  0.4347  0.3605
  187MOL   C18648918   3.740   5.173   2.702 -0.1962  0.4918 -0.2034
  187MOL   C18748919   3.675   5.295   2.655  0.0853 -0.1376  0.4520
  187MOL   C18848920   3.967   5.270   2.907 -0.0871  0.9128 -0.4593
  187MOL   H18948921   3.917   5.418   2.757 -1.3995  0.6793 -0.0323
  187MOL   H19048922   3.654   5.277   2.876 -0.3337  1.3175  0.1633
  187MOL   H19148923   3.677   5.085   2.712  3.5026 -2.2273  0.6703
  187MOL   H19248924   3.838   5.152   2.659 -0.2511 -1.1229  0.4081
  187MOL   H19348925   3.566   5.301   2.649 -0.0936 -0.6716  2.8932
  187MOL   H19448926   3.725   5.348   2.574  0.0638  0.1537  0.6325
  187MOL   H19548927   3.992   5.197   2.831  1.1841  0.4156  0.4220
  187MOL   H19648928   3.920   5.211   2.985  0.3985 -0.2437 -1.0349
  187MOL   C19748929   4.103   5.331   2.947 -0.0599  0.2711 -0.7156
  187MOL   C19848930   4.181   5.368   2.827  0.5669  0.1629  0.8262
  187MOL   C19948931   4.301   5.453   2.848 -0.3840  0.1608 -0.2745
  187MOL   C20048932   4.187   5.511   2.759  0.2012  0.1800  0.0116
  187MOL   C20148933   4.180   5.226   3.034 -0.0698  0.5322 -0.2734
  187MOL   H20248934   4.100   5.421   3.009 -1.5268 -0.8016  0.7938
  187MOL   H20348935   4.208   5.281   2.768 -0.3204 -0.4458  1.2898
  187MOL   H20448936   4.313   5.506   2.942 -1.9715 -0.4290  0.2829
  187MOL   H20548937   4.387   5.416   2.794 -0.0928  0.1277  0.2113
  187MOL   H20648938   4.124   5.590   2.801  2.1276  0.2803  2.8563
  187MOL   H20748939   4.202   5.521   2.652 -0.2749 -0.3119 -0.1048
  187MOL   H20848940   4.157   5.123   3.007  0.4905  0.2638  0.2549
  187MOL   H20948941   4.282   5.231   2.997  0.0381  2.7946  0.2226
  187MOL   C21048942   4.185   5.248   3.189 -0.1047 -0.0282  0.3981
  187MOL   C21148943   4.038   5.225   3.236  0.3306  0.1113  0.3789
  187MOL   C21248944   3.982   5.254   3.378 -0.5788  0.2522 -0.0371
  187MOL   C21348945   3.953   5.344   3.261  0.6375  0.0184 -0.3178
  187MOL   C21448946   4.281   5.152   3.257  0.2684 -0.0792  0.0086
  187MOL   H21548947   4.199   5.353   3.214 -2.4938  0.2130  0.8544
  187MOL   H21648948   3.996   5.135   3.193 -3.7270  1.2658  1.7051
  187MOL   H21748949   3.900   5.191   3.410 -0.7344  0.2835 -0.3721
  187MOL   H21848950   4.042   5.309   3.451  0.7646 -1.1225 -0.0635
  187MOL   H21948951   3.850   5.333   3.227  0.8808 -1.0903 -0.7380
  187MOL   H22048952   3.990   5.446   3.268 -0.0728  0.2645 -0.1402
  187MOL   H22148953   4.239   5.115   3.350 -1.7741  0.1320 -0.8122
  187MOL   H22248954   4.284   5.063   3.194  2.2703 -0.0503  0.0277
  187MOL   C22348955   4.424   5.206   3.295  0.7218 -0.1413 -0.3601
  187MOL   C22448956   4.517   5.197   3.169 -0.6165 -0.4763  0.2827
  187MOL   C22548957   4.537   5.324   3.089  0.4119 -0.6395 -0.2999
  187MOL   C22648958   4.651   5.273   3.172 -0.2862  0.6993  0.1039
  187MOL   C22748959   4.490   5.128   3.412 -0.2709  0.1138  0.7850
  187MOL   H22848960   4.423   5.311   3.323 -1.5590 -0.6066  1.4320
  187MOL   H22948961   4.519   5.103   3.114  0.7543 -1.6025  2.1726
  187MOL   H23048962   4.483   5.415   3.115  0.9568 -0.4280  0.0988
  187MOL   H23148963   4.564   5.314   2.984 -0.0766  0.0447 -0.4958
  187MOL   H23248964   4.723   5.211   3.118  1.0977  2.1436  0.2481
  187MOL   H23348965   4.682   5.331   3.259 -0.8739  2.1133 -0.6026
  187MOL   H23448966   4.467   5.022   3.399 -1.3055  0.1467  2.2094
  187MOL   H23548967   4.598   5.122   3.400 -0.7298 -2.2253 -2.8923
  187MOL   C23648968   4.454   5.160   3.552 -0.4610  0.2310  0.5945
  187MOL   C23748969   4.520   5.298   3.591  0.5250  0.2729  0.2580
  187MOL   C23848970   4.456   5.432   3.552  0.1246  0.2768 -0.6117
  187MOL   C23948971   4.464   5.382   3.699  0.6350  0.1729  0.1063
  187MOL   C24048972   4.514   5.050   3.647 -0.0803 -0.7250 -0.1381
  187MOL   H24148973   4.349   5.174   3.579 -0.3506  0.5140  0.8788
  187MOL   H24248974   4.627   5.287   3.604  0.3882  2.4720  4.0383
  187MOL   H24348975   4.522   5.516   3.530  1.4219 -0.4766  0.3403
  187MOL   H24448976   4.353   5.448   3.520 -0.9997 -2.2864  1.5272
  187MOL   H24548977   4.367   5.365   3.746  0.2455 -1.8467 -1.3604
  187MOL   H24648978   4.533   5.433   3.766  0.3526  0.8336 -0.1034
  187MOL   H24748979   4.484   4.958   3.596  2.9089 -2.1614  0.5352
  187MOL   H24848980   4.622   5.038   3.638  0.0114  1.0033 -1.5550
  187MOL   C24948981   4.461   5.051   3.790 -0.7001  0.4450  0.3088
  187MOL   C25048982   4.548   4.963   3.872  0.8714  0.4758  0.1289
  187MOL   C25148983   4.678   5.014   3.934  0.4997 -0.1966  0.0264
  187MOL   C25248984   4.560   4.969   4.020 -0.4714  0.3138  0.5501
  187MOL   C25348985   4.321   4.988   3.804 -1.0306  0.0680 -0.2817
  187MOL   H25448986   4.474   5.149   3.837 -0.4936  0.0998  0.9807
  187MOL   H25548987   4.549   4.860   3.837 -3.1939  0.4681 -0.1843
  187MOL   H25648988   4.763   4.949   3.950 -0.2715 -0.8676  1.5175
  187MOL   H25748989   4.697   5.119   3.915 -0.3313  0.2117  1.3522
  187MOL   H25848990   4.561   4.879   4.081  0.3417 -1.3984 -1.8985
  187MOL   H25948991   4.499   5.046   4.067 -2.3281  0.3177 -1.7748
  187MOL   H26048992   4.305   4.959   3.908  3.5671  1.7437  1.0194
  187MOL   H26148993   4.311   4.894   3.751  0.1570 -0.3382  0.1986
  187MOL   H26248994   4.250   5.058   3.758 -2.3033 -1.8647 -1.3356
  188MOL     C148995   0.075   6.935   4.403 -0.3549 -0.1476  0.6142
  188MOL     C248996   0.034   7.086   4.398 -0.5032 -0.5508 -0.2545
  188MOL     C348997   0.128   7.193   4.455 -0.4404  0.3988 -0.6634
  188MOL     C448998   7.835   7.162   4.520  0.3782  0.3009 -0.0775
  188MOL     C548999   7.790   6.842   4.398  0.6795 -0.3060  0.0658
  188MOL     H649000   0.135   6.915   4.314  1.0194  1.7914  1.0736
  188MOL     H749001   7.807   7.098   4.313  3.0009  2.8651 -2.6569
  188MOL     H849002   0.209   7.161   4.521  0.5659  2.3572 -0.9112
  188MOL     H949003   0.129   7.298   4.427  1.2982  0.5718 -0.0485
  188MOL    H1049004   7.751   7.229   4.507  0.1670  0.1888  0.6568
  188MOL    H1149005   0.001   7.103   4.612  1.2011  0.3394 -0.0959
  188MOL    H1249006   7.758   6.837   4.294 -0.3440 -5.3512  0.4923
  188MOL    H1349007   7.702   6.880   4.451 -0.4170 -0.0518 -1.9154
  188MOL    H1449008   0.142   6.917   4.487  1.5945 -3.2306 -1.5081
  188MOL    C1549009   7.820   6.697   4.443  0.3486  0.0405  0.0387
  188MOL    C1649010   0.087   6.634   4.351 -0.0736  0.1299 -0.2529
  188MOL    C1749011   0.150   6.496   4.374 -0.0017 -0.1894  0.4770
  188MOL    C1849012   0.231   6.626   4.383 -0.1317  0.4501 -0.0849
  188MOL    C1949013   0.007   6.693   4.592  0.2560 -0.3363  0.2848
  188MOL    H2049014   7.724   6.646   4.439  0.1427  0.0151  3.5437
  188MOL    H2149015   0.057   6.639   4.247 -0.9264  1.0926  0.0340
  188MOL    H2249016   0.162   6.436   4.284 -2.8135 -2.6703  1.6656
  188MOL    H2349017   0.124   6.438   4.462 -0.3484 -2.3977 -1.0305
  188MOL    H2449018   0.257   6.677   4.476  1.3051  1.1946 -0.8901
  188MOL    H2549019   0.310   6.637   4.310  1.1794  2.8352  1.6244
  188MOL    H2649020   0.101   6.746   4.605 -1.0038  2.0953 -0.1796
  188MOL    H2749021   0.021   6.591   4.629  1.7355  0.4933  2.0889
  188MOL    C2849022   7.748   6.752   4.698 -0.7279  0.3227 -0.1724
  188MOL    C2949023   7.816   6.759   4.840  0.6752  0.2688 -0.5292
  188MOL    C3049024   0.095   6.843   4.863 -0.4489 -0.2160  0.7088
  188MOL    C3149025   7.806   6.874   4.938  1.2032 -0.1246 -0.7254
  188MOL    C3249026   7.611   6.669   4.696  0.0501 -0.2582  0.4456
  188MOL    H3349027   7.745   6.859   4.675  0.0792  0.5605  0.7819
  188MOL    H3449028   7.835   6.664   4.888  1.2633  0.3858 -0.5269
  188MOL    H3549029   0.123   6.910   4.782  0.2398 -0.0141  1.1148
  188MOL    H3649030   0.170   6.809   4.935 -1.0005 -1.3318  0.7670
  188MOL    H3749031   7.743   6.961   4.922 -0.0378 -1.4613 -3.4141
  188MOL    H3849032   7.792   6.845   5.042 -1.5614  2.4473 -0.2917
  188MOL    H3949033   7.579   6.677   4.592 -1.6788  1.2055  1.0685
  188MOL    H4049034   7.532   6.727   4.743  1.0901  0.3456  1.4528
  188MOL    C4149035   7.612   6.514   4.732 -0.1111  0.0230  0.2043
  188MOL    C4249036   7.518   6.431   4.642  0.4111  0.2593  0.3153
  188MOL    C4349037   7.545   6.279   4.607 -0.3567  0.0267  0.3069
  188MOL    C4449038   7.563   6.384   4.509  0.5731 -0.9395 -0.3590
  188MOL    C4549039   7.583   6.499   4.884  0.1521 -0.2232  0.0422
  188MOL    H4649040   7.710   6.470   4.713 -0.7844 -1.1282 -0.6613
  188MOL    H4749041   7.418   6.472   4.637  0.3944  0.1274 -0.5785
  188MOL    H4849042   7.637   6.250   4.658  0.1170  0.2145 -0.4439
  188MOL    H4949043   7.461   6.214   4.585 -1.2592  1.1926  0.2647
  188MOL    H5049044   7.489   6.397   4.430 -0.1724  1.6811  0.7042
  188MOL    H5149045   7.665   6.406   4.480 -0.1992  0.8444 -1.8723
  188MOL    H5249046   7.481   6.535   4.898  0.2623 -0.7761  2.4843
  188MOL    H5349047   7.629   6.575   4.947 -1.3416  2.0981 -1.5927
  188MOL    C5449048   7.598   6.359   4.942  0.6766 -0.0748  0.0842
  188MOL    C5549049   7.751   6.328   4.961  0.6281  0.0637  0.6021
  188MOL    C5649050   0.007   6.267   4.858  0.2783 -0.4405  0.1539
  188MOL    C5749051   7.800   6.187   4.977 -0.2999  0.1719  0.4566
  188MOL    C5849052   7.536   6.336   5.081 -0.0214  1.0588 -0.0447
  188MOL    H5949053   7.555   6.284   4.876  1.2503 -0.6323  0.3460
  188MOL    H6049054   7.807   6.404   5.015 -0.8470  0.6475  1.3534
  188MOL    H6149055   7.807   6.239   4.760 -1.1191 -2.2113  1.1702
  188MOL    H6249056   0.114   6.282   4.859  0.3408 -0.4263 -2.2178
  188MOL    H6349057   0.045   6.169   5.043 -0.0531  3.1369  0.9875
  188MOL    H6449058   7.736   6.102   4.953  0.5239 -0.0534 -0.9879
  188MOL    H6549059   7.569   6.247   5.136  0.6812  0.5612 -1.2650
  188MOL    H6649060   7.574   6.422   5.136  1.2305 -0.8750  2.2170
  188MOL    C6749061   7.377   6.336   5.086  0.4588 -0.0283 -0.6715
  188MOL    C6849062   7.324   6.208   5.022 -0.0243 -0.4851 -0.3355
  188MOL    C6949063   7.174   6.204   4.994 -0.9868 -1.3411 -0.0810
  188MOL    C7049064   7.267   6.205   4.882  0.5071 -0.2351 -0.2686
  188MOL    C7149065   7.340   6.353   5.236 -0.1889  0.2218 -0.4825
  188MOL    H7249066   7.334   6.424   5.037 -2.1813 -0.0175  1.5357
  188MOL    H7349067   7.366   6.116   5.064 -1.6569 -1.6985 -1.2679
  188MOL    H7449068   7.132   6.110   5.028  0.5857 -2.0662 -0.1109
  188MOL    H7549069   7.113   6.294   5.004 -1.4819 -1.5355 -1.2344
  188MOL    H7649070   7.284   6.296   4.825 -0.2439  0.7946  1.1297
  188MOL    H7749071   7.290   6.117   4.823 -1.2119 -0.8414 -0.0631
  188MOL    H7849072   7.415   6.297   5.292 -0.1078  0.0707 -0.7411
  188MOL    H7949073   7.247   6.297   5.249  0.6973 -1.3732 -0.8284
  188MOL    C8049074   7.320   6.496   5.282  0.4580 -0.6291  0.0371
  188MOL    C8149075   7.317   6.509   5.430  0.1019 -0.1017  0.1769
  188MOL    C8249076   7.364   6.634   5.501 -0.3181 -0.1727  0.2537
  188MOL    C8349077   7.448   6.507   5.512  0.1248  0.8849  0.7005
  188MOL    C8449078   7.187   6.556   5.230 -0.2834  0.3612 -0.0333
  188MOL    H8549079   7.405   6.551   5.242 -0.2746 -0.4188 -1.2603
  188MOL    H8649080   7.236   6.455   5.479  0.9875 -0.2292  1.5219
  188MOL    H8749081   7.316   6.670   5.592 -0.4148  1.5583 -0.4571
  188MOL    H8849082   7.405   6.709   5.434  0.5653 -0.1183  0.8470
  188MOL    H8949083   7.453   6.445   5.601  1.3067  0.9476  0.6752
  188MOL    H9049084   7.544   6.530   5.467 -0.4412  1.0112 -0.4700
  188MOL    H9149085   7.143   6.513   5.140 -1.9072 -0.4704  1.1402
  188MOL    H9249086   7.114   6.533   5.307  1.9173 -0.3723  1.8884
  188MOL    C9349087   7.185   6.713   5.187  0.3230  0.0645  0.3663
  188MOL    C9449088   7.294   6.748   5.081 -0.6168  0.1851  0.1421
  188MOL    C9549089   7.348   6.882   5.041  0.1968 -0.2335  0.3449
  188MOL    C9649090   7.441   6.785   5.114 -0.2278  0.3996 -0.5402
  188MOL    C9749091   7.049   6.745   5.134 -0.2855  0.3295  0.0269
  188MOL    H9849092   7.208   6.773   5.276  0.3218  2.1142 -0.9806
  188MOL    H9949093   7.292   6.682   4.994  2.7693 -1.4984  1.2714
  188MOL   H10049094   7.357   6.896   4.934  2.5966  0.5826  0.6158
  188MOL   H10149095   7.314   6.967   5.099  1.5087  0.9307 -0.5629
  188MOL   H10249096   7.514   6.731   5.055  0.8326  1.0351  0.1837
  188MOL   H10349097   7.464   6.818   5.215 -0.9354 -0.0288 -0.2291
  188MOL   H10449098   7.033   6.671   5.056  0.8349  0.7551 -0.6180
  188MOL   H10549099   7.050   6.839   5.079  2.3653  0.1933 -0.1952
  188MOL   C10649100   6.930   6.739   5.231 -0.2640 -0.1488  0.1132
  188MOL   C10749101   6.949   6.830   5.348  0.5287 -0.3951  0.6848
  188MOL   C10849102   6.880   6.808   5.475  0.1345 -0.0813 -0.3957
  188MOL   C10949103   7.034   6.808   5.472 -0.3288 -0.1126  0.0494
  188MOL   C11049104   6.798   6.782   5.149  0.2168  1.1501  0.0452
  188MOL   H11149105   6.923   6.637   5.268 -0.3986  0.6367  2.3375
  188MOL   H11249106   6.958   6.932   5.311 -2.6855  1.0110  3.5580
  188MOL   H11349107   6.839   6.888   5.537  0.2081  0.2672 -0.7960
  188MOL   H11449108   6.832   6.713   5.495 -2.2198  1.0270 -0.6624
  188MOL   H11549109   7.083   6.711   5.484  0.4915  0.0242 -1.8710
  188MOL   H11649110   7.071   6.896   5.522 -1.7191  0.6490 -0.2374
  188MOL   H11749111   6.717   6.766   5.220 -0.1007 -1.8412 -0.9030
  188MOL   H11849112   6.790   6.881   5.105  0.7795  0.0433 -2.6603
  188MOL   C11949113   6.755   6.683   5.031  0.1010  0.5905 -0.2984
  188MOL   C12049114   6.719   6.547   5.087 -0.5139  0.6229  0.8421
  188MOL   C12149115   6.819   6.435   5.083 -0.7971 -0.1432 -0.0179
  188MOL   C12249116   6.700   6.435   4.988 -0.7795  0.0589 -0.0728
  188MOL   C12349117   6.641   6.744   4.951  0.0908  0.2619 -0.2319
  188MOL   H12449118   6.833   6.664   4.958  1.3004  0.9009  0.8965
  188MOL   H12549119   6.642   6.549   5.163 -1.8701  0.1403 -0.4953
  188MOL   H12649120   6.812   6.360   5.161 -0.0373 -0.2851 -0.0780
  188MOL   H12749121   6.914   6.460   5.036 -0.9331 -0.7124 -0.5999
  188MOL   H12849122   6.713   6.458   4.882 -0.4881  0.6041  0.0791
  188MOL   H12949123   6.613   6.373   5.006 -0.6380 -0.2165 -0.3280
  188MOL   H13049124   6.599   6.666   4.886 -0.0858 -0.2407  0.4818
  188MOL   H13149125   6.554   6.758   5.015 -0.7254  1.1276 -1.5010
  188MOL   C13249126   6.679   6.854   4.846 -0.5831  0.3433  0.0749
  188MOL   C13349127   6.561   6.959   4.831 -0.4857  0.0973  0.0924
  188MOL   C13449128   6.566   7.114   4.817 -0.0559  0.8429 -0.0983
  188MOL   C13549129   6.508   7.037   4.942  1.0862  0.1724 -1.1501
  188MOL   C13649130   6.722   6.806   4.702 -0.1038 -0.4727  0.1944
  188MOL   H13749131   6.762   6.906   4.894 -1.0185 -0.2755  1.5581
  188MOL   H13849132   6.476   6.907   4.786 -0.3271 -1.0269  1.0514
  188MOL   H13949133   6.657   7.173   4.826 -0.0731  0.8040  0.3841
  188MOL   H14049134   6.508   7.146   4.732 -0.9324 -1.4460 -0.4079
  188MOL   H14149135   6.563   7.048   5.036  0.3443 -1.4462 -0.5196
  188MOL   H14249136   6.400   7.035   4.948  1.1275 -0.2015 -0.5035
  188MOL   H14349137   6.800   6.735   4.730 -2.0550 -2.3878  0.8902
  188MOL   H14449138   6.656   6.737   4.650 -0.3747 -1.9989  2.4810
  188MOL   C14549139   6.781   6.905   4.606  0.2662  0.1949 -0.3506
  188MOL   C14649140   6.932   6.918   4.620  0.4089  0.1366  0.7457
  188MOL   C14749141   7.017   6.868   4.735  0.6918  0.4904  0.0806
  188MOL   C14849142   7.032   6.814   4.600 -0.5183  0.0087 -0.1397
  188MOL   C14949143   6.748   6.879   4.462 -0.6411  0.4829  0.5512
  188MOL   H15049144   6.754   7.005   4.641 -1.5629 -0.1645 -0.7078
  188MOL   H15149145   6.965   7.018   4.591  0.6207 -0.4249 -0.9861
  188MOL   H15249146   7.086   6.939   4.780  2.5920 -2.4774  2.0546
  188MOL   H15349147   6.980   6.798   4.810  1.2942  0.9964  0.8638
  188MOL   H15449148   7.006   6.709   4.589 -4.4238  1.0350 -1.5602
  188MOL   H15549149   7.113   6.836   4.532 -1.1683  1.7225 -0.3884
  188MOL   H15649150   6.803   6.788   4.436 -2.7460 -0.7255  0.2084
  188MOL   H15749151   6.645   6.844   4.450 -0.0326 -1.3717  0.5858
  188MOL   C15849152   6.789   6.990   4.360 -0.3182  0.4049  0.1870
  188MOL   C15949153   6.704   7.112   4.379  0.1685  0.1048 -0.2221
  188MOL   C16049154   6.731   7.224   4.478  0.4233 -0.1647 -0.3708
  188MOL   C16149155   6.739   7.249   4.330  0.1733 -0.5907 -0.5786
  188MOL   C16249156   6.782   6.930   4.214 -0.2915  0.0013 -0.3625
  188MOL   H16349157   6.894   7.016   4.375  0.6392 -2.2035 -1.4751
  188MOL   H16449158   6.598   7.089   4.368  0.5936 -1.3465 -1.5350
  188MOL   H16549159   6.822   7.221   4.539  0.0582 -0.8157  0.1454
  188MOL   H16649160   6.654   7.276   4.536  0.4226 -1.1615  0.5369
  188MOL   H16749161   6.660   7.303   4.279  0.3703  4.0458  3.6217
  188MOL   H16849162   6.836   7.264   4.284 -0.6993  2.2295 -1.5874
  188MOL   H16949163   6.680   6.899   4.192  0.0327 -0.9467 -0.5497
  188MOL   H17049164   6.837   6.836   4.208 -0.4213 -0.1948  1.4086
  188MOL   C17149165   6.852   7.015   4.107  0.1725 -0.0849 -0.0014
  188MOL   C17249166   7.002   7.004   4.131  0.2838  0.6634  0.4778
  188MOL   C17349167   7.101   7.094   4.064 -0.3059 -0.0036 -0.4507
  188MOL   C17449168   7.092   7.100   4.217 -0.0754 -0.7505 -0.2467
  188MOL   C17549169   6.818   6.962   3.968  0.8826 -0.8134  0.4355
  188MOL   H17649170   6.828   7.121   4.111  0.5885 -0.0691  2.7252
  188MOL   H17749171   7.040   6.902   4.138  0.4648  0.6234 -1.0579
  188MOL   H17849172   7.185   7.041   4.021  0.5975  0.9816  0.0823
  188MOL   H17949173   7.062   7.170   3.996 -3.1819 -1.9563 -1.1071
  188MOL   H18049174   7.048   7.189   4.260  0.8569 -1.1409  1.5789
  188MOL   H18149175   7.171   7.047   4.270 -0.9032 -2.0542 -0.2973
  188MOL   H18249176   6.801   6.854   3.965  0.5424 -0.7096 -1.4396
  188MOL   H18349177   6.896   6.982   3.895  1.1511 -0.0049  0.9365
  188MOL   C18449178   6.689   7.038   3.911 -0.1086 -0.1284 -0.3785
  188MOL   C18549179   6.618   6.947   3.812  0.5128  1.2394  0.4757
  188MOL   C18649180   6.472   6.961   3.782 -1.0979 -0.6986  0.2378
  188MOL   C18749181   6.526   6.853   3.872 -0.3972  0.3205 -0.2284
  188MOL   C18849182   6.724   7.178   3.853  0.3001 -0.3374 -0.0439
  188MOL   H18949183   6.617   7.044   3.993 -1.5934  0.1204 -1.6765
  188MOL   H19049184   6.680   6.913   3.729 -1.0781  4.3344 -2.0888
  188MOL   H19149185   6.441   6.935   3.681 -0.3975 -0.1047 -0.1276
  188MOL   H19249186   6.438   7.056   3.822 -0.9785  0.0372 -1.3712
  188MOL   H19349187   6.527   6.746   3.850  1.0141  0.0916  0.8390
  188MOL   H19449188   6.488   6.863   3.974 -1.0122  0.0499 -0.4341
  188MOL   H19549189   6.773   7.174   3.756 -0.0710 -2.8350 -0.1604
  188MOL   H19649190   6.812   7.217   3.905  1.0139 -2.1439  0.1404
  188MOL   C19749191   6.615   7.291   3.853  0.2069 -0.1849  0.3408
  188MOL   C19849192   6.675   7.420   3.788  0.9353  0.2361  0.1034
  188MOL   C19949193   6.595   7.513   3.703  0.1581  0.2418 -0.5385
  188MOL   C20049194   6.709   7.431   3.642  0.1568  0.0481  0.4704
  188MOL   C20149195   6.576   7.328   3.999 -0.0340  0.0971  0.0210
  188MOL   H20249196   6.531   7.270   3.787  0.2827 -0.3440  0.2964
  188MOL   H20349197   6.731   7.485   3.855 -0.6545  0.3524  1.3532
  188MOL   H20449198   6.491   7.492   3.678 -0.6055  1.6272  1.3786
  188MOL   H20549199   6.615   7.620   3.702  1.7644 -0.0262  0.8485
  188MOL   H20649200   6.688   7.341   3.583 -0.3683 -0.4094  1.3319
  188MOL   H20749201   6.800   7.484   3.618  1.0770 -1.9969 -0.6427
  188MOL   H20849202   6.555   7.246   4.067 -1.6929 -0.5595 -1.2284
  188MOL   H20949203   6.664   7.374   4.043  1.3792 -1.1696 -1.4106
  188MOL   C21049204   6.451   7.422   4.007  0.4284 -0.0427 -0.3090
  188MOL   C21149205   6.318   7.345   3.975 -0.0862  0.4209  0.6602
  188MOL   C21249206   6.182   7.403   3.951  0.0361 -0.5185  0.1988
  188MOL   C21349207   6.254   7.345   3.838 -0.1749 -0.0223  0.4612
  188MOL   C21449208   6.449   7.495   4.139 -0.0968 -1.1618 -0.0213
  188MOL   H21549209   6.461   7.500   3.932  0.1440  0.3759  0.0808
  188MOL   H21649210   6.321   7.244   4.014 -2.4948  0.4892  1.1282
  188MOL   H21749211   6.091   7.347   3.974 -0.4125 -1.1209 -2.7598
  188MOL   H21849212   6.169   7.510   3.964  1.2812 -0.5089  1.3743
  188MOL   H21949213   6.200   7.260   3.795 -1.1145  1.2468 -0.9107
  188MOL   H22049214   6.287   7.420   3.766 -3.7939  0.5768 -0.6714
  188MOL   H22149215   6.420   7.424   4.216 -2.8921  2.5076  2.5006
  188MOL   H22249216   6.546   7.536   4.167 -1.3090  1.7767  0.1195
  188MOL   C22349217   6.357   7.617   4.163  0.2786 -0.6148  0.1027
  188MOL   C22449218   6.405   7.735   4.079 -0.0171  0.3747  0.3955
  188MOL   C22549219   6.368   7.738   3.936  0.1214 -0.2787  0.1355
  188MOL   C22649220   6.315   0.002   4.028  0.0019  0.5266 -0.1916
  188MOL   C22749221   6.358   7.653   4.309 -0.6636  0.2361 -0.6946
  188MOL   H22849222   6.255   7.595   4.130 -0.4627 -0.9310  2.4722
  188MOL   H22949223   6.504   7.775   4.099  0.0294  0.4797 -0.0380
  188MOL   H23049224   6.294   7.674   3.890  0.9076 -2.6290  2.0844
  188MOL   H23149225   6.451   7.767   3.871 -0.4669  2.6494  0.5890
  188MOL   H23249226   6.358   0.101   4.023  2.9687 -0.6992 -0.1271
  188MOL   H23349227   6.211   7.829   4.058 -0.2200  1.2687 -0.6624
  188MOL   H23449228   6.454   7.650   4.361 -2.0452 -0.9553  1.9215
  188MOL   H23549229   6.328   7.758   4.309  1.6221  0.9194 -2.0196
  188MOL   C23649230   6.273   7.555   4.403  0.1516 -0.2135  0.6945
  188MOL   C23749231   6.131   7.529   4.366 -0.4521 -0.3145  0.3174
  188MOL   C23849232   6.105   7.430   4.252 -0.4797  0.4903 -0.0667
  188MOL   C23949233   6.066   7.395   4.400  0.1991  0.2818  0.3706
  188MOL   C24049234   6.277   7.608   4.545 -0.1893 -0.5613  0.3781
  188MOL   H24149235   6.325   7.460   4.410  1.1564  0.4171  2.0029
  188MOL   H24249236   6.065   7.613   4.388  0.8585  0.4756  1.2600
  188MOL   H24349237   6.014   7.447   4.194  0.1221  1.1236 -0.8415
  188MOL   H24449238   6.190   7.380   4.206 -1.2126 -2.4067  1.6057
  188MOL   H24549239   6.122   7.312   4.441  0.1676  0.1007  0.0504
  188MOL   H24649240   5.962   7.400   4.432 -0.0567  0.1156 -0.4284
  188MOL   H24749241   6.379   7.641   4.565 -0.2188 -0.6460  0.6693
  188MOL   H24849242   6.221   7.702   4.544 -0.9692 -1.0176 -1.6358
  188MOL   C24949243   6.221   7.513   4.653  0.5914  0.0499  0.2851
  188MOL   C25049244   6.187   7.597   4.776  0.6297 -0.4249 -0.2029
  188MOL   C25149245   6.045   7.630   4.815  0.3983  0.4675 -0.4964
  188MOL   C25249246   6.114   7.528   4.894  0.3316  0.1607  0.4929
  188MOL   C25349247   6.321   7.401   4.695  0.2018  0.2051  0.1772
  188MOL   H25449248   6.127   7.464   4.627 -0.4886  1.5835  1.2709
  188MOL   H25549249   6.271   7.656   4.812  2.1370 -2.8999  0.4410
  188MOL   H25649250   6.023   7.716   4.879  1.6996  1.2939 -1.1272
  188MOL   H25749251   5.972   7.600   4.741  1.2134 -1.3649 -0.5975
  188MOL   H25849252   6.173   7.553   4.983  1.3679 -0.7286  0.0750
  188MOL   H25949253   6.071   7.429   4.884 -0.2126  0.5308 -0.9077
  188MOL   H26049254   6.276   7.353   4.782 -2.2750  1.0556 -0.6071
  188MOL   H26149255   6.418   7.433   4.733  0.2447  0.2679  0.0140
  188MOL   H26249256   6.334   7.324   4.619 -0.7404  0.9206 -0.7194
  189MOL     C149257   1.729   3.878   3.180  0.2513 -0.2931  0.1783
  189MOL     C249258   1.845   3.793   3.198  0.1063  0.2709 -0.5360
  189MOL     C349259   1.831   3.673   3.294  0.3926  0.2702 -0.1321
  189MOL     C449260   1.919   3.790   3.330  0.0544  0.1581 -0.0839
  189MOL     C549261   1.784   4.016   3.153 -0.1166  0.8674 -0.4341
  189MOL     H649262   1.667   3.838   3.101  1.1782 -0.4283 -0.4898
  189MOL     H749263   1.921   3.782   3.121  2.9541  2.8029  1.7639
  189MOL     H849264   1.746   3.668   3.362 -0.1893  1.1915 -0.7740
  189MOL     H949265   1.882   3.579   3.276  0.5701  0.2310  0.5528
  189MOL    H1049266   2.027   3.775   3.320  0.2941  0.2501  2.1029
  189MOL    H1149267   1.894   3.864   3.406  1.8128 -0.1757  0.8636
  189MOL    H1249268   1.826   4.026   3.053 -0.2324  1.2067 -0.4477
  189MOL    H1349269   1.859   4.053   3.222 -0.3966  0.6762 -0.0275
  189MOL    H1449270   1.669   3.867   3.271 -1.1492  0.4168 -0.6414
  189MOL    C1549271   1.674   4.125   3.139 -0.0709  0.1428  0.4409
  189MOL    C1649272   1.744   4.257   3.102 -0.1035 -0.8619 -0.1800
  189MOL    C1749273   1.759   4.362   3.215  0.3593  0.6358  0.2097
  189MOL    C1849274   1.669   4.391   3.096 -0.8449 -0.4960  0.4058
  189MOL    C1949275   1.565   4.096   3.037  0.0443 -0.3231  0.1329
  189MOL    H2049276   1.632   4.134   3.239  0.8182 -1.4284  0.9654
  189MOL    H2149277   1.838   4.248   3.047  1.2968  0.4452  1.9299
  189MOL    H2249278   1.848   4.423   3.224  0.9676 -0.0906 -0.8078
  189MOL    H2349279   1.705   4.352   3.309  1.5051  1.9980  1.0289
  189MOL    H2449280   1.563   4.395   3.117 -1.2554 -0.7293 -1.5211
  189MOL    H2549281   1.703   4.457   3.016 -1.2186 -1.3343 -0.4512
  189MOL    H2649282   1.611   4.027   2.966  0.7396  1.5975 -1.3209
  189MOL    H2749283   1.544   4.183   2.976 -1.7520 -0.4149  0.5829
  189MOL    C2849284   1.437   4.032   3.096  0.0055 -0.2284  0.2736
  189MOL    C2949285   1.347   3.988   2.981 -0.8339  0.4252  0.3205
  189MOL    C3049286   1.389   3.874   2.900  0.6522  0.4020  0.3820
  189MOL    C3149287   1.268   3.859   2.988 -0.0764 -0.8037  0.9116
  189MOL    C3249288   1.370   4.152   3.165 -0.5643  0.1848  0.3813
  189MOL    H3349289   1.456   3.953   3.168 -0.1763  0.3540  0.9611
  189MOL    H3449290   1.314   4.078   2.928 -1.8363 -0.2702 -0.2366
  189MOL    H3549291   1.481   3.824   2.928  0.5446 -0.4304 -0.7033
  189MOL    H3649292   1.377   3.878   2.792  0.9562 -0.3160  0.3152
  189MOL    H3749293   1.295   3.810   3.082 -0.5104 -1.3677  0.7496
  189MOL    H3849294   1.171   3.841   2.941 -0.1960  3.0953 -0.4499
  189MOL    H3949295   1.359   4.233   3.092 -1.4558  0.6102  0.9858
  189MOL    H4049296   1.437   4.200   3.236  1.8134 -0.7933 -1.1312
  189MOL    C4149297   1.231   4.123   3.228 -0.1638 -0.8930 -0.2784
  189MOL    C4249298   1.157   4.254   3.240  0.1283 -0.7035  0.4908
  189MOL    C4349299   1.009   4.271   3.210  0.4224 -0.2150 -0.0037
  189MOL    C4449300   1.113   4.339   3.123  0.3496 -0.0551  0.6889
  189MOL    C4549301   1.247   4.048   3.363 -0.2540  0.7242 -0.3218
  189MOL    H4649302   1.170   4.064   3.160 -0.8902  0.8432 -1.1485
  189MOL    H4749303   1.210   4.313   3.314  0.3415 -2.2649  1.6145
  189MOL    H4849304   0.961   4.176   3.186 -0.2558 -0.6169  2.8143
  189MOL    H4949305   0.950   4.330   3.280 -1.1482 -0.3522 -1.1782
  189MOL    H5049306   1.136   4.445   3.134 -0.5347  0.2318 -0.1045
  189MOL    H5149307   1.114   4.295   3.023 -0.2200 -0.6171  0.9274
  189MOL    H5249308   1.296   4.113   3.435 -0.4883 -0.9197  1.3570
  189MOL    H5349309   1.323   3.970   3.355 -1.5172 -0.6879  1.1774
  189MOL    C5449310   1.118   3.979   3.406  0.3519  0.5692  0.5965
  189MOL    C5549311   1.072   3.865   3.321  0.5261 -0.1940  0.3949
  189MOL    C5649312   0.974   3.880   3.200  0.0006  0.2512 -0.9428
  189MOL    C5749313   0.925   3.829   3.326 -0.0360  0.0403 -0.3525
  189MOL    C5849314   1.137   3.929   3.553 -0.3558  0.7850  0.3609
  189MOL    H5949315   1.034   4.049   3.407 -0.2306 -0.0217 -1.8146
  189MOL    H6049316   1.149   3.787   3.321  2.7546  1.9505 -0.2555
  189MOL    H6149317   0.940   3.981   3.179  1.0246  1.1260  1.4436
  189MOL    H6249318   0.991   3.807   3.121  1.2991  0.3824 -0.7961
  189MOL    H6349319   0.908   3.723   3.341 -0.2618  0.2238  0.7174
  189MOL    H6449320   0.853   3.891   3.379 -0.6329  0.3476 -1.4948
  189MOL    H6549321   1.059   3.856   3.575  0.3948  0.0386  0.5958
  189MOL    H6649322   1.233   3.878   3.564  0.3578  1.7616 -1.1320
  189MOL    C6749323   1.124   4.049   3.655  0.2979  0.7537  0.9667
  189MOL    C6849324   0.975   4.051   3.700  0.3054 -0.4174  0.7625
  189MOL    C6949325   0.897   4.171   3.745 -0.5394  0.2659  0.2243
  189MOL    C7049326   0.860   4.112   3.618 -0.3481  0.0422  0.2433
  189MOL    C7149327   1.208   4.038   3.783  0.3959  0.2144 -0.3175
  189MOL    H7249328   1.132   4.146   3.605  0.5691  1.1782  1.8176
  189MOL    H7349329   0.951   3.952   3.738  1.0278 -0.4491  1.1373
  189MOL    H7449330   0.822   4.167   3.824 -0.0337  0.5911  0.7189
  189MOL    H7549331   0.939   4.271   3.741 -1.2428  0.5474 -0.2215
  189MOL    H7649332   0.876   4.175   3.531  2.1249 -0.6390  0.1595
  189MOL    H7749333   0.774   4.045   3.618  1.2848 -2.3110 -4.3190
  189MOL    H7849334   1.196   3.935   3.818  0.5613 -0.0895 -1.1277
  189MOL    H7949335   1.158   4.094   3.862 -1.8588 -0.9990 -0.8370
  189MOL    C8049336   1.367   4.053   3.773  1.0203 -0.5893 -0.6435
  189MOL    C8149337   1.419   4.027   3.915  0.0629  0.4495 -0.3004
  189MOL    C8249338   1.562   3.998   3.943  0.7925 -0.1068 -0.5873
  189MOL    C8349339   1.453   3.891   3.962 -0.0606 -0.1474 -0.3855
  189MOL    C8449340   1.406   4.189   3.722  0.4633  0.4599  0.7038
  189MOL    H8549341   1.406   3.979   3.703 -1.0194 -0.2806 -2.1544
  189MOL    H8649342   1.366   4.081   3.994 -1.4509 -0.3219 -0.7656
  189MOL    H8749343   1.600   4.048   4.032  1.5444 -1.2962 -0.2200
  189MOL    H8849344   1.641   3.992   3.869  2.0621  1.8042  0.5716
  189MOL    H8949345   1.441   3.810   3.890 -0.9086 -1.8996  1.6476
  189MOL    H9049346   1.430   3.863   4.065 -0.9284  1.6033 -0.0801
  189MOL    H9149347   1.341   4.190   3.634 -0.1455  1.3980  1.1507
  189MOL    H9249348   1.356   4.259   3.789 -2.6636 -0.0899 -0.9521
  189MOL    C9349349   1.548   4.229   3.690 -0.2297 -0.8725 -0.4006
  189MOL    C9449350   1.599   4.176   3.552  0.4435 -0.0299 -0.0411
  189MOL    C9549351   1.744   4.148   3.542 -0.6558 -0.2307 -0.2264
  189MOL    C9649352   1.642   4.032   3.531  0.4830 -0.6619 -0.0815
  189MOL    C9749353   1.571   4.373   3.700 -0.1865  0.4430  0.0540
  189MOL    H9849354   1.613   4.176   3.759  1.6244  2.0646  0.2092
  189MOL    H9949355   1.551   4.215   3.462 -0.9171  1.4058  1.2785
  189MOL   H10049356   1.804   4.161   3.452 -0.0184  0.6326  0.3152
  189MOL   H10149357   1.796   4.139   3.638  0.4391 -2.3722 -0.9890
  189MOL   H10249358   1.626   3.986   3.433 -2.5450 -1.6802  0.8449
  189MOL   H10349359   1.618   3.969   3.616 -0.5203 -0.2270 -0.0392
  189MOL   H10449360   1.497   4.435   3.650 -0.5877  1.8855  2.3958
  189MOL   H10549361   1.653   4.402   3.633  0.4191 -2.4850 -0.5678
  189MOL   C10649362   1.601   4.417   3.845 -0.0858 -1.3769  0.3983
  189MOL   C10749363   1.750   4.435   3.865  1.0540  0.2687  0.3719
  189MOL   C10849364   1.814   4.398   3.991  0.3057 -0.3199 -0.5100
  189MOL   C10949365   1.851   4.325   3.864  0.3243 -0.3198 -0.3448
  189MOL   C11049366   1.528   4.555   3.868  0.6572  0.1972 -0.2077
  189MOL   H11149367   1.556   4.348   3.917 -1.1472 -0.8108  0.2809
  189MOL   H11249368   1.784   4.529   3.821  1.1559 -0.6948 -1.6631
  189MOL   H11349369   1.887   4.468   4.032 -0.0806  0.2100 -0.7142
  189MOL   H11449370   1.761   4.337   4.064  2.0927 -1.5378 -0.1934
  189MOL   H11549371   1.803   4.231   3.834  0.3849 -0.3762 -0.2678
  189MOL   H11649372   1.944   4.348   3.813 -0.5523  1.7141 -1.0813
  189MOL   H11749373   1.591   4.641   3.849  0.6711  0.3212  0.3834
  189MOL   H11849374   1.448   4.569   3.795  1.0599 -0.4184 -0.7761
  189MOL   C11949375   1.477   4.574   4.015 -0.0165 -0.2825  0.2690
  189MOL   C12049376   1.441   4.721   4.047  1.1643 -0.2535 -0.5173
  189MOL   C12149377   1.546   4.834   4.038 -0.0500  0.5131  0.0454
  189MOL   C12249378   1.481   4.795   4.170  0.3155 -0.1062  0.3541
  189MOL   C12349379   1.367   4.474   4.049  0.2114  0.1568 -0.4862
  189MOL   H12449380   1.564   4.547   4.075 -1.4319  0.5949  2.7822
  189MOL   H12549381   1.349   4.759   4.003  0.7278 -0.5413  0.1439
  189MOL   H12649382   1.507   4.922   3.988  0.2044  1.4852  1.5113
  189MOL   H12749383   1.652   4.811   4.040  0.1390  1.3612  0.4935
  189MOL   H12849384   1.536   4.742   4.248  1.1835 -0.1891 -0.3226
  189MOL   H12949385   1.400   4.857   4.209  0.4853  0.8221 -0.7691
  189MOL   H13049386   1.272   4.512   4.013  0.6702  0.3375 -1.5425
  189MOL   H13149387   1.367   4.379   3.995 -0.8691 -0.7684  1.0771
  189MOL   C13249388   1.352   4.435   4.207  0.0745 -0.6625  0.3060
  189MOL   C13349389   1.420   4.299   4.228 -1.0257 -0.1678  0.3202
  189MOL   C13449390   1.473   4.257   4.360 -0.1453 -0.5971  0.5203
  189MOL   C13549391   1.563   4.300   4.252  0.2416  0.3035  0.6797
  189MOL   C13649392   1.196   4.413   4.242 -0.0726  0.1282 -0.3433
  189MOL   H13749393   1.405   4.510   4.266 -0.2093 -1.1983  1.2335
  189MOL   H13849394   1.400   4.226   4.150 -1.2627  1.4135 -1.1423
  189MOL   H13949395   1.445   4.336   4.429  0.1963  0.0286 -0.0484
  189MOL   H14049396   1.470   4.150   4.384 -0.7125 -0.2977  1.8197
  189MOL   H14149397   1.615   4.392   4.278  0.5219 -0.0398  1.3596
  189MOL   H14249398   1.624   4.227   4.199 -1.4656 -0.8714  0.3017
  189MOL   H14349399   1.139   4.487   4.186  0.5784 -0.2486 -1.5141
  189MOL   H14449400   1.164   4.320   4.195 -1.4002  1.1848 -1.5710
  189MOL   C14549401   1.148   4.430   4.390  0.2196  0.6586  0.4217
  189MOL   C14649402   1.186   4.569   4.441  0.4823  0.0400 -0.0827
  189MOL   C14749403   1.180   4.609   4.584 -0.4102 -0.4303  0.3919
  189MOL   C14849404   1.316   4.610   4.511 -0.4280  0.2125 -0.3276
  189MOL   C14949405   0.989   4.405   4.383  0.2774 -0.1160 -0.4375
  189MOL   H15049406   1.192   4.348   4.447  0.1805  0.2844 -0.0866
  189MOL   H15149407   1.153   4.645   4.370  2.6154  0.9873 -0.1024
  189MOL   H15249408   1.127   4.701   4.604  1.7903  1.1837 -0.8790
  189MOL   H15349409   1.164   4.537   4.663  0.1254 -1.2687 -0.2523
  189MOL   H15449410   1.392   4.535   4.532 -0.3506  1.0915  2.7806
  189MOL   H15549411   1.358   4.699   4.463 -1.8870  1.5335  0.7961
  189MOL   H15649412   0.948   4.485   4.321 -2.4458  1.1639  2.8597
  189MOL   H15749413   0.967   4.313   4.329  0.9753 -0.1117 -0.7241
  189MOL   C15849414   0.911   4.396   4.524  0.4285 -0.0674  0.1659
  189MOL   C15949415   0.907   4.254   4.591  0.1808 -0.4237  0.2589
  189MOL   C16049416   1.013   4.173   4.652 -0.5381 -0.7207 -0.1493
  189MOL   C16149417   0.917   4.239   4.743  0.4782 -0.3465 -0.2491
  189MOL   C16249418   0.769   4.447   4.513 -0.0105  0.3032 -0.2825
  189MOL   H16349419   0.962   4.461   4.595 -0.3763  1.8536 -0.9465
  189MOL   H16449420   0.834   4.193   4.538 -0.3019  0.5955 -0.2681
  189MOL   H16549421   1.113   4.210   4.675 -0.0303 -1.3757 -1.2739
  189MOL   H16649422   1.009   4.065   4.651 -2.4000 -0.6857  1.3078
  189MOL   H16749423   0.840   4.175   4.786  1.8969 -1.6891  0.3399
  189MOL   H16849424   0.947   4.324   4.805 -1.0483 -0.0173  0.0575
  189MOL   H16949425   0.713   4.400   4.594 -2.1102  1.5373 -0.9730
  189MOL   H17049426   0.736   4.416   4.414 -1.4616  0.2931  0.1957
  189MOL   C17149427   0.746   4.600   4.533  0.6232  0.0011  0.1399
  189MOL   C17249428   0.787   4.643   4.683  0.4023  0.8334 -0.6930
  189MOL   C17349429   0.693   4.737   4.762 -0.0365  0.1527 -0.3973
  189MOL   C17449430   0.688   4.590   4.794 -0.3627  0.8079  0.3206
  189MOL   C17549431   0.807   4.689   4.428 -0.5011  0.0984 -0.0505
  189MOL   H17649432   0.640   4.626   4.528  0.9805  1.4525 -0.1595
  189MOL   H17749433   0.893   4.653   4.705 -0.0194 -1.5768  2.8728
  189MOL   H17849434   0.739   4.791   4.845 -0.2368  1.0861 -0.8969
  189MOL   H17949435   0.619   4.787   4.700  2.1392  1.7935 -1.7120
  189MOL   H18049436   0.607   4.527   4.758 -0.9616  1.3535  0.6992
  189MOL   H18149437   0.737   4.560   4.887 -3.5877 -1.9978  1.2049
  189MOL   H18249438   0.788   4.673   4.322 -1.0510  1.1765 -0.1266
  189MOL   H18349439   0.915   4.680   4.441 -0.7740 -2.7010  0.4562
  189MOL   C18449440   0.764   4.837   4.438 -0.0842  0.0639  0.3640
  189MOL   C18549441   0.629   4.863   4.368 -0.6395 -0.1784 -0.9156
  189MOL   C18649442   0.579   5.006   4.388  0.1420  0.0382  0.8917
  189MOL   C18749443   0.500   4.894   4.447 -0.3885 -0.0156  0.1883
  189MOL   C18849444   0.879   4.921   4.372 -0.3299  0.7148  0.2409
  189MOL   H18949445   0.737   4.868   4.539 -1.0645  0.9206 -0.1362
  189MOL   H19049446   0.611   4.829   4.266 -0.9759 -0.2947 -0.8196
  189MOL   H19149447   0.525   5.064   4.314 -1.1221 -0.1788  1.6233
  189MOL   H19249448   0.631   5.074   4.456 -0.3418 -0.8643  2.1876
  189MOL   H19349449   0.400   4.897   4.404 -0.4819  0.2499  0.4213
  189MOL   H19449450   0.499   4.880   4.555  0.6126 -0.8208  0.0953
  189MOL   H19549451   0.975   4.873   4.389 -1.6395 -1.9312  0.4687
  189MOL   H19649452   0.872   5.008   4.436 -2.4686  0.3633  0.5428
  189MOL   C19749453   0.870   4.967   4.221 -0.3543 -0.9613 -0.4866
  189MOL   C19849454   0.898   4.858   4.117 -0.7888 -0.7624  0.7444
  189MOL   C19949455   1.038   4.847   4.050  0.7187  0.3705  0.1564
  189MOL   C20049456   0.912   4.879   3.974 -0.3345  0.4533  0.2779
  189MOL   C20149457   0.963   5.091   4.218  0.1767  0.0215  0.0102
  189MOL   H20249458   0.766   4.992   4.199 -0.4139 -0.0830  0.7635
  189MOL   H20349459   0.857   4.760   4.145 -1.2426 -0.3343  1.6142
  189MOL   H20449460   1.119   4.917   4.069  1.5976 -0.2636 -1.2083
  189MOL   H20549461   1.076   4.747   4.031  1.1890  0.7712 -1.0249
  189MOL   H20649462   0.871   4.977   3.950 -0.4667 -0.1760 -2.2287
  189MOL   H20749463   0.865   4.804   3.911 -1.1978 -0.1299  1.5963
  189MOL   H20849464   1.048   5.088   4.286 -0.5491 -1.0762  0.8891
  189MOL   H20949465   1.015   5.098   4.122 -0.3537 -1.8251 -0.4318
  189MOL   C21049466   0.889   5.221   4.240  0.3685 -0.3740  0.3049
  189MOL   C21149467   0.962   5.340   4.298 -0.4375  0.1356 -0.4288
  189MOL   C21249468   1.060   5.331   4.412  0.0505 -0.3191  0.1124
  189MOL   C21349469   1.105   5.381   4.276 -0.0065 -0.2063  0.1659
  189MOL   C21449470   0.793   5.265   4.125 -0.4728 -0.6303 -0.3150
  189MOL   H21549471   0.820   5.197   4.320 -0.4531 -1.6759 -0.7681
  189MOL   H21649472   0.893   5.424   4.309 -0.2187  0.4672 -1.4854
  189MOL   H21749473   1.074   5.408   4.488 -0.6845 -0.6991  0.6431
  189MOL   H21849474   1.108   5.237   4.437 -0.5297 -0.7862 -0.5059
  189MOL   H21949475   1.115   5.489   4.268  3.1422 -0.3702  1.3369
  189MOL   H22049476   1.174   5.321   4.217  0.2811 -1.9225  2.1508
  189MOL   H22149477   0.852   5.287   4.036 -1.5763 -1.1070 -1.1762
  189MOL   H22249478   0.738   5.178   4.088 -2.8292  0.9998 -0.7731
  189MOL   C22349479   0.689   5.379   4.157  0.0095 -0.0065 -0.3352
  189MOL   C22449480   0.592   5.349   4.276 -0.3455  0.5637 -0.2719
  189MOL   C22549481   0.622   5.355   4.423  0.3874  0.0410  0.2310
  189MOL   C22649482   0.533   5.462   4.367 -0.2269 -0.1229 -0.5380
  189MOL   C22749483   0.603   5.416   4.032 -0.1143 -0.0124 -0.2453
  189MOL   H22849484   0.732   5.477   4.180  0.5910 -0.5781  1.0797
  189MOL   H22949485   0.518   5.275   4.247 -2.4235  1.3916  2.6292
  189MOL   H23049486   0.721   5.389   4.452  0.8646 -1.5314  0.4904
  189MOL   H23149487   0.567   5.278   4.477 -0.8772  0.3342 -0.6139
  189MOL   H23249488   0.426   5.455   4.388  0.4650 -1.7846  2.7959
  189MOL   H23349489   0.570   5.561   4.343 -0.4924  0.2295  0.4929
  189MOL   H23449490   0.564   5.321   3.998  1.4928 -0.4069 -1.0395
  189MOL   H23549491   0.517   5.475   4.063 -0.1065  1.3373 -2.6555
  189MOL   C23649492   0.665   5.482   3.905 -0.5180 -0.0323 -0.0050
  189MOL   C23749493   0.702   5.632   3.944  0.1864  0.1961 -0.0379
  189MOL   C23849494   0.828   5.659   4.004  0.1197 -0.1892 -0.3466
  189MOL   C23949495   0.796   5.710   3.866 -0.5648 -0.1472  0.7258
  189MOL   C24049496   0.562   5.485   3.798 -0.2246 -0.3783  0.0295
  189MOL   H24149497   0.749   5.419   3.875 -0.4326  0.1803 -0.2161
  189MOL   H24249498   0.618   5.690   3.982  0.0892  0.6089 -0.8721
  189MOL   H24349499   0.843   5.739   4.076 -1.4922 -0.7046  0.5824
  189MOL   H24449500   0.897   5.576   4.020  0.2430 -0.8688 -3.8786
  189MOL   H24549501   0.850   5.671   3.780  0.2419  1.8183  0.3176
  189MOL   H24649502   0.769   5.815   3.853  0.5775  0.2593  1.6369
  189MOL   H24749503   0.527   5.382   3.790 -3.1295  0.5708 -0.0815
  189MOL   H24849504   0.481   5.553   3.826  0.9784  1.6348 -1.2491
  189MOL   C24949505   0.614   5.533   3.656  0.0120 -0.6476  0.7237
  189MOL   C25049506   0.508   5.526   3.548 -0.7585  0.5450  0.7330
  189MOL   C25149507   0.396   5.617   3.532 -0.1327 -0.4118  0.4129
  189MOL   C25249508   0.509   5.623   3.432  0.3044 -0.8249  0.0081
  189MOL   C25349509   0.737   5.456   3.598 -0.6382 -0.0749  0.5020
  189MOL   H25449510   0.644   5.638   3.654 -2.6102  0.1110 -2.9626
  189MOL   H25549511   0.469   5.429   3.518  1.1970 -0.4522  1.3298
  189MOL   H25649512   0.298   5.579   3.504 -1.3513  2.8965  0.0151
  189MOL   H25749513   0.394   5.701   3.600  0.6519  0.3406 -0.4803
  189MOL   H25849514   0.490   5.591   3.330 -0.7039  1.2077 -0.4880
  189MOL   H25949515   0.573   5.711   3.441 -1.2980  0.2196  1.7252
  189MOL   H26049516   0.778   5.501   3.508 -1.4116 -2.5357 -1.1248
  189MOL   H26149517   0.706   5.353   3.581 -0.1222 -0.2464  0.5928
  189MOL   H26249518   0.827   5.461   3.658  1.0466 -0.2373 -1.9515
  190MOL     C149519   0.890   1.328   4.527  0.7383  0.5792 -0.4651
  190MOL     C249520   0.944   1.194   4.487 -0.4471 -0.0186  0.3976
  190MOL     C349521   0.887   1.127   4.365 -0.0985 -0.2095 -0.3475
  190MOL     C449522   0.863   1.062   4.498 -0.4542 -0.1433  0.2543
  190MOL     C549523   0.919   1.360   4.678  0.1175 -0.1194  0.1703
  190MOL     H649524   0.939   1.403   4.465 -1.0269  0.8906 -1.5431
  190MOL     H749525   1.047   1.179   4.519 -1.6183 -1.4382  3.6999
  190MOL     H849526   0.804   1.186   4.325 -0.2220 -0.0926  0.0763
  190MOL     H949527   0.966   1.088   4.302  0.0844  0.6230 -0.6375
  190MOL    H1049528   0.910   0.965   4.505 -3.6138 -1.7246  0.4929
  190MOL    H1149529   0.762   1.069   4.539 -0.3366  1.3246  0.3143
  190MOL    H1249530   1.025   1.336   4.695 -0.0283  0.6695  2.3575
  190MOL    H1349531   0.858   1.293   4.739  0.3263  1.0621  1.7071
  190MOL    H1449532   0.782   1.332   4.508  0.4593  0.5925  1.1128
  190MOL    C1549533   0.870   1.498   4.733 -1.0301  1.1578 -0.4383
  190MOL    C1649534   0.727   1.534   4.702  0.0224  0.2193  0.5286
  190MOL    C1749535   0.680   1.594   4.578  0.5376  0.0994  0.5629
  190MOL    C1849536   0.675   1.678   4.707  0.8414  0.5068  0.7016
  190MOL    C1949537   0.888   1.505   4.881 -0.3186  0.3796 -0.3935
  190MOL    H2049538   0.939   1.569   4.689 -2.6304  3.7559  1.0907
  190MOL    H2149539   0.658   1.468   4.755  0.6468 -0.6622  0.2510
  190MOL    H2249540   0.578   1.581   4.544  0.8439 -0.0678 -0.3180
  190MOL    H2349541   0.754   1.620   4.502 -0.3700 -1.3380 -0.8348
  190MOL    H2449542   0.738   1.766   4.706  0.2755  0.9185 -1.5580
  190MOL    H2549543   0.581   1.682   4.763  0.0329 -0.9626 -0.4923
  190MOL    H2649544   0.821   1.448   4.945  0.3683 -1.0250 -0.9020
  190MOL    H2749545   0.855   1.601   4.922  0.1376 -0.0597  1.0601
  190MOL    C2849546   1.034   1.483   4.937  0.1351  0.3351  0.4778
  190MOL    C2949547   1.036   1.491   5.089 -1.0493  0.1278  0.3834
  190MOL    C3049548   0.997   1.376   5.176  0.0561 -0.3367 -0.0176
  190MOL    C3149549   1.138   1.412   5.166 -0.2419 -0.4412 -0.0804
  190MOL    C3249550   1.147   1.553   4.859 -0.3618  0.0027  0.3092
  190MOL    H3349551   1.040   1.375   4.919  0.8795  0.2213  1.3774
  190MOL    H3449552   0.983   1.579   5.126 -0.4682  0.8660 -0.5104
  190MOL    H3549553   0.973   1.275   5.143  0.4973  0.4746 -3.0012
  190MOL    H3649554   0.945   1.408   5.265 -1.0447 -0.1179 -0.7327
  190MOL    H3749555   1.201   1.344   5.110  2.8520  1.3217  1.1505
  190MOL    H3849556   1.193   1.455   5.249  1.0871  0.3798 -1.3694
  190MOL    H3949557   1.169   1.512   4.760 -0.6356  0.8658 -0.1136
  190MOL    H4049558   1.241   1.520   4.902  0.3590 -1.1372 -2.0571
  190MOL    C4149559   1.145   1.702   4.851 -0.0228 -0.0268  0.1182
  190MOL    C4249560   1.234   1.745   4.740 -0.4379  0.2783  0.2756
  190MOL    C4349561   1.208   1.867   4.650  0.2631  0.4979 -0.5655
  190MOL    C4449562   1.201   1.726   4.592 -0.0919 -0.0907  0.6400
  190MOL    C4549563   1.190   1.766   4.985  0.0842  0.7279  0.2100
  190MOL    H4649564   1.044   1.732   4.823  0.3040 -0.4811 -1.5768
  190MOL    H4749565   1.338   1.719   4.758 -0.1835 -0.3475 -1.9048
  190MOL    H4849566   1.110   1.913   4.666  0.0068 -0.4703  0.7536
  190MOL    H4949567   1.290   1.933   4.623 -0.9379  2.8264  1.2781
  190MOL    H5049568   1.283   1.691   4.529 -0.9002 -2.0880  0.6779
  190MOL    H5149569   1.101   1.695   4.563 -0.6490  2.1227  0.0957
  190MOL    H5249570   1.299   1.762   4.986  0.0957  0.8215 -0.4085
  190MOL    H5349571   1.157   1.707   5.070 -3.4719 -0.6047 -1.9944
  190MOL    C5449572   1.132   1.908   5.015 -0.1536  0.7853 -0.2765
  190MOL    C5549573   0.978   1.924   4.995 -0.5684  0.4966  0.4119
  190MOL    C5649574   0.932   2.002   4.874  0.6919  0.0864  0.3970
  190MOL    C5749575   0.918   2.063   5.007 -0.1469 -0.0723  1.1089
  190MOL    C5849576   1.181   1.955   5.158  0.5049 -0.6825 -0.4437
  190MOL    H5949577   1.179   1.976   4.945  1.0568  0.2074 -0.0434
  190MOL    H6049578   0.917   1.837   5.020 -0.2259  0.7206  2.1159
  190MOL    H6149579   1.013   2.041   4.812 -1.7409 -0.7103 -3.4906
  190MOL    H6249580   0.835   1.992   4.827  0.4703  2.1118  0.3950
  190MOL    H6349581   0.817   2.078   5.045 -0.7137  0.4178 -0.5681
  190MOL    H6449582   0.974   2.151   5.036 -0.8899  0.9533 -0.5229
  190MOL    H6549583   1.115   2.030   5.201  1.5075 -0.4470  0.7380
  190MOL    H6649584   1.158   1.869   5.222 -1.8653 -0.4475 -0.9299
  190MOL    C6749585   1.333   1.984   5.165 -0.7934 -0.0224  0.1012
  190MOL    C6849586   1.378   2.073   5.051  0.8883 -0.6378 -0.3441
  190MOL    C6949587   1.521   2.087   5.013  0.0674 -0.3858 -0.5598
  190MOL    C7049588   1.431   2.013   4.923 -0.4678 -0.6213 -0.2295
  190MOL    C7149589   1.371   2.039   5.313  0.2954  0.0575  0.4202
  190MOL    H7249590   1.386   1.889   5.156 -1.4186 -0.4968  1.2216
  190MOL    H7349591   1.315   2.161   5.039  2.5471  0.4140 -1.6303
  190MOL    H7449592   1.561   2.184   4.983 -1.6300  0.5338  0.1199
  190MOL    H7549593   1.580   2.028   5.083  0.2535  0.4801  0.0254
  190MOL    H7649594   1.458   1.908   4.921 -0.7449 -0.6990 -0.0397
  190MOL    H7749595   1.405   2.065   4.831 -0.4185  1.8535  1.1113
  190MOL    H7849596   1.314   2.131   5.327  0.7576  0.3059  0.6583
  190MOL    H7949597   1.478   2.051   5.329  0.4479  0.5008 -0.8811
  190MOL    C8049598   1.313   1.964   5.441  0.6649 -0.5701 -0.4516
  190MOL    C8149599   1.362   2.019   5.575 -0.1443 -0.6654 -0.0340
  190MOL    C8249600   1.269   2.056   5.692 -0.4800 -0.1279 -0.4558
  190MOL    C8349601   1.325   2.164   5.600  0.4852 -0.7254 -0.0637
  190MOL    C8449602   1.337   1.809   5.428  1.1524  0.6723  0.4739
  190MOL    H8549603   1.206   1.981   5.445  0.5820 -0.9373 -1.0227
  190MOL    H8649604   1.468   2.004   5.593  0.2056  1.7387 -0.0369
  190MOL    H8749605   1.311   2.056   5.793  2.0410 -2.3489 -1.4680
  190MOL    H8849606   1.164   2.030   5.678 -0.0916 -1.9058 -0.1439
  190MOL    H8949607   1.254   2.209   5.530  1.1192 -1.0806 -0.9411
  190MOL    H9049608   1.395   2.235   5.644  0.3934 -0.2126 -0.7308
  190MOL    H9149609   1.342   1.771   5.326 -1.1340 -1.3887  1.0969
  190MOL    H9249610   1.435   1.791   5.471  0.7559 -1.2516  0.6084
  190MOL    C9349611   1.231   1.729   5.507 -0.2317  0.0006  0.0845
  190MOL    C9449612   1.104   1.704   5.431  0.5760  0.4053  0.0072
  190MOL    C9549613   0.977   1.665   5.508  0.5608 -0.3662 -0.3287
  190MOL    C9649614   0.985   1.800   5.440 -0.4726 -0.0669  0.2608
  190MOL    C9749615   1.289   1.597   5.544 -0.5457 -0.5470  0.8548
  190MOL    H9849616   1.218   1.785   5.600  1.9067 -0.7566  0.8790
  190MOL    H9949617   1.110   1.635   5.347 -0.6024 -0.9028  0.9624
  190MOL   H10049618   0.911   1.592   5.462  0.7336 -1.9816  1.9250
  190MOL   H10149619   0.974   1.674   5.616 -1.6878 -2.1932 -0.1957
  190MOL   H10249620   0.940   1.815   5.342 -0.1377  0.3259  0.1632
  190MOL   H10349621   0.986   1.887   5.506 -0.6621  0.1525 -0.0215
  190MOL   H10449622   1.330   1.549   5.455 -0.2430  2.6367 -0.7789
  190MOL   H10549623   1.208   1.527   5.565 -1.7210  0.3375 -0.5835
  190MOL   C10649624   1.392   1.594   5.663  0.4536  0.0598  0.0664
  190MOL   C10749625   1.328   1.647   5.790  0.1947  0.5303  0.7855
  190MOL   C10849626   1.374   1.626   5.925  0.1809  0.3726 -0.2996
  190MOL   C10949627   1.392   1.761   5.865 -0.5851  0.0362  0.3277
  190MOL   C11049628   1.455   1.454   5.675  0.2375 -0.3497  0.0076
  190MOL   H11149629   1.472   1.664   5.639  1.1745 -0.8375 -0.1548
  190MOL   H11249630   1.220   1.649   5.784  0.3057 -0.6031 -2.6471
  190MOL   H11349631   1.304   1.616   6.008  0.8169 -0.2344  0.1746
  190MOL   H11449632   1.475   1.592   5.949 -0.5619 -1.1007  0.8207
  190MOL   H11549633   1.492   1.795   5.841 -0.6588 -0.8318 -1.3077
  190MOL   H11649634   1.329   1.833   5.916  0.3036  1.4334 -0.5038
  190MOL   H11749635   1.397   1.395   5.746  1.5310 -1.6622  0.0070
  190MOL   H11849636   1.450   1.408   5.576  1.4621  0.1534 -0.3032
  190MOL   C11949637   1.597   1.455   5.720 -0.6825  0.1851 -1.1166
  190MOL   C12049638   1.646   1.315   5.780 -0.8147  0.1925  0.0856
  190MOL   C12149639   1.614   1.279   5.926 -0.6305 -1.0241 -0.0503
  190MOL   C12249640   1.759   1.296   5.882  0.8448  0.0634 -0.3085
  190MOL   C12349641   1.697   1.498   5.605  0.3926  0.4022  0.0857
  190MOL   H12449642   1.603   1.527   5.801  0.0483 -1.9715  0.8085
  190MOL   H12549643   1.633   1.235   5.707 -2.1923  1.4352 -1.0432
  190MOL   H12649644   1.571   1.180   5.946 -2.4150 -0.5575 -1.5092
  190MOL   H12749645   1.568   1.350   5.994  0.3286 -1.9230  1.5953
  190MOL   H12849646   1.816   1.381   5.918 -1.2058  1.1388  0.5080
  190MOL   H12949647   1.808   1.199   5.885  1.3325  0.3403  1.4375
  190MOL   H13049648   1.709   1.416   5.534  0.9639 -0.5300  1.2413
  190MOL   H13149649   1.649   1.576   5.546 -0.5915  1.1796  1.9188
  190MOL   C13249650   1.841   1.539   5.637  0.4688 -0.0235  0.2049
  190MOL   C13349651   1.839   1.684   5.700 -0.0535  0.1211  0.6171
  190MOL   C13449652   1.950   1.729   5.791 -0.1914  0.3645  0.2016
  190MOL   C13549653   1.801   1.717   5.846  0.4896  0.0644 -0.6760
  190MOL   C13649654   1.931   1.534   5.505 -0.1308 -0.4965  0.2479
  190MOL   H13749655   1.878   1.466   5.710  2.9983 -2.0791 -2.9817
  190MOL   H13849656   1.806   1.755   5.625 -0.6667 -0.5743  0.2321
  190MOL   H13949657   2.015   1.660   5.845 -0.5200 -1.2676 -1.4187
  190MOL   H14049658   1.988   1.830   5.779 -0.0149  0.4660  1.5370
  190MOL   H14149659   1.778   1.625   5.899  1.3117  0.7714  0.9418
  190MOL   H14249660   1.738   1.805   5.860 -0.3776 -0.5887 -0.4668
  190MOL   H14349661   1.917   1.443   5.446 -1.3208 -1.9723  2.7452
  190MOL   H14449662   1.884   1.605   5.437 -1.9010 -0.4674  1.4720
  190MOL   C14549663   2.085   1.569   5.524  0.0146 -0.4278 -0.4119
  190MOL   C14649664   2.162   1.453   5.585  0.4952  0.0502  0.4602
  190MOL   C14749665   2.286   1.477   5.673 -0.0019 -0.1294 -0.2877
  190MOL   C14849666   2.166   1.419   5.740  0.5537 -0.6152  0.3459
  190MOL   C14949667   2.136   1.616   5.384 -0.5279  0.0302 -0.0064
  190MOL   H15049668   2.084   1.648   5.599 -3.7484 -2.2896  1.6598
  190MOL   H15149669   2.166   1.378   5.507 -0.7657  1.8242 -1.3633
  190MOL   H15249670   2.370   1.410   5.660 -1.7626 -2.1625 -1.5823
  190MOL   H15349671   2.316   1.581   5.689 -0.0864 -0.3124  1.0731
  190MOL   H15449672   2.089   1.473   5.795  2.1471  1.2392  0.7928
  190MOL   H15549673   2.170   1.318   5.780  1.9597  0.0588  1.9930
  190MOL   H15649674   2.141   1.529   5.318  0.1676  0.9767 -1.2112
  190MOL   H15749675   2.065   1.681   5.334  1.4635  1.8945 -0.4904
  190MOL   C15849676   2.278   1.671   5.387  0.4472  0.4844  0.1941
  190MOL   C15949677   2.285   1.822   5.417  0.6280  0.1873 -0.1748
  190MOL   C16049678   2.295   1.885   5.558 -0.2214  0.2913  0.5604
  190MOL   C16149679   2.414   1.880   5.467 -0.4826 -0.1590 -0.2139
  190MOL   C16249680   2.348   1.642   5.248 -0.2757 -0.8853 -0.2060
  190MOL   H16349681   2.345   1.617   5.455  1.0895 -0.9171 -1.5388
  190MOL   H16449682   2.226   1.879   5.346 -0.8186 -1.1105 -0.0284
  190MOL   H16549683   2.281   1.816   5.640 -1.3881 -1.0366 -0.7273
  190MOL   H16649684   2.255   1.985   5.577  1.2164  0.8188  0.8878
  190MOL   H16749685   2.449   1.975   5.430  1.2250 -0.0433  1.6333
  190MOL   H16849686   2.496   1.831   5.519  1.0994  1.2020 -1.3979
  190MOL   H16949687   2.431   1.712   5.237 -1.4197  0.3144 -1.2816
  190MOL   H17049688   2.290   1.674   5.161 -1.6160 -1.1256  0.5893
  190MOL   C17149689   2.411   1.509   5.216  0.3978 -0.0673 -0.1324
  190MOL   C17249690   2.486   1.434   5.320  0.0971 -0.0221  0.3482
  190MOL   C17349691   2.618   1.364   5.288  0.5323 -0.1236 -0.7643
  190MOL   C17449692   2.617   1.483   5.374 -0.0780 -0.1872  0.3177
  190MOL   C17549693   2.315   1.415   5.136  0.1787  0.3276 -0.4055
  190MOL   H17649694   2.488   1.540   5.146  1.9703 -0.4536  1.3979
  190MOL   H17749695   2.432   1.394   5.406 -1.2165  0.1315 -0.4006
  190MOL   H17849696   2.617   1.267   5.336 -1.1188 -0.3553 -1.2353
  190MOL   H17949697   2.668   1.359   5.191  0.3716 -2.4591 -0.7502
  190MOL   H18049698   2.666   1.569   5.328  0.2552 -0.5966 -0.0969
  190MOL   H18149699   2.637   1.464   5.480 -3.1603 -0.9195  0.7966
  190MOL   H18249700   2.244   1.481   5.086  0.9703  1.3168 -0.2274
  190MOL   H18349701   2.243   1.356   5.194 -0.7835  1.3011 -0.6025
  190MOL   C18449702   2.381   1.321   5.027 -0.0263  0.0057 -0.5670
  190MOL   C18549703   2.325   1.345   4.883  0.4119 -0.7446 -0.0943
  190MOL   C18649704   2.420   1.390   4.776 -0.6016 -0.4370  0.2590
  190MOL   C18749705   2.332   1.495   4.843  0.3634  0.4566 -0.2131
  190MOL   C18849706   2.383   1.167   5.071 -0.3436 -0.2306 -0.3379
  190MOL   H18949707   2.487   1.347   5.018  0.0113  0.0763  0.0712
  190MOL   H19049708   2.223   1.316   4.858  0.1592 -1.3360  1.5679
  190MOL   H19149709   2.402   1.376   4.670  2.2797 -1.4522 -0.1423
  190MOL   H19249710   2.527   1.403   4.792 -0.5766 -0.2063 -0.0758
  190MOL   H19349711   2.257   1.533   4.775 -0.6628  1.4889  1.4609
  190MOL   H19449712   2.368   1.564   4.919 -1.6409 -0.4184  1.6218
  190MOL   H19549713   2.281   1.129   5.059  0.0679 -1.1397 -0.9711
  190MOL   H19649714   2.384   1.161   5.180  1.2209  1.0858 -0.2679
  190MOL   C19749715   2.485   1.067   5.012 -0.6503 -0.1938  0.0311
  190MOL   C19849716   2.635   1.096   5.044  0.5076 -0.2518 -0.3442
  190MOL   C19949717   2.732   0.983   5.057 -0.1394  0.2226 -0.4510
  190MOL   C20049718   2.694   1.060   5.181 -0.3579  0.2838  0.1521
  190MOL   C20149719   2.461   1.025   4.868  0.2325  0.0894  0.1104
  190MOL   H20249720   2.471   0.979   5.075 -0.5533 -1.1793 -1.2969
  190MOL   H20349721   2.672   1.183   4.990  1.3043  0.8589  1.9272
  190MOL   H20449722   2.698   0.880   5.056 -0.7934  0.4405 -1.4354
  190MOL   H20549723   2.832   0.999   5.017 -0.4128 -0.2995 -1.3666
  190MOL   H20649724   2.627   1.014   5.253  0.2059 -0.2833  0.3135
  190MOL   H20749725   2.760   1.136   5.223  1.1004 -0.8077 -0.1163
  190MOL   H20849726   2.490   1.112   4.810  0.1988 -2.0295 -3.2373
  190MOL   H20949727   2.533   0.949   4.837 -1.5747 -1.2537 -0.9126
  190MOL   C21049728   2.320   0.977   4.823  0.7852  0.1468  0.3121
  190MOL   C21149729   2.307   0.978   4.664  0.0037 -0.0297 -0.6050
  190MOL   C21249730   2.171   1.003   4.603 -0.3742 -0.1407 -0.3781
  190MOL   C21349731   2.287   1.104   4.588  0.2688 -0.0647 -0.2632
  190MOL   C21449732   2.273   0.829   4.866  0.0225  0.1266  0.0836
  190MOL   H21549733   2.239   1.041   4.857 -0.1567 -0.9446  0.1467
  190MOL   H21649734   2.375   0.909   4.615  1.0632  1.3878 -1.1402
  190MOL   H21749735   2.145   0.927   4.529 -0.5166  0.0079 -0.4834
  190MOL   H21849736   2.095   1.038   4.673  2.3818  0.9151  2.1650
  190MOL   H21949737   2.311   1.118   4.483 -0.2307 -0.4071 -0.4214
  190MOL   H22049738   2.265   1.196   4.643 -3.0197 -1.0662  0.2069
  190MOL   H22149739   2.289   0.836   4.974  0.6380 -0.7470  0.0561
  190MOL   H22249740   2.167   0.819   4.845 -0.0182  1.7823 -0.5296
  190MOL   C22349741   2.340   0.708   4.794  0.8283 -0.0093  0.1847
  190MOL   C22449742   2.233   0.606   4.773  0.0020  0.0305 -0.2178
  190MOL   C22549743   2.109   0.622   4.686  0.1273  0.0692  0.3029
  190MOL   C22649744   2.215   0.540   4.631  0.0057 -0.3248 -0.5996
  190MOL   C22749745   2.452   0.649   4.878  0.4839 -0.2448 -0.4371
  190MOL   H22849746   2.378   0.728   4.694 -1.4622  2.0433 -0.3200
  190MOL   H22949747   2.206   0.551   4.863  1.0228  0.5060  0.3939
  190MOL   H23049748   2.091   0.724   4.652  0.1818 -0.5221 -1.5884
  190MOL   H23149749   2.013   0.574   4.706 -0.7810  1.6192 -0.2073
  190MOL   H23249750   2.204   0.432   4.635  0.1758 -0.2930  1.5720
  190MOL   H23349751   2.287   0.579   4.559 -2.7148  1.9817 -2.1598
  190MOL   H23449752   2.536   0.715   4.902  1.2961 -1.0604 -0.9867
  190MOL   H23549753   2.423   0.636   4.982  0.1990 -1.1239 -0.6298
  190MOL   C23649754   2.516   0.527   4.819  0.1030 -0.0781  1.0893
  190MOL   C23749755   2.604   0.453   4.927  0.4660  0.1627  0.6638
  190MOL   C23849756   2.530   0.395   5.052 -0.0842 -0.7538  0.3121
  190MOL   C23949757   2.609   0.309   4.955 -0.0514 -0.2547  0.4685
  190MOL   C24049758   2.589   0.540   4.686  0.1885  0.4424 -0.1515
  190MOL   H24149759   2.438   0.453   4.803  1.3438 -1.2815  0.5017
  190MOL   H24249760   2.688   0.516   4.955  0.3284  1.8713 -2.5563
  190MOL   H24349761   2.565   0.426   5.150 -1.5568 -0.2649  0.7084
  190MOL   H24449762   2.425   0.367   5.044 -0.3595  0.3678 -0.1515
  190MOL   H24549763   2.551   0.247   4.887  0.0553 -0.3577  0.4724
  190MOL   H24649764   2.707   0.270   4.979 -0.2041 -0.3689  0.9236
  190MOL   H24749765   2.524   0.586   4.611  0.0333  1.1260  0.3971
  190MOL   H24849766   2.664   0.619   4.693 -0.7545  1.3843 -0.5412
  190MOL   C24949767   2.654   0.413   4.627 -0.4675  0.2578  0.2341
  190MOL   C25049768   2.732   0.463   4.507  0.1127 -0.1776  0.1456
  190MOL   C25149769   2.882   0.492   4.520  0.1591  0.4407 -0.2242
  190MOL   C25249770   2.827   0.375   4.440 -0.0951 -0.4796  0.6856
  190MOL   C25349771   2.547   0.311   4.589 -0.3618  0.3302  0.4768
  190MOL   H25449772   2.729   0.370   4.694  0.2721 -1.0315 -1.3729
  190MOL   H25549773   2.672   0.516   4.433  1.3890 -1.9978 -2.2624
  190MOL   H25649774   2.920   0.578   4.464  1.5256 -0.3662 -0.5707
  190MOL   H25749775   2.922   0.479   4.620 -2.0369 -0.2650  0.6028
  190MOL   H25849776   2.858   0.384   4.336 -2.1115  0.1994  0.1193
  190MOL   H25949777   2.840   0.282   4.496  4.1928  0.6392  1.7726
  190MOL   H26049778   2.579   0.226   4.529  0.7530  0.9659  0.1532
  190MOL   H26149779   2.454   0.349   4.547  0.9471  2.2226 -0.7762
  190MOL   H26249780   2.514   0.269   4.685 -1.8203  0.3403 -0.0247
   7.83925   7.83925   7.83925
