;
; Gromacs include topology (itp) file.
; For Molecular Group XYZ
; Force field scheme: opls2005
; Produced from DL_FIELD v4.11
;


[ moleculetype ]
; name    nrexcl
XYZ    3

[ atoms ]
; nr   type   resnr   residu    atom    cgnr    charge    mass
    1       CO4    1  MOL      C1     1   0.5650000   12.0115
    2         O    1  MOL      O2     2  -0.4500000   15.9994
    3        CA    1  MOL      C3     3  -0.1150000   12.0115
    4        CA    1  MOL      C4     4  -0.1150000   12.0115
    5        CA    1  MOL      C5     5  -0.1150000   12.0115
    6        CA    1  MOL      C6     6  -0.1150000   12.0115
    7         C    1  MOL      C7     7   0.6150000   12.0115
    8         O    1  MOL      O8     8  -0.5000000   15.9994
    9         N    1  MOL      N9     9  -0.5000000   14.0067
   10        CT    1  MOL     C10    10   0.0800000   12.0115
   11        CT    1  MOL     C11    11  -0.1200000   12.0115
   12        CT    1  MOL     C12    12  -0.1200000   12.0115
   13        CT    1  MOL     C13    13  -0.1200000   12.0115
   14        CT    1  MOL     C14    14  -0.1200000   12.0115
   15        CT    1  MOL     C15    15   0.0800000   12.0115
   16         N    1  MOL     N16    16  -0.5000000   14.0067
   17        CA    1  MOL     C17    17  -0.1150000   12.0115
   18        CA    1  MOL     C18    18  -0.1150000   12.0115
   19        HA    1  MOL     H19    19   0.1150000    1.0080
   20        HA    1  MOL     H20    20   0.1150000    1.0080
   21         H    1  MOL     H21    21   0.3000000    1.0080
   22        HC    1  MOL     H22    22   0.0600000    1.0080
   23        HC    1  MOL     H23    23   0.0600000    1.0080
   24        HC    1  MOL     H24    24   0.0600000    1.0080
   25        HC    1  MOL     H25    25   0.0600000    1.0080
   26        HC    1  MOL     H26    26   0.0600000    1.0080
   27        HC    1  MOL     H27    27   0.0600000    1.0080
   28        HC    1  MOL     H28    28   0.0600000    1.0080
   29        HC    1  MOL     H29    29   0.0600000    1.0080
   30        HC    1  MOL     H30    30   0.0600000    1.0080
   31        HC    1  MOL     H31    31   0.0600000    1.0080
   32        HC    1  MOL     H32    32   0.0600000    1.0080
   33        HC    1  MOL     H33    33   0.0600000    1.0080
   34         H    1  MOL     H34    34   0.3000000    1.0080
   35        HA    1  MOL     H35    35   0.1150000    1.0080
   36        HA    1  MOL     H36    36   0.1150000    1.0080
   37       HAE    1  MOL     H37    37   0.0000000    1.0080
   38         C    1  MOL     C38    38   0.6150000   12.0115
   39         O    1  MOL     O39    39  -0.5000000   15.9994
   40        CA    1  MOL     C40    40  -0.1150000   12.0115
   41        CA    1  MOL     C41    41  -0.1150000   12.0115
   42        CA    1  MOL     C42    42  -0.1150000   12.0115
   43        CA    1  MOL     C43    43  -0.1150000   12.0115
   44         C    1  MOL     C44    44   0.6150000   12.0115
   45         O    1  MOL     O45    45  -0.5000000   15.9994
   46         N    1  MOL     N46    46  -0.5000000   14.0067
   47        CT    1  MOL     C47    47   0.0800000   12.0115
   48        CT    1  MOL     C48    48  -0.1200000   12.0115
   49        CT    1  MOL     C49    49  -0.1200000   12.0115
   50        CT    1  MOL     C50    50  -0.1200000   12.0115
   51        CT    1  MOL     C51    51  -0.1200000   12.0115
   52        CT    1  MOL     C52    52   0.0800000   12.0115
   53         N    1  MOL     N53    53  -0.5000000   14.0067
   54        CA    1  MOL     C54    54  -0.1150000   12.0115
   55        CA    1  MOL     C55    55  -0.1150000   12.0115
   56        HA    1  MOL     H56    56   0.1150000    1.0080
   57        HA    1  MOL     H57    57   0.1150000    1.0080
   58         H    1  MOL     H58    58   0.3000000    1.0080
   59        HC    1  MOL     H59    59   0.0600000    1.0080
   60        HC    1  MOL     H60    60   0.0600000    1.0080
   61        HC    1  MOL     H61    61   0.0600000    1.0080
   62        HC    1  MOL     H62    62   0.0600000    1.0080
   63        HC    1  MOL     H63    63   0.0600000    1.0080
   64        HC    1  MOL     H64    64   0.0600000    1.0080
   65        HC    1  MOL     H65    65   0.0600000    1.0080
   66        HC    1  MOL     H66    66   0.0600000    1.0080
   67        HC    1  MOL     H67    67   0.0600000    1.0080
   68        HC    1  MOL     H68    68   0.0600000    1.0080
   69        HC    1  MOL     H69    69   0.0600000    1.0080
   70        HC    1  MOL     H70    70   0.0600000    1.0080
   71         H    1  MOL     H71    71   0.3000000    1.0080
   72        HA    1  MOL     H72    72   0.1150000    1.0080
   73        HA    1  MOL     H73    73   0.1150000    1.0080
   74         C    1  MOL     C74    74   0.6150000   12.0115
   75         O    1  MOL     O75    75  -0.5000000   15.9994
   76        CA    1  MOL     C76    76  -0.1150000   12.0115
   77        CA    1  MOL     C77    77  -0.1150000   12.0115
   78        CA    1  MOL     C78    78  -0.1150000   12.0115
   79        CA    1  MOL     C79    79  -0.1150000   12.0115
   80         C    1  MOL     C80    80   0.6150000   12.0115
   81         O    1  MOL     O81    81  -0.5000000   15.9994
   82         N    1  MOL     N82    82  -0.5000000   14.0067
   83        CT    1  MOL     C83    83   0.0800000   12.0115
   84        CT    1  MOL     C84    84  -0.1200000   12.0115
   85        CT    1  MOL     C85    85  -0.1200000   12.0115
   86        CT    1  MOL     C86    86  -0.1200000   12.0115
   87        CT    1  MOL     C87    87  -0.1200000   12.0115
   88        CT    1  MOL     C88    88   0.0800000   12.0115
   89         N    1  MOL     N89    89  -0.5000000   14.0067
   90        CA    1  MOL     C90    90  -0.1150000   12.0115
   91        CA    1  MOL     C91    91  -0.1150000   12.0115
   92        HA    1  MOL     H92    92   0.1150000    1.0080
   93        HA    1  MOL     H93    93   0.1150000    1.0080
   94         H    1  MOL     H94    94   0.3000000    1.0080
   95        HC    1  MOL     H95    95   0.0600000    1.0080
   96        HC    1  MOL     H96    96   0.0600000    1.0080
   97        HC    1  MOL     H97    97   0.0600000    1.0080
   98        HC    1  MOL     H98    98   0.0600000    1.0080
   99        HC    1  MOL     H99    99   0.0600000    1.0080
  100        HC    1  MOL    H100   100   0.0600000    1.0080
  101        HC    1  MOL    H101   101   0.0600000    1.0080
  102        HC    1  MOL    H102   102   0.0600000    1.0080
  103        HC    1  MOL    H103   103   0.0600000    1.0080
  104        HC    1  MOL    H104   104   0.0600000    1.0080
  105        HC    1  MOL    H105   105   0.0600000    1.0080
  106        HC    1  MOL    H106   106   0.0600000    1.0080
  107         H    1  MOL    H107   107   0.3000000    1.0080
  108        HA    1  MOL    H108   108   0.1150000    1.0080
  109        HA    1  MOL    H109   109   0.1150000    1.0080
  110         C    1  MOL    C110   110   0.6150000   12.0115
  111         O    1  MOL    O111   111  -0.5000000   15.9994
  112        CA    1  MOL    C112   112  -0.1150000   12.0115
  113        CA    1  MOL    C113   113  -0.1150000   12.0115
  114        CA    1  MOL    C114   114  -0.1150000   12.0115
  115        CA    1  MOL    C115   115  -0.1150000   12.0115
  116         C    1  MOL    C116   116   0.6150000   12.0115
  117         O    1  MOL    O117   117  -0.5000000   15.9994
  118         N    1  MOL    N118   118  -0.5000000   14.0067
  119        CT    1  MOL    C119   119   0.0800000   12.0115
  120        CT    1  MOL    C120   120  -0.1200000   12.0115
  121        CT    1  MOL    C121   121  -0.1200000   12.0115
  122        CT    1  MOL    C122   122  -0.1200000   12.0115
  123        CT    1  MOL    C123   123  -0.1200000   12.0115
  124        CT    1  MOL    C124   124   0.0800000   12.0115
  125         N    1  MOL    N125   125  -0.5000000   14.0067
  126        CA    1  MOL    C126   126  -0.1150000   12.0115
  127        CA    1  MOL    C127   127  -0.1150000   12.0115
  128        HA    1  MOL    H128   128   0.1150000    1.0080
  129        HA    1  MOL    H129   129   0.1150000    1.0080
  130         H    1  MOL    H130   130   0.3000000    1.0080
  131        HC    1  MOL    H131   131   0.0600000    1.0080
  132        HC    1  MOL    H132   132   0.0600000    1.0080
  133        HC    1  MOL    H133   133   0.0600000    1.0080
  134        HC    1  MOL    H134   134   0.0600000    1.0080
  135        HC    1  MOL    H135   135   0.0600000    1.0080
  136        HC    1  MOL    H136   136   0.0600000    1.0080
  137        HC    1  MOL    H137   137   0.0600000    1.0080
  138        HC    1  MOL    H138   138   0.0600000    1.0080
  139        HC    1  MOL    H139   139   0.0600000    1.0080
  140        HC    1  MOL    H140   140   0.0600000    1.0080
  141        HC    1  MOL    H141   141   0.0600000    1.0080
  142        HC    1  MOL    H142   142   0.0600000    1.0080
  143         H    1  MOL    H143   143   0.3000000    1.0080
  144        HA    1  MOL    H144   144   0.1150000    1.0080
  145        HA    1  MOL    H145   145   0.1150000    1.0080
  146         C    1  MOL    C146   146   0.6150000   12.0115
  147         O    1  MOL    O147   147  -0.5000000   15.9994
  148        CA    1  MOL    C148   148  -0.1150000   12.0115
  149        CA    1  MOL    C149   149  -0.1150000   12.0115
  150        CA    1  MOL    C150   150  -0.1150000   12.0115
  151        CA    1  MOL    C151   151  -0.1150000   12.0115
  152         C    1  MOL    C152   152   0.6150000   12.0115
  153         O    1  MOL    O153   153  -0.5000000   15.9994
  154         N    1  MOL    N154   154  -0.5000000   14.0067
  155        CT    1  MOL    C155   155   0.0800000   12.0115
  156        CT    1  MOL    C156   156  -0.1200000   12.0115
  157        CT    1  MOL    C157   157  -0.1200000   12.0115
  158        CT    1  MOL    C158   158  -0.1200000   12.0115
  159        CT    1  MOL    C159   159  -0.1200000   12.0115
  160        CT    1  MOL    C160   160   0.0800000   12.0115
  161         N    1  MOL    N161   161  -0.5000000   14.0067
  162        CA    1  MOL    C162   162  -0.1150000   12.0115
  163        CA    1  MOL    C163   163  -0.1150000   12.0115
  164        HA    1  MOL    H164   164   0.1150000    1.0080
  165        HA    1  MOL    H165   165   0.1150000    1.0080
  166         H    1  MOL    H166   166   0.3000000    1.0080
  167        HC    1  MOL    H167   167   0.0600000    1.0080
  168        HC    1  MOL    H168   168   0.0600000    1.0080
  169        HC    1  MOL    H169   169   0.0600000    1.0080
  170        HC    1  MOL    H170   170   0.0600000    1.0080
  171        HC    1  MOL    H171   171   0.0600000    1.0080
  172        HC    1  MOL    H172   172   0.0600000    1.0080
  173        HC    1  MOL    H173   173   0.0600000    1.0080
  174        HC    1  MOL    H174   174   0.0600000    1.0080
  175        HC    1  MOL    H175   175   0.0600000    1.0080
  176        HC    1  MOL    H176   176   0.0600000    1.0080
  177        HC    1  MOL    H177   177   0.0600000    1.0080
  178        HC    1  MOL    H178   178   0.0600000    1.0080
  179         H    1  MOL    H179   179   0.3000000    1.0080
  180        HA    1  MOL    H180   180   0.1150000    1.0080
  181        HA    1  MOL    H181   181   0.1150000    1.0080
  182         C    1  MOL    C182   182   0.6150000   12.0115
  183         O    1  MOL    O183   183  -0.5000000   15.9994
  184        CA    1  MOL    C184   184  -0.1150000   12.0115
  185        CA    1  MOL    C185   185  -0.1150000   12.0115
  186        CA    1  MOL    C186   186  -0.1150000   12.0115
  187        CA    1  MOL    C187   187  -0.1150000   12.0115
  188         C    1  MOL    C188   188   0.6150000   12.0115
  189         O    1  MOL    O189   189  -0.5000000   15.9994
  190         N    1  MOL    N190   190  -0.5000000   14.0067
  191        CT    1  MOL    C191   191   0.0800000   12.0115
  192        CT    1  MOL    C192   192  -0.1200000   12.0115
  193        CT    1  MOL    C193   193  -0.1200000   12.0115
  194        CT    1  MOL    C194   194  -0.1200000   12.0115
  195        CT    1  MOL    C195   195  -0.1200000   12.0115
  196        CT    1  MOL    C196   196   0.0800000   12.0115
  197         N    1  MOL    N197   197  -0.5000000   14.0067
  198        CA    1  MOL    C198   198  -0.1150000   12.0115
  199        CA    1  MOL    C199   199  -0.1150000   12.0115
  200        HA    1  MOL    H200   200   0.1150000    1.0080
  201        HA    1  MOL    H201   201   0.1150000    1.0080
  202         H    1  MOL    H202   202   0.3000000    1.0080
  203        HC    1  MOL    H203   203   0.0600000    1.0080
  204        HC    1  MOL    H204   204   0.0600000    1.0080
  205        HC    1  MOL    H205   205   0.0600000    1.0080
  206        HC    1  MOL    H206   206   0.0600000    1.0080
  207        HC    1  MOL    H207   207   0.0600000    1.0080
  208        HC    1  MOL    H208   208   0.0600000    1.0080
  209        HC    1  MOL    H209   209   0.0600000    1.0080
  210        HC    1  MOL    H210   210   0.0600000    1.0080
  211        HC    1  MOL    H211   211   0.0600000    1.0080
  212        HC    1  MOL    H212   212   0.0600000    1.0080
  213        HC    1  MOL    H213   213   0.0600000    1.0080
  214        HC    1  MOL    H214   214   0.0600000    1.0080
  215         H    1  MOL    H215   215   0.3000000    1.0080
  216        HA    1  MOL    H216   216   0.1150000    1.0080
  217        HA    1  MOL    H217   217   0.1150000    1.0080
  218         C    1  MOL    C218   218   0.6150000   12.0115
  219         O    1  MOL    O219   219  -0.5000000   15.9994
  220        CA    1  MOL    C220   220  -0.1150000   12.0115
  221        CA    1  MOL    C221   221  -0.1150000   12.0115
  222        CA    1  MOL    C222   222  -0.1150000   12.0115
  223        CA    1  MOL    C223   223  -0.1150000   12.0115
  224         C    1  MOL    C224   224   0.6150000   12.0115
  225         O    1  MOL    O225   225  -0.5000000   15.9994
  226         N    1  MOL    N226   226  -0.5000000   14.0067
  227        CT    1  MOL    C227   227   0.0800000   12.0115
  228        CT    1  MOL    C228   228  -0.1200000   12.0115
  229        CT    1  MOL    C229   229  -0.1200000   12.0115
  230        CT    1  MOL    C230   230  -0.1200000   12.0115
  231        CT    1  MOL    C231   231  -0.1200000   12.0115
  232        CT    1  MOL    C232   232   0.0800000   12.0115
  233         N    1  MOL    N233   233  -0.5000000   14.0067
  234        CA    1  MOL    C234   234  -0.1150000   12.0115
  235        CA    1  MOL    C235   235  -0.1150000   12.0115
  236        HA    1  MOL    H236   236   0.1150000    1.0080
  237        HA    1  MOL    H237   237   0.1150000    1.0080
  238         H    1  MOL    H238   238   0.3000000    1.0080
  239        HC    1  MOL    H239   239   0.0600000    1.0080
  240        HC    1  MOL    H240   240   0.0600000    1.0080
  241        HC    1  MOL    H241   241   0.0600000    1.0080
  242        HC    1  MOL    H242   242   0.0600000    1.0080
  243        HC    1  MOL    H243   243   0.0600000    1.0080
  244        HC    1  MOL    H244   244   0.0600000    1.0080
  245        HC    1  MOL    H245   245   0.0600000    1.0080
  246        HC    1  MOL    H246   246   0.0600000    1.0080
  247        HC    1  MOL    H247   247   0.0600000    1.0080
  248        HC    1  MOL    H248   248   0.0600000    1.0080
  249        HC    1  MOL    H249   249   0.0600000    1.0080
  250        HC    1  MOL    H250   250   0.0600000    1.0080
  251         H    1  MOL    H251   251   0.3000000    1.0080
  252        HA    1  MOL    H252   252   0.1150000    1.0080
  253        HA    1  MOL    H253   253   0.1150000    1.0080
  254         C    1  MOL    C254   254   0.6150000   12.0115
  255         O    1  MOL    O255   255  -0.5000000   15.9994
  256        CA    1  MOL    C256   256  -0.1150000   12.0115
  257        CA    1  MOL    C257   257  -0.1150000   12.0115
  258        CA    1  MOL    C258   258  -0.1150000   12.0115
  259        CA    1  MOL    C259   259  -0.1150000   12.0115
  260         C    1  MOL    C260   260   0.6150000   12.0115
  261         O    1  MOL    O261   261  -0.5000000   15.9994
  262         N    1  MOL    N262   262  -0.5000000   14.0067
  263        CT    1  MOL    C263   263   0.0800000   12.0115
  264        CT    1  MOL    C264   264  -0.1200000   12.0115
  265        CT    1  MOL    C265   265  -0.1200000   12.0115
  266        CT    1  MOL    C266   266  -0.1200000   12.0115
  267        CT    1  MOL    C267   267  -0.1200000   12.0115
  268        CT    1  MOL    C268   268   0.0800000   12.0115
  269         N    1  MOL    N269   269  -0.5000000   14.0067
  270        CA    1  MOL    C270   270  -0.1150000   12.0115
  271        CA    1  MOL    C271   271  -0.1150000   12.0115
  272        HA    1  MOL    H272   272   0.1150000    1.0080
  273        HA    1  MOL    H273   273   0.1150000    1.0080
  274         H    1  MOL    H274   274   0.3000000    1.0080
  275        HC    1  MOL    H275   275   0.0600000    1.0080
  276        HC    1  MOL    H276   276   0.0600000    1.0080
  277        HC    1  MOL    H277   277   0.0600000    1.0080
  278        HC    1  MOL    H278   278   0.0600000    1.0080
  279        HC    1  MOL    H279   279   0.0600000    1.0080
  280        HC    1  MOL    H280   280   0.0600000    1.0080
  281        HC    1  MOL    H281   281   0.0600000    1.0080
  282        HC    1  MOL    H282   282   0.0600000    1.0080
  283        HC    1  MOL    H283   283   0.0600000    1.0080
  284        HC    1  MOL    H284   284   0.0600000    1.0080
  285        HC    1  MOL    H285   285   0.0600000    1.0080
  286        HC    1  MOL    H286   286   0.0600000    1.0080
  287         H    1  MOL    H287   287   0.3000000    1.0080
  288        HA    1  MOL    H288   288   0.1150000    1.0080
  289        HA    1  MOL    H289   289   0.1150000    1.0080
  290         C    1  MOL    C290   290   0.6150000   12.0115
  291         O    1  MOL    O291   291  -0.5000000   15.9994
  292        CA    1  MOL    C292   292  -0.1150000   12.0115
  293        CA    1  MOL    C293   293  -0.1150000   12.0115
  294        CA    1  MOL    C294   294  -0.1150000   12.0115
  295        CA    1  MOL    C295   295  -0.1150000   12.0115
  296         C    1  MOL    C296   296   0.6150000   12.0115
  297         O    1  MOL    O297   297  -0.5000000   15.9994
  298         N    1  MOL    N298   298  -0.5000000   14.0067
  299        CT    1  MOL    C299   299   0.0800000   12.0115
  300        CT    1  MOL    C300   300  -0.1200000   12.0115
  301        CT    1  MOL    C301   301  -0.1200000   12.0115
  302        CT    1  MOL    C302   302  -0.1200000   12.0115
  303        CT    1  MOL    C303   303  -0.1200000   12.0115
  304        CT    1  MOL    C304   304   0.0800000   12.0115
  305         N    1  MOL    N305   305  -0.5000000   14.0067
  306        CA    1  MOL    C306   306  -0.1150000   12.0115
  307        CA    1  MOL    C307   307  -0.1150000   12.0115
  308        HA    1  MOL    H308   308   0.1150000    1.0080
  309        HA    1  MOL    H309   309   0.1150000    1.0080
  310         H    1  MOL    H310   310   0.3000000    1.0080
  311        HC    1  MOL    H311   311   0.0600000    1.0080
  312        HC    1  MOL    H312   312   0.0600000    1.0080
  313        HC    1  MOL    H313   313   0.0600000    1.0080
  314        HC    1  MOL    H314   314   0.0600000    1.0080
  315        HC    1  MOL    H315   315   0.0600000    1.0080
  316        HC    1  MOL    H316   316   0.0600000    1.0080
  317        HC    1  MOL    H317   317   0.0600000    1.0080
  318        HC    1  MOL    H318   318   0.0600000    1.0080
  319        HC    1  MOL    H319   319   0.0600000    1.0080
  320        HC    1  MOL    H320   320   0.0600000    1.0080
  321        HC    1  MOL    H321   321   0.0600000    1.0080
  322        HC    1  MOL    H322   322   0.0600000    1.0080
  323         H    1  MOL    H323   323   0.3000000    1.0080
  324        HA    1  MOL    H324   324   0.1150000    1.0080
  325        HA    1  MOL    H325   325   0.1150000    1.0080
  326         C    1  MOL    C326   326   0.6150000   12.0115
  327         O    1  MOL    O327   327  -0.5000000   15.9994
  328        CA    1  MOL    C328   328  -0.1150000   12.0115
  329        CA    1  MOL    C329   329  -0.1150000   12.0115
  330        CA    1  MOL    C330   330  -0.1150000   12.0115
  331        CA    1  MOL    C331   331  -0.1150000   12.0115
  332         C    1  MOL    C332   332   0.6150000   12.0115
  333         O    1  MOL    O333   333  -0.5000000   15.9994
  334         N    1  MOL    N334   334  -0.5000000   14.0067
  335        CT    1  MOL    C335   335   0.0800000   12.0115
  336        CT    1  MOL    C336   336  -0.1200000   12.0115
  337        CT    1  MOL    C337   337  -0.1200000   12.0115
  338        CT    1  MOL    C338   338  -0.1200000   12.0115
  339        CT    1  MOL    C339   339  -0.1200000   12.0115
  340        CT    1  MOL    C340   340   0.0800000   12.0115
  341         N    1  MOL    N341   341  -0.5000000   14.0067
  342        CA    1  MOL    C342   342  -0.1150000   12.0115
  343        CA    1  MOL    C343   343  -0.1150000   12.0115
  344        HA    1  MOL    H344   344   0.1150000    1.0080
  345        HA    1  MOL    H345   345   0.1150000    1.0080
  346         H    1  MOL    H346   346   0.3000000    1.0080
  347        HC    1  MOL    H347   347   0.0600000    1.0080
  348        HC    1  MOL    H348   348   0.0600000    1.0080
  349        HC    1  MOL    H349   349   0.0600000    1.0080
  350        HC    1  MOL    H350   350   0.0600000    1.0080
  351        HC    1  MOL    H351   351   0.0600000    1.0080
  352        HC    1  MOL    H352   352   0.0600000    1.0080
  353        HC    1  MOL    H353   353   0.0600000    1.0080
  354        HC    1  MOL    H354   354   0.0600000    1.0080
  355        HC    1  MOL    H355   355   0.0600000    1.0080
  356        HC    1  MOL    H356   356   0.0600000    1.0080
  357        HC    1  MOL    H357   357   0.0600000    1.0080
  358        HC    1  MOL    H358   358   0.0600000    1.0080
  359         H    1  MOL    H359   359   0.3000000    1.0080
  360        HA    1  MOL    H360   360   0.1150000    1.0080
  361        HA    1  MOL    H361   361   0.1150000    1.0080
  362         C    1  MOL    C362   362   0.6150000   12.0115
  363         O    1  MOL    O363   363  -0.5000000   15.9994
  364        CA    1  MOL    C364   364  -0.1150000   12.0115
  365        CA    1  MOL    C365   365  -0.1150000   12.0115
  366        CA    1  MOL    C366   366  -0.1150000   12.0115
  367        CA    1  MOL    C367   367  -0.1150000   12.0115
  368         C    1  MOL    C368   368   0.6150000   12.0115
  369         O    1  MOL    O369   369  -0.5000000   15.9994
  370         N    1  MOL    N370   370  -0.5000000   14.0067
  371        CT    1  MOL    C371   371   0.0800000   12.0115
  372        CT    1  MOL    C372   372  -0.1200000   12.0115
  373        CT    1  MOL    C373   373  -0.1200000   12.0115
  374        CT    1  MOL    C374   374  -0.1200000   12.0115
  375        CT    1  MOL    C375   375  -0.1200000   12.0115
  376        CT    1  MOL    C376   376   0.0800000   12.0115
  377         N    1  MOL    N377   377  -0.5000000   14.0067
  378        CA    1  MOL    C378   378  -0.1150000   12.0115
  379        CA    1  MOL    C379   379  -0.1150000   12.0115
  380        HA    1  MOL    H380   380   0.1150000    1.0080
  381        HA    1  MOL    H381   381   0.1150000    1.0080
  382         H    1  MOL    H382   382   0.3000000    1.0080
  383        HC    1  MOL    H383   383   0.0600000    1.0080
  384        HC    1  MOL    H384   384   0.0600000    1.0080
  385        HC    1  MOL    H385   385   0.0600000    1.0080
  386        HC    1  MOL    H386   386   0.0600000    1.0080
  387        HC    1  MOL    H387   387   0.0600000    1.0080
  388        HC    1  MOL    H388   388   0.0600000    1.0080
  389        HC    1  MOL    H389   389   0.0600000    1.0080
  390        HC    1  MOL    H390   390   0.0600000    1.0080
  391        HC    1  MOL    H391   391   0.0600000    1.0080
  392        HC    1  MOL    H392   392   0.0600000    1.0080
  393        HC    1  MOL    H393   393   0.0600000    1.0080
  394        HC    1  MOL    H394   394   0.0600000    1.0080
  395         H    1  MOL    H395   395   0.3000000    1.0080
  396        HA    1  MOL    H396   396   0.1150000    1.0080
  397        HA    1  MOL    H397   397   0.1150000    1.0080
  398         C    1  MOL    C398   398   0.6150000   12.0115
  399         O    1  MOL    O399   399  -0.5000000   15.9994
  400        CA    1  MOL    C400   400  -0.1150000   12.0115
  401        CA    1  MOL    C401   401  -0.1150000   12.0115
  402        CA    1  MOL    C402   402  -0.1150000   12.0115
  403        CA    1  MOL    C403   403  -0.1150000   12.0115
  404         C    1  MOL    C404   404   0.6150000   12.0115
  405         O    1  MOL    O405   405  -0.5000000   15.9994
  406         N    1  MOL    N406   406  -0.5000000   14.0067
  407        CT    1  MOL    C407   407   0.0800000   12.0115
  408        CT    1  MOL    C408   408  -0.1200000   12.0115
  409        CT    1  MOL    C409   409  -0.1200000   12.0115
  410        CT    1  MOL    C410   410  -0.1200000   12.0115
  411        CT    1  MOL    C411   411  -0.1200000   12.0115
  412        CT    1  MOL    C412   412   0.0800000   12.0115
  413         N    1  MOL    N413   413  -0.5000000   14.0067
  414        CA    1  MOL    C414   414  -0.1150000   12.0115
  415        CA    1  MOL    C415   415  -0.1150000   12.0115
  416        HA    1  MOL    H416   416   0.1150000    1.0080
  417        HA    1  MOL    H417   417   0.1150000    1.0080
  418         H    1  MOL    H418   418   0.3000000    1.0080
  419        HC    1  MOL    H419   419   0.0600000    1.0080
  420        HC    1  MOL    H420   420   0.0600000    1.0080
  421        HC    1  MOL    H421   421   0.0600000    1.0080
  422        HC    1  MOL    H422   422   0.0600000    1.0080
  423        HC    1  MOL    H423   423   0.0600000    1.0080
  424        HC    1  MOL    H424   424   0.0600000    1.0080
  425        HC    1  MOL    H425   425   0.0600000    1.0080
  426        HC    1  MOL    H426   426   0.0600000    1.0080
  427        HC    1  MOL    H427   427   0.0600000    1.0080
  428        HC    1  MOL    H428   428   0.0600000    1.0080
  429        HC    1  MOL    H429   429   0.0600000    1.0080
  430        HC    1  MOL    H430   430   0.0600000    1.0080
  431         H    1  MOL    H431   431   0.3000000    1.0080
  432        HA    1  MOL    H432   432   0.1150000    1.0080
  433        HA    1  MOL    H433   433   0.1150000    1.0080
  434         C    1  MOL    C434   434   0.6150000   12.0115
  435         O    1  MOL    O435   435  -0.5000000   15.9994
  436        CA    1  MOL    C436   436  -0.1150000   12.0115
  437        CA    1  MOL    C437   437  -0.1150000   12.0115
  438        CA    1  MOL    C438   438  -0.1150000   12.0115
  439        CA    1  MOL    C439   439  -0.1150000   12.0115
  440         C    1  MOL    C440   440   0.6150000   12.0115
  441         O    1  MOL    O441   441  -0.5000000   15.9994
  442         N    1  MOL    N442   442  -0.5000000   14.0067
  443        CT    1  MOL    C443   443   0.0800000   12.0115
  444        CT    1  MOL    C444   444  -0.1200000   12.0115
  445        CT    1  MOL    C445   445  -0.1200000   12.0115
  446        CT    1  MOL    C446   446  -0.1200000   12.0115
  447        CT    1  MOL    C447   447  -0.1200000   12.0115
  448        CT    1  MOL    C448   448   0.0800000   12.0115
  449         N    1  MOL    N449   449  -0.5000000   14.0067
  450        CA    1  MOL    C450   450  -0.1150000   12.0115
  451        CA    1  MOL    C451   451  -0.1150000   12.0115
  452        HA    1  MOL    H452   452   0.1150000    1.0080
  453        HA    1  MOL    H453   453   0.1150000    1.0080
  454         H    1  MOL    H454   454   0.3000000    1.0080
  455        HC    1  MOL    H455   455   0.0600000    1.0080
  456        HC    1  MOL    H456   456   0.0600000    1.0080
  457        HC    1  MOL    H457   457   0.0600000    1.0080
  458        HC    1  MOL    H458   458   0.0600000    1.0080
  459        HC    1  MOL    H459   459   0.0600000    1.0080
  460        HC    1  MOL    H460   460   0.0600000    1.0080
  461        HC    1  MOL    H461   461   0.0600000    1.0080
  462        HC    1  MOL    H462   462   0.0600000    1.0080
  463        HC    1  MOL    H463   463   0.0600000    1.0080
  464        HC    1  MOL    H464   464   0.0600000    1.0080
  465        HC    1  MOL    H465   465   0.0600000    1.0080
  466        HC    1  MOL    H466   466   0.0600000    1.0080
  467         H    1  MOL    H467   467   0.3000000    1.0080
  468        HA    1  MOL    H468   468   0.1150000    1.0080
  469        HA    1  MOL    H469   469   0.1150000    1.0080
  470         C    1  MOL    C470   470   0.6150000   12.0115
  471         O    1  MOL    O471   471  -0.5000000   15.9994
  472        CA    1  MOL    C472   472  -0.1150000   12.0115
  473        CA    1  MOL    C473   473  -0.1150000   12.0115
  474        CA    1  MOL    C474   474  -0.1150000   12.0115
  475        CA    1  MOL    C475   475  -0.1150000   12.0115
  476         C    1  MOL    C476   476   0.6150000   12.0115
  477         O    1  MOL    O477   477  -0.5000000   15.9994
  478         N    1  MOL    N478   478  -0.5000000   14.0067
  479        CT    1  MOL    C479   479   0.0800000   12.0115
  480        CT    1  MOL    C480   480  -0.1200000   12.0115
  481        CT    1  MOL    C481   481  -0.1200000   12.0115
  482        CT    1  MOL    C482   482  -0.1200000   12.0115
  483        CT    1  MOL    C483   483  -0.1200000   12.0115
  484        CT    1  MOL    C484   484   0.0800000   12.0115
  485         N    1  MOL    N485   485  -0.5000000   14.0067
  486        CA    1  MOL    C486   486  -0.1150000   12.0115
  487        CA    1  MOL    C487   487  -0.1150000   12.0115
  488        HA    1  MOL    H488   488   0.1150000    1.0080
  489        HA    1  MOL    H489   489   0.1150000    1.0080
  490         H    1  MOL    H490   490   0.3000000    1.0080
  491        HC    1  MOL    H491   491   0.0600000    1.0080
  492        HC    1  MOL    H492   492   0.0600000    1.0080
  493        HC    1  MOL    H493   493   0.0600000    1.0080
  494        HC    1  MOL    H494   494   0.0600000    1.0080
  495        HC    1  MOL    H495   495   0.0600000    1.0080
  496        HC    1  MOL    H496   496   0.0600000    1.0080
  497        HC    1  MOL    H497   497   0.0600000    1.0080
  498        HC    1  MOL    H498   498   0.0600000    1.0080
  499        HC    1  MOL    H499   499   0.0600000    1.0080
  500        HC    1  MOL    H500   500   0.0600000    1.0080
  501        HC    1  MOL    H501   501   0.0600000    1.0080
  502        HC    1  MOL    H502   502   0.0600000    1.0080
  503         H    1  MOL    H503   503   0.3000000    1.0080
  504        HA    1  MOL    H504   504   0.1150000    1.0080
  505        HA    1  MOL    H505   505   0.1150000    1.0080
  506         C    1  MOL    C506   506   0.6150000   12.0115
  507         O    1  MOL    O507   507  -0.5000000   15.9994
  508        CA    1  MOL    C508   508  -0.1150000   12.0115
  509        CA    1  MOL    C509   509  -0.1150000   12.0115
  510        CA    1  MOL    C510   510  -0.1150000   12.0115
  511        CA    1  MOL    C511   511  -0.1150000   12.0115
  512         C    1  MOL    C512   512   0.6150000   12.0115
  513         O    1  MOL    O513   513  -0.5000000   15.9994
  514         N    1  MOL    N514   514  -0.5000000   14.0067
  515        CT    1  MOL    C515   515   0.0800000   12.0115
  516        CT    1  MOL    C516   516  -0.1200000   12.0115
  517        CT    1  MOL    C517   517  -0.1200000   12.0115
  518        CT    1  MOL    C518   518  -0.1200000   12.0115
  519        CT    1  MOL    C519   519  -0.1200000   12.0115
  520        CT    1  MOL    C520   520   0.0800000   12.0115
  521         N    1  MOL    N521   521  -0.5000000   14.0067
  522        CA    1  MOL    C522   522  -0.1150000   12.0115
  523        CA    1  MOL    C523   523  -0.1150000   12.0115
  524        HA    1  MOL    H524   524   0.1150000    1.0080
  525        HA    1  MOL    H525   525   0.1150000    1.0080
  526         H    1  MOL    H526   526   0.3000000    1.0080
  527        HC    1  MOL    H527   527   0.0600000    1.0080
  528        HC    1  MOL    H528   528   0.0600000    1.0080
  529        HC    1  MOL    H529   529   0.0600000    1.0080
  530        HC    1  MOL    H530   530   0.0600000    1.0080
  531        HC    1  MOL    H531   531   0.0600000    1.0080
  532        HC    1  MOL    H532   532   0.0600000    1.0080
  533        HC    1  MOL    H533   533   0.0600000    1.0080
  534        HC    1  MOL    H534   534   0.0600000    1.0080
  535        HC    1  MOL    H535   535   0.0600000    1.0080
  536        HC    1  MOL    H536   536   0.0600000    1.0080
  537        HC    1  MOL    H537   537   0.0600000    1.0080
  538        HC    1  MOL    H538   538   0.0600000    1.0080
  539         H    1  MOL    H539   539   0.3000000    1.0080
  540        HA    1  MOL    H540   540   0.1150000    1.0080
  541        HA    1  MOL    H541   541   0.1150000    1.0080
  542         C    1  MOL    C542   542   0.6150000   12.0115
  543         O    1  MOL    O543   543  -0.5000000   15.9994
  544        CA    1  MOL    C544   544  -0.1150000   12.0115
  545        CA    1  MOL    C545   545  -0.1150000   12.0115
  546        CA    1  MOL    C546   546  -0.1150000   12.0115
  547        CA    1  MOL    C547   547  -0.1150000   12.0115
  548         C    1  MOL    C548   548   0.6150000   12.0115
  549         O    1  MOL    O549   549  -0.5000000   15.9994
  550         N    1  MOL    N550   550  -0.5000000   14.0067
  551        CT    1  MOL    C551   551   0.0800000   12.0115
  552        CT    1  MOL    C552   552  -0.1200000   12.0115
  553        CT    1  MOL    C553   553  -0.1200000   12.0115
  554        CT    1  MOL    C554   554  -0.1200000   12.0115
  555        CT    1  MOL    C555   555  -0.1200000   12.0115
  556        CT    1  MOL    C556   556   0.0800000   12.0115
  557         N    1  MOL    N557   557  -0.5000000   14.0067
  558        CA    1  MOL    C558   558  -0.1150000   12.0115
  559        CA    1  MOL    C559   559  -0.1150000   12.0115
  560        HA    1  MOL    H560   560   0.1150000    1.0080
  561        HA    1  MOL    H561   561   0.1150000    1.0080
  562         H    1  MOL    H562   562   0.3000000    1.0080
  563        HC    1  MOL    H563   563   0.0600000    1.0080
  564        HC    1  MOL    H564   564   0.0600000    1.0080
  565        HC    1  MOL    H565   565   0.0600000    1.0080
  566        HC    1  MOL    H566   566   0.0600000    1.0080
  567        HC    1  MOL    H567   567   0.0600000    1.0080
  568        HC    1  MOL    H568   568   0.0600000    1.0080
  569        HC    1  MOL    H569   569   0.0600000    1.0080
  570        HC    1  MOL    H570   570   0.0600000    1.0080
  571        HC    1  MOL    H571   571   0.0600000    1.0080
  572        HC    1  MOL    H572   572   0.0600000    1.0080
  573        HC    1  MOL    H573   573   0.0600000    1.0080
  574        HC    1  MOL    H574   574   0.0600000    1.0080
  575         H    1  MOL    H575   575   0.3000000    1.0080
  576        HA    1  MOL    H576   576   0.1150000    1.0080
  577        HA    1  MOL    H577   577   0.1150000    1.0080
  578         C    1  MOL    C578   578   0.6150000   12.0115
  579         O    1  MOL    O579   579  -0.5000000   15.9994
  580        CA    1  MOL    C580   580  -0.1150000   12.0115
  581        CA    1  MOL    C581   581  -0.1150000   12.0115
  582        CA    1  MOL    C582   582  -0.1150000   12.0115
  583        CA    1  MOL    C583   583  -0.1150000   12.0115
  584         C    1  MOL    C584   584   0.6150000   12.0115
  585         O    1  MOL    O585   585  -0.5000000   15.9994
  586         N    1  MOL    N586   586  -0.5000000   14.0067
  587        CT    1  MOL    C587   587   0.0800000   12.0115
  588        CT    1  MOL    C588   588  -0.1200000   12.0115
  589        CT    1  MOL    C589   589  -0.1200000   12.0115
  590        CT    1  MOL    C590   590  -0.1200000   12.0115
  591        CT    1  MOL    C591   591  -0.1200000   12.0115
  592        CT    1  MOL    C592   592   0.0800000   12.0115
  593         N    1  MOL    N593   593  -0.5000000   14.0067
  594        CA    1  MOL    C594   594  -0.1150000   12.0115
  595        CA    1  MOL    C595   595  -0.1150000   12.0115
  596        HA    1  MOL    H596   596   0.1150000    1.0080
  597        HA    1  MOL    H597   597   0.1150000    1.0080
  598         H    1  MOL    H598   598   0.3000000    1.0080
  599        HC    1  MOL    H599   599   0.0600000    1.0080
  600        HC    1  MOL    H600   600   0.0600000    1.0080
  601        HC    1  MOL    H601   601   0.0600000    1.0080
  602        HC    1  MOL    H602   602   0.0600000    1.0080
  603        HC    1  MOL    H603   603   0.0600000    1.0080
  604        HC    1  MOL    H604   604   0.0600000    1.0080
  605        HC    1  MOL    H605   605   0.0600000    1.0080
  606        HC    1  MOL    H606   606   0.0600000    1.0080
  607        HC    1  MOL    H607   607   0.0600000    1.0080
  608        HC    1  MOL    H608   608   0.0600000    1.0080
  609        HC    1  MOL    H609   609   0.0600000    1.0080
  610        HC    1  MOL    H610   610   0.0600000    1.0080
  611         H    1  MOL    H611   611   0.3000000    1.0080
  612        HA    1  MOL    H612   612   0.1150000    1.0080
  613        HA    1  MOL    H613   613   0.1150000    1.0080
  614         C    1  MOL    C614   614   0.6150000   12.0115
  615         O    1  MOL    O615   615  -0.5000000   15.9994
  616        CA    1  MOL    C616   616  -0.1150000   12.0115
  617        CA    1  MOL    C617   617  -0.1150000   12.0115
  618        CA    1  MOL    C618   618  -0.1150000   12.0115
  619        CA    1  MOL    C619   619  -0.1150000   12.0115
  620         C    1  MOL    C620   620   0.6150000   12.0115
  621         O    1  MOL    O621   621  -0.5000000   15.9994
  622         N    1  MOL    N622   622  -0.5000000   14.0067
  623        CT    1  MOL    C623   623   0.0800000   12.0115
  624        CT    1  MOL    C624   624  -0.1200000   12.0115
  625        CT    1  MOL    C625   625  -0.1200000   12.0115
  626        CT    1  MOL    C626   626  -0.1200000   12.0115
  627        CT    1  MOL    C627   627  -0.1200000   12.0115
  628        CT    1  MOL    C628   628   0.0800000   12.0115
  629         N    1  MOL    N629   629  -0.5000000   14.0067
  630        CA    1  MOL    C630   630  -0.1150000   12.0115
  631        CA    1  MOL    C631   631  -0.1150000   12.0115
  632        HA    1  MOL    H632   632   0.1150000    1.0080
  633        HA    1  MOL    H633   633   0.1150000    1.0080
  634         H    1  MOL    H634   634   0.3000000    1.0080
  635        HC    1  MOL    H635   635   0.0600000    1.0080
  636        HC    1  MOL    H636   636   0.0600000    1.0080
  637        HC    1  MOL    H637   637   0.0600000    1.0080
  638        HC    1  MOL    H638   638   0.0600000    1.0080
  639        HC    1  MOL    H639   639   0.0600000    1.0080
  640        HC    1  MOL    H640   640   0.0600000    1.0080
  641        HC    1  MOL    H641   641   0.0600000    1.0080
  642        HC    1  MOL    H642   642   0.0600000    1.0080
  643        HC    1  MOL    H643   643   0.0600000    1.0080
  644        HC    1  MOL    H644   644   0.0600000    1.0080
  645        HC    1  MOL    H645   645   0.0600000    1.0080
  646        HC    1  MOL    H646   646   0.0600000    1.0080
  647         H    1  MOL    H647   647   0.3000000    1.0080
  648        HA    1  MOL    H648   648   0.1150000    1.0080
  649        HA    1  MOL    H649   649   0.1150000    1.0080
  650         C    1  MOL    C650   650   0.6150000   12.0115
  651         O    1  MOL    O651   651  -0.5000000   15.9994
  652        CA    1  MOL    C652   652  -0.1150000   12.0115
  653        CA    1  MOL    C653   653  -0.1150000   12.0115
  654        CA    1  MOL    C654   654  -0.1150000   12.0115
  655        CA    1  MOL    C655   655  -0.1150000   12.0115
  656         C    1  MOL    C656   656   0.6150000   12.0115
  657         O    1  MOL    O657   657  -0.5000000   15.9994
  658         N    1  MOL    N658   658  -0.5000000   14.0067
  659        CT    1  MOL    C659   659   0.0800000   12.0115
  660        CT    1  MOL    C660   660  -0.1200000   12.0115
  661        CT    1  MOL    C661   661  -0.1200000   12.0115
  662        CT    1  MOL    C662   662  -0.1200000   12.0115
  663        CT    1  MOL    C663   663  -0.1200000   12.0115
  664        CT    1  MOL    C664   664   0.0800000   12.0115
  665         N    1  MOL    N665   665  -0.5000000   14.0067
  666        CA    1  MOL    C666   666  -0.1150000   12.0115
  667        CA    1  MOL    C667   667  -0.1150000   12.0115
  668        HA    1  MOL    H668   668   0.1150000    1.0080
  669        HA    1  MOL    H669   669   0.1150000    1.0080
  670         H    1  MOL    H670   670   0.3000000    1.0080
  671        HC    1  MOL    H671   671   0.0600000    1.0080
  672        HC    1  MOL    H672   672   0.0600000    1.0080
  673        HC    1  MOL    H673   673   0.0600000    1.0080
  674        HC    1  MOL    H674   674   0.0600000    1.0080
  675        HC    1  MOL    H675   675   0.0600000    1.0080
  676        HC    1  MOL    H676   676   0.0600000    1.0080
  677        HC    1  MOL    H677   677   0.0600000    1.0080
  678        HC    1  MOL    H678   678   0.0600000    1.0080
  679        HC    1  MOL    H679   679   0.0600000    1.0080
  680        HC    1  MOL    H680   680   0.0600000    1.0080
  681        HC    1  MOL    H681   681   0.0600000    1.0080
  682        HC    1  MOL    H682   682   0.0600000    1.0080
  683         H    1  MOL    H683   683   0.3000000    1.0080
  684        HA    1  MOL    H684   684   0.1150000    1.0080
  685        HA    1  MOL    H685   685   0.1150000    1.0080
  686         C    1  MOL    C686   686   0.6150000   12.0115
  687         O    1  MOL    O687   687  -0.5000000   15.9994
  688        CA    1  MOL    C688   688  -0.1150000   12.0115
  689        CA    1  MOL    C689   689  -0.1150000   12.0115
  690        CA    1  MOL    C690   690  -0.1150000   12.0115
  691        CA    1  MOL    C691   691  -0.1150000   12.0115
  692         C    1  MOL    C692   692   0.6150000   12.0115
  693         O    1  MOL    O693   693  -0.5000000   15.9994
  694         N    1  MOL    N694   694  -0.5000000   14.0067
  695        CT    1  MOL    C695   695   0.0800000   12.0115
  696        CT    1  MOL    C696   696  -0.1200000   12.0115
  697        CT    1  MOL    C697   697  -0.1200000   12.0115
  698        CT    1  MOL    C698   698  -0.1200000   12.0115
  699        CT    1  MOL    C699   699  -0.1200000   12.0115
  700        CT    1  MOL    C700   700   0.0600000   12.0115
  701        NT    1  MOL    N701   701  -0.9000000   14.0067
  702        CA    1  MOL    C702   702  -0.1150000   12.0115
  703        CA    1  MOL    C703   703  -0.1150000   12.0115
  704        HA    1  MOL    H704   704   0.1150000    1.0080
  705        HA    1  MOL    H705   705   0.1150000    1.0080
  706         H    1  MOL    H706   706   0.3000000    1.0080
  707        HC    1  MOL    H707   707   0.0600000    1.0080
  708        HC    1  MOL    H708   708   0.0600000    1.0080
  709        HC    1  MOL    H709   709   0.0600000    1.0080
  710        HC    1  MOL    H710   710   0.0600000    1.0080
  711        HC    1  MOL    H711   711   0.0600000    1.0080
  712        HC    1  MOL    H712   712   0.0600000    1.0080
  713        HC    1  MOL    H713   713   0.0600000    1.0080
  714        HC    1  MOL    H714   714   0.0600000    1.0080
  715        HC    1  MOL    H715   715   0.0600000    1.0080
  716        HC    1  MOL    H716   716   0.0600000    1.0080
  717      HANI    1  MOL    H717   717   0.0600000    1.0080
  718      HANI    1  MOL    H718   718   0.0600000    1.0080
  719         H    1  MOL    H719   719   0.3600000    1.0080
  720        HA    1  MOL    H720   720   0.1150000    1.0080
  721        HA    1  MOL    H721   721   0.1150000    1.0080
  722         H    1  MOL    H722   722   0.3600000    1.0080

[ bonds ]
      1      2   1      0.1229 476976.0000
      1      3   1      0.1470 259408.0000
      1     37   1      0.1090 284512.0000
      3      4   1      0.1400 392459.2000
      3     18   1      0.1400 392459.2000
      4      5   1      0.1400 392459.2000
      4     19   1      0.1080 307105.6000
      5      6   1      0.1400 392459.2000
      5     20   1      0.1080 307105.6000
      6      7   1      0.1490 334720.0000
      6     17   1      0.1400 392459.2000
      7      8   1      0.1229 476976.0000
      7      9   1      0.1335 410032.0000
      9     10   1      0.1449 282001.6000
      9     21   1      0.1010 363171.2000
     10     11   1      0.1529 224262.4000
     10     22   1      0.1090 284512.0000
     10     23   1      0.1090 284512.0000
     11     12   1      0.1529 224262.4000
     11     24   1      0.1090 284512.0000
     11     25   1      0.1090 284512.0000
     12     13   1      0.1529 224262.4000
     12     26   1      0.1090 284512.0000
     12     27   1      0.1090 284512.0000
     13     14   1      0.1529 224262.4000
     13     28   1      0.1090 284512.0000
     13     29   1      0.1090 284512.0000
     14     15   1      0.1529 224262.4000
     14     30   1      0.1090 284512.0000
     14     31   1      0.1090 284512.0000
     15     16   1      0.1449 282001.6000
     15     32   1      0.1090 284512.0000
     15     33   1      0.1090 284512.0000
     16     34   1      0.1010 363171.2000
     16     38   1      0.1335 410032.0000
     17     18   1      0.1400 392459.2000
     17     35   1      0.1080 307105.6000
     18     36   1      0.1080 307105.6000
     38     39   1      0.1229 476976.0000
     38     40   1      0.1490 334720.0000
     40     41   1      0.1400 392459.2000
     40     55   1      0.1400 392459.2000
     41     42   1      0.1400 392459.2000
     41     56   1      0.1080 307105.6000
     42     43   1      0.1400 392459.2000
     42     57   1      0.1080 307105.6000
     43     44   1      0.1490 334720.0000
     43     54   1      0.1400 392459.2000
     44     45   1      0.1229 476976.0000
     44     46   1      0.1335 410032.0000
     46     47   1      0.1449 282001.6000
     46     58   1      0.1010 363171.2000
     47     48   1      0.1529 224262.4000
     47     59   1      0.1090 284512.0000
     47     60   1      0.1090 284512.0000
     48     49   1      0.1529 224262.4000
     48     61   1      0.1090 284512.0000
     48     62   1      0.1090 284512.0000
     49     50   1      0.1529 224262.4000
     49     63   1      0.1090 284512.0000
     49     64   1      0.1090 284512.0000
     50     51   1      0.1529 224262.4000
     50     65   1      0.1090 284512.0000
     50     66   1      0.1090 284512.0000
     51     52   1      0.1529 224262.4000
     51     67   1      0.1090 284512.0000
     51     68   1      0.1090 284512.0000
     52     53   1      0.1449 282001.6000
     52     69   1      0.1090 284512.0000
     52     70   1      0.1090 284512.0000
     53     71   1      0.1010 363171.2000
     53     74   1      0.1335 410032.0000
     54     55   1      0.1400 392459.2000
     54     72   1      0.1080 307105.6000
     55     73   1      0.1080 307105.6000
     74     75   1      0.1229 476976.0000
     74     76   1      0.1490 334720.0000
     76     77   1      0.1400 392459.2000
     76     91   1      0.1400 392459.2000
     77     78   1      0.1400 392459.2000
     77     92   1      0.1080 307105.6000
     78     79   1      0.1400 392459.2000
     78     93   1      0.1080 307105.6000
     79     80   1      0.1490 334720.0000
     79     90   1      0.1400 392459.2000
     80     81   1      0.1229 476976.0000
     80     82   1      0.1335 410032.0000
     82     83   1      0.1449 282001.6000
     82     94   1      0.1010 363171.2000
     83     84   1      0.1529 224262.4000
     83     95   1      0.1090 284512.0000
     83     96   1      0.1090 284512.0000
     84     85   1      0.1529 224262.4000
     84     97   1      0.1090 284512.0000
     84     98   1      0.1090 284512.0000
     85     86   1      0.1529 224262.4000
     85     99   1      0.1090 284512.0000
     85    100   1      0.1090 284512.0000
     86     87   1      0.1529 224262.4000
     86    101   1      0.1090 284512.0000
     86    102   1      0.1090 284512.0000
     87     88   1      0.1529 224262.4000
     87    103   1      0.1090 284512.0000
     87    104   1      0.1090 284512.0000
     88     89   1      0.1449 282001.6000
     88    105   1      0.1090 284512.0000
     88    106   1      0.1090 284512.0000
     89    107   1      0.1010 363171.2000
     89    110   1      0.1335 410032.0000
     90     91   1      0.1400 392459.2000
     90    108   1      0.1080 307105.6000
     91    109   1      0.1080 307105.6000
    110    111   1      0.1229 476976.0000
    110    112   1      0.1490 334720.0000
    112    113   1      0.1400 392459.2000
    112    127   1      0.1400 392459.2000
    113    114   1      0.1400 392459.2000
    113    128   1      0.1080 307105.6000
    114    115   1      0.1400 392459.2000
    114    129   1      0.1080 307105.6000
    115    116   1      0.1490 334720.0000
    115    126   1      0.1400 392459.2000
    116    117   1      0.1229 476976.0000
    116    118   1      0.1335 410032.0000
    118    119   1      0.1449 282001.6000
    118    130   1      0.1010 363171.2000
    119    120   1      0.1529 224262.4000
    119    131   1      0.1090 284512.0000
    119    132   1      0.1090 284512.0000
    120    121   1      0.1529 224262.4000
    120    133   1      0.1090 284512.0000
    120    134   1      0.1090 284512.0000
    121    122   1      0.1529 224262.4000
    121    135   1      0.1090 284512.0000
    121    136   1      0.1090 284512.0000
    122    123   1      0.1529 224262.4000
    122    137   1      0.1090 284512.0000
    122    138   1      0.1090 284512.0000
    123    124   1      0.1529 224262.4000
    123    139   1      0.1090 284512.0000
    123    140   1      0.1090 284512.0000
    124    125   1      0.1449 282001.6000
    124    141   1      0.1090 284512.0000
    124    142   1      0.1090 284512.0000
    125    143   1      0.1010 363171.2000
    125    146   1      0.1335 410032.0000
    126    127   1      0.1400 392459.2000
    126    144   1      0.1080 307105.6000
    127    145   1      0.1080 307105.6000
    146    147   1      0.1229 476976.0000
    146    148   1      0.1490 334720.0000
    148    149   1      0.1400 392459.2000
    148    163   1      0.1400 392459.2000
    149    150   1      0.1400 392459.2000
    149    164   1      0.1080 307105.6000
    150    151   1      0.1400 392459.2000
    150    165   1      0.1080 307105.6000
    151    152   1      0.1490 334720.0000
    151    162   1      0.1400 392459.2000
    152    153   1      0.1229 476976.0000
    152    154   1      0.1335 410032.0000
    154    155   1      0.1449 282001.6000
    154    166   1      0.1010 363171.2000
    155    156   1      0.1529 224262.4000
    155    167   1      0.1090 284512.0000
    155    168   1      0.1090 284512.0000
    156    157   1      0.1529 224262.4000
    156    169   1      0.1090 284512.0000
    156    170   1      0.1090 284512.0000
    157    158   1      0.1529 224262.4000
    157    171   1      0.1090 284512.0000
    157    172   1      0.1090 284512.0000
    158    159   1      0.1529 224262.4000
    158    173   1      0.1090 284512.0000
    158    174   1      0.1090 284512.0000
    159    160   1      0.1529 224262.4000
    159    175   1      0.1090 284512.0000
    159    176   1      0.1090 284512.0000
    160    161   1      0.1449 282001.6000
    160    177   1      0.1090 284512.0000
    160    178   1      0.1090 284512.0000
    161    179   1      0.1010 363171.2000
    161    182   1      0.1335 410032.0000
    162    163   1      0.1400 392459.2000
    162    180   1      0.1080 307105.6000
    163    181   1      0.1080 307105.6000
    182    183   1      0.1229 476976.0000
    182    184   1      0.1490 334720.0000
    184    185   1      0.1400 392459.2000
    184    199   1      0.1400 392459.2000
    185    186   1      0.1400 392459.2000
    185    200   1      0.1080 307105.6000
    186    187   1      0.1400 392459.2000
    186    201   1      0.1080 307105.6000
    187    188   1      0.1490 334720.0000
    187    198   1      0.1400 392459.2000
    188    189   1      0.1229 476976.0000
    188    190   1      0.1335 410032.0000
    190    191   1      0.1449 282001.6000
    190    202   1      0.1010 363171.2000
    191    192   1      0.1529 224262.4000
    191    203   1      0.1090 284512.0000
    191    204   1      0.1090 284512.0000
    192    193   1      0.1529 224262.4000
    192    205   1      0.1090 284512.0000
    192    206   1      0.1090 284512.0000
    193    194   1      0.1529 224262.4000
    193    207   1      0.1090 284512.0000
    193    208   1      0.1090 284512.0000
    194    195   1      0.1529 224262.4000
    194    209   1      0.1090 284512.0000
    194    210   1      0.1090 284512.0000
    195    196   1      0.1529 224262.4000
    195    211   1      0.1090 284512.0000
    195    212   1      0.1090 284512.0000
    196    197   1      0.1449 282001.6000
    196    213   1      0.1090 284512.0000
    196    214   1      0.1090 284512.0000
    197    215   1      0.1010 363171.2000
    197    218   1      0.1335 410032.0000
    198    199   1      0.1400 392459.2000
    198    216   1      0.1080 307105.6000
    199    217   1      0.1080 307105.6000
    218    219   1      0.1229 476976.0000
    218    220   1      0.1490 334720.0000
    220    221   1      0.1400 392459.2000
    220    235   1      0.1400 392459.2000
    221    222   1      0.1400 392459.2000
    221    236   1      0.1080 307105.6000
    222    223   1      0.1400 392459.2000
    222    237   1      0.1080 307105.6000
    223    224   1      0.1490 334720.0000
    223    234   1      0.1400 392459.2000
    224    225   1      0.1229 476976.0000
    224    226   1      0.1335 410032.0000
    226    227   1      0.1449 282001.6000
    226    238   1      0.1010 363171.2000
    227    228   1      0.1529 224262.4000
    227    239   1      0.1090 284512.0000
    227    240   1      0.1090 284512.0000
    228    229   1      0.1529 224262.4000
    228    241   1      0.1090 284512.0000
    228    242   1      0.1090 284512.0000
    229    230   1      0.1529 224262.4000
    229    243   1      0.1090 284512.0000
    229    244   1      0.1090 284512.0000
    230    231   1      0.1529 224262.4000
    230    245   1      0.1090 284512.0000
    230    246   1      0.1090 284512.0000
    231    232   1      0.1529 224262.4000
    231    247   1      0.1090 284512.0000
    231    248   1      0.1090 284512.0000
    232    233   1      0.1449 282001.6000
    232    249   1      0.1090 284512.0000
    232    250   1      0.1090 284512.0000
    233    251   1      0.1010 363171.2000
    233    254   1      0.1335 410032.0000
    234    235   1      0.1400 392459.2000
    234    252   1      0.1080 307105.6000
    235    253   1      0.1080 307105.6000
    254    255   1      0.1229 476976.0000
    254    256   1      0.1490 334720.0000
    256    257   1      0.1400 392459.2000
    256    271   1      0.1400 392459.2000
    257    258   1      0.1400 392459.2000
    257    272   1      0.1080 307105.6000
    258    259   1      0.1400 392459.2000
    258    273   1      0.1080 307105.6000
    259    260   1      0.1490 334720.0000
    259    270   1      0.1400 392459.2000
    260    261   1      0.1229 476976.0000
    260    262   1      0.1335 410032.0000
    262    263   1      0.1449 282001.6000
    262    274   1      0.1010 363171.2000
    263    264   1      0.1529 224262.4000
    263    275   1      0.1090 284512.0000
    263    276   1      0.1090 284512.0000
    264    265   1      0.1529 224262.4000
    264    277   1      0.1090 284512.0000
    264    278   1      0.1090 284512.0000
    265    266   1      0.1529 224262.4000
    265    279   1      0.1090 284512.0000
    265    280   1      0.1090 284512.0000
    266    267   1      0.1529 224262.4000
    266    281   1      0.1090 284512.0000
    266    282   1      0.1090 284512.0000
    267    268   1      0.1529 224262.4000
    267    283   1      0.1090 284512.0000
    267    284   1      0.1090 284512.0000
    268    269   1      0.1449 282001.6000
    268    285   1      0.1090 284512.0000
    268    286   1      0.1090 284512.0000
    269    287   1      0.1010 363171.2000
    269    290   1      0.1335 410032.0000
    270    271   1      0.1400 392459.2000
    270    288   1      0.1080 307105.6000
    271    289   1      0.1080 307105.6000
    290    291   1      0.1229 476976.0000
    290    292   1      0.1490 334720.0000
    292    293   1      0.1400 392459.2000
    292    307   1      0.1400 392459.2000
    293    294   1      0.1400 392459.2000
    293    308   1      0.1080 307105.6000
    294    295   1      0.1400 392459.2000
    294    309   1      0.1080 307105.6000
    295    296   1      0.1490 334720.0000
    295    306   1      0.1400 392459.2000
    296    297   1      0.1229 476976.0000
    296    298   1      0.1335 410032.0000
    298    299   1      0.1449 282001.6000
    298    310   1      0.1010 363171.2000
    299    300   1      0.1529 224262.4000
    299    311   1      0.1090 284512.0000
    299    312   1      0.1090 284512.0000
    300    301   1      0.1529 224262.4000
    300    313   1      0.1090 284512.0000
    300    314   1      0.1090 284512.0000
    301    302   1      0.1529 224262.4000
    301    315   1      0.1090 284512.0000
    301    316   1      0.1090 284512.0000
    302    303   1      0.1529 224262.4000
    302    317   1      0.1090 284512.0000
    302    318   1      0.1090 284512.0000
    303    304   1      0.1529 224262.4000
    303    319   1      0.1090 284512.0000
    303    320   1      0.1090 284512.0000
    304    305   1      0.1449 282001.6000
    304    321   1      0.1090 284512.0000
    304    322   1      0.1090 284512.0000
    305    323   1      0.1010 363171.2000
    305    326   1      0.1335 410032.0000
    306    307   1      0.1400 392459.2000
    306    324   1      0.1080 307105.6000
    307    325   1      0.1080 307105.6000
    326    327   1      0.1229 476976.0000
    326    328   1      0.1490 334720.0000
    328    329   1      0.1400 392459.2000
    328    343   1      0.1400 392459.2000
    329    330   1      0.1400 392459.2000
    329    344   1      0.1080 307105.6000
    330    331   1      0.1400 392459.2000
    330    345   1      0.1080 307105.6000
    331    332   1      0.1490 334720.0000
    331    342   1      0.1400 392459.2000
    332    333   1      0.1229 476976.0000
    332    334   1      0.1335 410032.0000
    334    335   1      0.1449 282001.6000
    334    346   1      0.1010 363171.2000
    335    336   1      0.1529 224262.4000
    335    347   1      0.1090 284512.0000
    335    348   1      0.1090 284512.0000
    336    337   1      0.1529 224262.4000
    336    349   1      0.1090 284512.0000
    336    350   1      0.1090 284512.0000
    337    338   1      0.1529 224262.4000
    337    351   1      0.1090 284512.0000
    337    352   1      0.1090 284512.0000
    338    339   1      0.1529 224262.4000
    338    353   1      0.1090 284512.0000
    338    354   1      0.1090 284512.0000
    339    340   1      0.1529 224262.4000
    339    355   1      0.1090 284512.0000
    339    356   1      0.1090 284512.0000
    340    341   1      0.1449 282001.6000
    340    357   1      0.1090 284512.0000
    340    358   1      0.1090 284512.0000
    341    359   1      0.1010 363171.2000
    341    362   1      0.1335 410032.0000
    342    343   1      0.1400 392459.2000
    342    360   1      0.1080 307105.6000
    343    361   1      0.1080 307105.6000
    362    363   1      0.1229 476976.0000
    362    364   1      0.1490 334720.0000
    364    365   1      0.1400 392459.2000
    364    379   1      0.1400 392459.2000
    365    366   1      0.1400 392459.2000
    365    380   1      0.1080 307105.6000
    366    367   1      0.1400 392459.2000
    366    381   1      0.1080 307105.6000
    367    368   1      0.1490 334720.0000
    367    378   1      0.1400 392459.2000
    368    369   1      0.1229 476976.0000
    368    370   1      0.1335 410032.0000
    370    371   1      0.1449 282001.6000
    370    382   1      0.1010 363171.2000
    371    372   1      0.1529 224262.4000
    371    383   1      0.1090 284512.0000
    371    384   1      0.1090 284512.0000
    372    373   1      0.1529 224262.4000
    372    385   1      0.1090 284512.0000
    372    386   1      0.1090 284512.0000
    373    374   1      0.1529 224262.4000
    373    387   1      0.1090 284512.0000
    373    388   1      0.1090 284512.0000
    374    375   1      0.1529 224262.4000
    374    389   1      0.1090 284512.0000
    374    390   1      0.1090 284512.0000
    375    376   1      0.1529 224262.4000
    375    391   1      0.1090 284512.0000
    375    392   1      0.1090 284512.0000
    376    377   1      0.1449 282001.6000
    376    393   1      0.1090 284512.0000
    376    394   1      0.1090 284512.0000
    377    395   1      0.1010 363171.2000
    377    398   1      0.1335 410032.0000
    378    379   1      0.1400 392459.2000
    378    396   1      0.1080 307105.6000
    379    397   1      0.1080 307105.6000
    398    399   1      0.1229 476976.0000
    398    400   1      0.1490 334720.0000
    400    401   1      0.1400 392459.2000
    400    415   1      0.1400 392459.2000
    401    402   1      0.1400 392459.2000
    401    416   1      0.1080 307105.6000
    402    403   1      0.1400 392459.2000
    402    417   1      0.1080 307105.6000
    403    404   1      0.1490 334720.0000
    403    414   1      0.1400 392459.2000
    404    405   1      0.1229 476976.0000
    404    406   1      0.1335 410032.0000
    406    407   1      0.1449 282001.6000
    406    418   1      0.1010 363171.2000
    407    408   1      0.1529 224262.4000
    407    419   1      0.1090 284512.0000
    407    420   1      0.1090 284512.0000
    408    409   1      0.1529 224262.4000
    408    421   1      0.1090 284512.0000
    408    422   1      0.1090 284512.0000
    409    410   1      0.1529 224262.4000
    409    423   1      0.1090 284512.0000
    409    424   1      0.1090 284512.0000
    410    411   1      0.1529 224262.4000
    410    425   1      0.1090 284512.0000
    410    426   1      0.1090 284512.0000
    411    412   1      0.1529 224262.4000
    411    427   1      0.1090 284512.0000
    411    428   1      0.1090 284512.0000
    412    413   1      0.1449 282001.6000
    412    429   1      0.1090 284512.0000
    412    430   1      0.1090 284512.0000
    413    431   1      0.1010 363171.2000
    413    434   1      0.1335 410032.0000
    414    415   1      0.1400 392459.2000
    414    432   1      0.1080 307105.6000
    415    433   1      0.1080 307105.6000
    434    435   1      0.1229 476976.0000
    434    436   1      0.1490 334720.0000
    436    437   1      0.1400 392459.2000
    436    451   1      0.1400 392459.2000
    437    438   1      0.1400 392459.2000
    437    452   1      0.1080 307105.6000
    438    439   1      0.1400 392459.2000
    438    453   1      0.1080 307105.6000
    439    440   1      0.1490 334720.0000
    439    450   1      0.1400 392459.2000
    440    441   1      0.1229 476976.0000
    440    442   1      0.1335 410032.0000
    442    443   1      0.1449 282001.6000
    442    454   1      0.1010 363171.2000
    443    444   1      0.1529 224262.4000
    443    455   1      0.1090 284512.0000
    443    456   1      0.1090 284512.0000
    444    445   1      0.1529 224262.4000
    444    457   1      0.1090 284512.0000
    444    458   1      0.1090 284512.0000
    445    446   1      0.1529 224262.4000
    445    459   1      0.1090 284512.0000
    445    460   1      0.1090 284512.0000
    446    447   1      0.1529 224262.4000
    446    461   1      0.1090 284512.0000
    446    462   1      0.1090 284512.0000
    447    448   1      0.1529 224262.4000
    447    463   1      0.1090 284512.0000
    447    464   1      0.1090 284512.0000
    448    449   1      0.1449 282001.6000
    448    465   1      0.1090 284512.0000
    448    466   1      0.1090 284512.0000
    449    467   1      0.1010 363171.2000
    449    470   1      0.1335 410032.0000
    450    451   1      0.1400 392459.2000
    450    468   1      0.1080 307105.6000
    451    469   1      0.1080 307105.6000
    470    471   1      0.1229 476976.0000
    470    472   1      0.1490 334720.0000
    472    473   1      0.1400 392459.2000
    472    487   1      0.1400 392459.2000
    473    474   1      0.1400 392459.2000
    473    488   1      0.1080 307105.6000
    474    475   1      0.1400 392459.2000
    474    489   1      0.1080 307105.6000
    475    476   1      0.1490 334720.0000
    475    486   1      0.1400 392459.2000
    476    477   1      0.1229 476976.0000
    476    478   1      0.1335 410032.0000
    478    479   1      0.1449 282001.6000
    478    490   1      0.1010 363171.2000
    479    480   1      0.1529 224262.4000
    479    491   1      0.1090 284512.0000
    479    492   1      0.1090 284512.0000
    480    481   1      0.1529 224262.4000
    480    493   1      0.1090 284512.0000
    480    494   1      0.1090 284512.0000
    481    482   1      0.1529 224262.4000
    481    495   1      0.1090 284512.0000
    481    496   1      0.1090 284512.0000
    482    483   1      0.1529 224262.4000
    482    497   1      0.1090 284512.0000
    482    498   1      0.1090 284512.0000
    483    484   1      0.1529 224262.4000
    483    499   1      0.1090 284512.0000
    483    500   1      0.1090 284512.0000
    484    485   1      0.1449 282001.6000
    484    501   1      0.1090 284512.0000
    484    502   1      0.1090 284512.0000
    485    503   1      0.1010 363171.2000
    485    506   1      0.1335 410032.0000
    486    487   1      0.1400 392459.2000
    486    504   1      0.1080 307105.6000
    487    505   1      0.1080 307105.6000
    506    507   1      0.1229 476976.0000
    506    508   1      0.1490 334720.0000
    508    509   1      0.1400 392459.2000
    508    523   1      0.1400 392459.2000
    509    510   1      0.1400 392459.2000
    509    524   1      0.1080 307105.6000
    510    511   1      0.1400 392459.2000
    510    525   1      0.1080 307105.6000
    511    512   1      0.1490 334720.0000
    511    522   1      0.1400 392459.2000
    512    513   1      0.1229 476976.0000
    512    514   1      0.1335 410032.0000
    514    515   1      0.1449 282001.6000
    514    526   1      0.1010 363171.2000
    515    516   1      0.1529 224262.4000
    515    527   1      0.1090 284512.0000
    515    528   1      0.1090 284512.0000
    516    517   1      0.1529 224262.4000
    516    529   1      0.1090 284512.0000
    516    530   1      0.1090 284512.0000
    517    518   1      0.1529 224262.4000
    517    531   1      0.1090 284512.0000
    517    532   1      0.1090 284512.0000
    518    519   1      0.1529 224262.4000
    518    533   1      0.1090 284512.0000
    518    534   1      0.1090 284512.0000
    519    520   1      0.1529 224262.4000
    519    535   1      0.1090 284512.0000
    519    536   1      0.1090 284512.0000
    520    521   1      0.1449 282001.6000
    520    537   1      0.1090 284512.0000
    520    538   1      0.1090 284512.0000
    521    539   1      0.1010 363171.2000
    521    542   1      0.1335 410032.0000
    522    523   1      0.1400 392459.2000
    522    540   1      0.1080 307105.6000
    523    541   1      0.1080 307105.6000
    542    543   1      0.1229 476976.0000
    542    544   1      0.1490 334720.0000
    544    545   1      0.1400 392459.2000
    544    559   1      0.1400 392459.2000
    545    546   1      0.1400 392459.2000
    545    560   1      0.1080 307105.6000
    546    547   1      0.1400 392459.2000
    546    561   1      0.1080 307105.6000
    547    548   1      0.1490 334720.0000
    547    558   1      0.1400 392459.2000
    548    549   1      0.1229 476976.0000
    548    550   1      0.1335 410032.0000
    550    551   1      0.1449 282001.6000
    550    562   1      0.1010 363171.2000
    551    552   1      0.1529 224262.4000
    551    563   1      0.1090 284512.0000
    551    564   1      0.1090 284512.0000
    552    553   1      0.1529 224262.4000
    552    565   1      0.1090 284512.0000
    552    566   1      0.1090 284512.0000
    553    554   1      0.1529 224262.4000
    553    567   1      0.1090 284512.0000
    553    568   1      0.1090 284512.0000
    554    555   1      0.1529 224262.4000
    554    569   1      0.1090 284512.0000
    554    570   1      0.1090 284512.0000
    555    556   1      0.1529 224262.4000
    555    571   1      0.1090 284512.0000
    555    572   1      0.1090 284512.0000
    556    557   1      0.1449 282001.6000
    556    573   1      0.1090 284512.0000
    556    574   1      0.1090 284512.0000
    557    575   1      0.1010 363171.2000
    557    578   1      0.1335 410032.0000
    558    559   1      0.1400 392459.2000
    558    576   1      0.1080 307105.6000
    559    577   1      0.1080 307105.6000
    578    579   1      0.1229 476976.0000
    578    580   1      0.1490 334720.0000
    580    581   1      0.1400 392459.2000
    580    595   1      0.1400 392459.2000
    581    582   1      0.1400 392459.2000
    581    596   1      0.1080 307105.6000
    582    583   1      0.1400 392459.2000
    582    597   1      0.1080 307105.6000
    583    584   1      0.1490 334720.0000
    583    594   1      0.1400 392459.2000
    584    585   1      0.1229 476976.0000
    584    586   1      0.1335 410032.0000
    586    587   1      0.1449 282001.6000
    586    598   1      0.1010 363171.2000
    587    588   1      0.1529 224262.4000
    587    599   1      0.1090 284512.0000
    587    600   1      0.1090 284512.0000
    588    589   1      0.1529 224262.4000
    588    601   1      0.1090 284512.0000
    588    602   1      0.1090 284512.0000
    589    590   1      0.1529 224262.4000
    589    603   1      0.1090 284512.0000
    589    604   1      0.1090 284512.0000
    590    591   1      0.1529 224262.4000
    590    605   1      0.1090 284512.0000
    590    606   1      0.1090 284512.0000
    591    592   1      0.1529 224262.4000
    591    607   1      0.1090 284512.0000
    591    608   1      0.1090 284512.0000
    592    593   1      0.1449 282001.6000
    592    609   1      0.1090 284512.0000
    592    610   1      0.1090 284512.0000
    593    611   1      0.1010 363171.2000
    593    614   1      0.1335 410032.0000
    594    595   1      0.1400 392459.2000
    594    612   1      0.1080 307105.6000
    595    613   1      0.1080 307105.6000
    614    615   1      0.1229 476976.0000
    614    616   1      0.1490 334720.0000
    616    617   1      0.1400 392459.2000
    616    631   1      0.1400 392459.2000
    617    618   1      0.1400 392459.2000
    617    632   1      0.1080 307105.6000
    618    619   1      0.1400 392459.2000
    618    633   1      0.1080 307105.6000
    619    620   1      0.1490 334720.0000
    619    630   1      0.1400 392459.2000
    620    621   1      0.1229 476976.0000
    620    622   1      0.1335 410032.0000
    622    623   1      0.1449 282001.6000
    622    634   1      0.1010 363171.2000
    623    624   1      0.1529 224262.4000
    623    635   1      0.1090 284512.0000
    623    636   1      0.1090 284512.0000
    624    625   1      0.1529 224262.4000
    624    637   1      0.1090 284512.0000
    624    638   1      0.1090 284512.0000
    625    626   1      0.1529 224262.4000
    625    639   1      0.1090 284512.0000
    625    640   1      0.1090 284512.0000
    626    627   1      0.1529 224262.4000
    626    641   1      0.1090 284512.0000
    626    642   1      0.1090 284512.0000
    627    628   1      0.1529 224262.4000
    627    643   1      0.1090 284512.0000
    627    644   1      0.1090 284512.0000
    628    629   1      0.1449 282001.6000
    628    645   1      0.1090 284512.0000
    628    646   1      0.1090 284512.0000
    629    647   1      0.1010 363171.2000
    629    650   1      0.1335 410032.0000
    630    631   1      0.1400 392459.2000
    630    648   1      0.1080 307105.6000
    631    649   1      0.1080 307105.6000
    650    651   1      0.1229 476976.0000
    650    652   1      0.1490 334720.0000
    652    653   1      0.1400 392459.2000
    652    667   1      0.1400 392459.2000
    653    654   1      0.1400 392459.2000
    653    668   1      0.1080 307105.6000
    654    655   1      0.1400 392459.2000
    654    669   1      0.1080 307105.6000
    655    656   1      0.1490 334720.0000
    655    666   1      0.1400 392459.2000
    656    657   1      0.1229 476976.0000
    656    658   1      0.1335 410032.0000
    658    659   1      0.1449 282001.6000
    658    670   1      0.1010 363171.2000
    659    660   1      0.1529 224262.4000
    659    671   1      0.1090 284512.0000
    659    672   1      0.1090 284512.0000
    660    661   1      0.1529 224262.4000
    660    673   1      0.1090 284512.0000
    660    674   1      0.1090 284512.0000
    661    662   1      0.1529 224262.4000
    661    675   1      0.1090 284512.0000
    661    676   1      0.1090 284512.0000
    662    663   1      0.1529 224262.4000
    662    677   1      0.1090 284512.0000
    662    678   1      0.1090 284512.0000
    663    664   1      0.1529 224262.4000
    663    679   1      0.1090 284512.0000
    663    680   1      0.1090 284512.0000
    664    665   1      0.1449 282001.6000
    664    681   1      0.1090 284512.0000
    664    682   1      0.1090 284512.0000
    665    683   1      0.1010 363171.2000
    665    686   1      0.1335 410032.0000
    666    667   1      0.1400 392459.2000
    666    684   1      0.1080 307105.6000
    667    685   1      0.1080 307105.6000
    686    687   1      0.1229 476976.0000
    686    688   1      0.1490 334720.0000
    688    689   1      0.1400 392459.2000
    688    703   1      0.1400 392459.2000
    689    690   1      0.1400 392459.2000
    689    704   1      0.1080 307105.6000
    690    691   1      0.1400 392459.2000
    690    705   1      0.1080 307105.6000
    691    692   1      0.1490 334720.0000
    691    702   1      0.1400 392459.2000
    692    693   1      0.1229 476976.0000
    692    694   1      0.1335 410032.0000
    694    695   1      0.1449 282001.6000
    694    706   1      0.1010 363171.2000
    695    696   1      0.1529 224262.4000
    695    707   1      0.1090 284512.0000
    695    708   1      0.1090 284512.0000
    696    697   1      0.1529 224262.4000
    696    709   1      0.1090 284512.0000
    696    710   1      0.1090 284512.0000
    697    698   1      0.1529 224262.4000
    697    711   1      0.1090 284512.0000
    697    712   1      0.1090 284512.0000
    698    699   1      0.1529 224262.4000
    698    713   1      0.1090 284512.0000
    698    714   1      0.1090 284512.0000
    699    700   1      0.1529 224262.4000
    699    715   1      0.1090 284512.0000
    699    716   1      0.1090 284512.0000
    700    701   1      0.1448 319657.6000
    700    717   1      0.1090 284512.0000
    700    718   1      0.1090 284512.0000
    701    719   1      0.1010 363171.2000
    701    722   1      0.1010 363171.2000
    702    703   1      0.1400 392459.2000
    702    720   1      0.1080 307105.6000
    703    721   1      0.1080 307105.6000

[ pairs ]
; ai   aj   funct   fudge_QQ  charge_i   charge_j   c6    c12
      2      4   2   0.50000    -0.4500000   -0.1150000   1.177174e-03  1.365843e-06
      2     18   2   0.50000    -0.4500000   -0.1150000   1.177174e-03  1.365843e-06
     37      4   2   0.50000     0.0000000   -0.1150000   1.719283e-04  1.090131e-07
     37     18   2   0.50000     0.0000000   -0.1150000   1.719283e-04  1.090131e-07
      1      5   2   0.50000     0.5650000   -0.1150000   1.692561e-03  3.993218e-06
      1     19   2   0.50000     0.5650000    0.1150000   3.510079e-04  2.623353e-07
     18      5   2   0.50000    -0.1150000   -0.1150000   1.172438e-03  2.346713e-06
     18     19   2   0.50000    -0.1150000    0.1150000   2.431434e-04  1.541678e-07
      1     17   2   0.50000     0.5650000   -0.1150000   1.692561e-03  3.993218e-06
      1     36   2   0.50000     0.5650000    0.1150000   3.510079e-04  2.623353e-07
      4     17   2   0.50000    -0.1150000   -0.1150000   1.172438e-03  2.346713e-06
      4     36   2   0.50000    -0.1150000    0.1150000   2.431434e-04  1.541678e-07
      3      6   2   0.50000    -0.1150000   -0.1150000   1.172438e-03  2.346713e-06
      3     20   2   0.50000    -0.1150000    0.1150000   2.431434e-04  1.541678e-07
     19      6   2   0.50000     0.1150000   -0.1150000   2.431434e-04  1.541678e-07
     19     20   2   0.50000     0.1150000    0.1150000   5.042375e-05  1.012808e-08
      4      7   2   0.50000    -0.1150000    0.6150000   1.692561e-03  3.993218e-06
     20      7   2   0.50000     0.1150000    0.6150000   3.510079e-04  2.623353e-07
     20     17   2   0.50000     0.1150000   -0.1150000   2.431434e-04  1.541678e-07
      5      8   2   0.50000    -0.1150000   -0.5000000   1.177174e-03  1.365843e-06
      5      9   2   0.50000    -0.1150000   -0.5000000   1.401943e-03  2.153106e-06
     17      8   2   0.50000    -0.1150000   -0.5000000   1.177174e-03  1.365843e-06
     17      9   2   0.50000    -0.1150000   -0.5000000   1.401943e-03  2.153106e-06
      5     35   2   0.50000    -0.1150000    0.1150000   2.431434e-04  1.541678e-07
      7     18   2   0.50000     0.6150000   -0.1150000   1.692561e-03  3.993218e-06
      7     35   2   0.50000     0.6150000    0.1150000   3.510079e-04  2.623353e-07
      6     10   2   0.50000    -0.1150000    0.0800000   1.091018e-03  2.092768e-06
      6     21   2   0.50000    -0.1150000    0.3000000   2.144502e-06  1.199282e-11
      8     10   2   0.50000    -0.5000000    0.0800000   1.095425e-03  1.218041e-06
      8     21   2   0.50000    -0.5000000    0.3000000   2.153164e-06  6.980110e-12
      7     11   2   0.50000     0.6150000   -0.1200000   1.575021e-03  3.561100e-06
      7     22   2   0.50000     0.6150000    0.0600000   3.869820e-04  3.188634e-07
      7     23   2   0.50000     0.6150000    0.0600000   3.869820e-04  3.188634e-07
     21     11   2   0.50000     0.3000000   -0.1200000   1.995577e-06  1.069504e-11
     21     22   2   0.50000     0.3000000    0.0600000   4.903125e-07  9.576416e-13
     21     23   2   0.50000     0.3000000    0.0600000   4.903125e-07  9.576416e-13
      9     12   2   0.50000    -0.5000000   -0.1200000   1.304585e-03  1.920112e-06
      9     24   2   0.50000    -0.5000000    0.0600000   3.205360e-04  1.719281e-07
      9     25   2   0.50000    -0.5000000    0.0600000   3.205360e-04  1.719281e-07
     22     12   2   0.50000     0.0600000   -0.1200000   2.494471e-04  1.671101e-07
     22     24   2   0.50000     0.0600000    0.0600000   6.128906e-05  1.496315e-08
     22     25   2   0.50000     0.0600000    0.0600000   6.128906e-05  1.496315e-08
     23     12   2   0.50000     0.0600000   -0.1200000   2.494471e-04  1.671101e-07
     23     24   2   0.50000     0.0600000    0.0600000   6.128906e-05  1.496315e-08
     23     25   2   0.50000     0.0600000    0.0600000   6.128906e-05  1.496315e-08
     10     13   2   0.50000     0.0800000   -0.1200000   1.015252e-03  1.866303e-06
     10     26   2   0.50000     0.0800000    0.0600000   2.494471e-04  1.671101e-07
     10     27   2   0.50000     0.0800000    0.0600000   2.494471e-04  1.671101e-07
     24     13   2   0.50000     0.0600000   -0.1200000   2.494471e-04  1.671101e-07
     24     26   2   0.50000     0.0600000    0.0600000   6.128906e-05  1.496315e-08
     24     27   2   0.50000     0.0600000    0.0600000   6.128906e-05  1.496315e-08
     25     13   2   0.50000     0.0600000   -0.1200000   2.494471e-04  1.671101e-07
     25     26   2   0.50000     0.0600000    0.0600000   6.128906e-05  1.496315e-08
     25     27   2   0.50000     0.0600000    0.0600000   6.128906e-05  1.496315e-08
     11     14   2   0.50000    -0.1200000   -0.1200000   1.015252e-03  1.866303e-06
     11     28   2   0.50000    -0.1200000    0.0600000   2.494471e-04  1.671101e-07
     11     29   2   0.50000    -0.1200000    0.0600000   2.494471e-04  1.671101e-07
     26     14   2   0.50000     0.0600000   -0.1200000   2.494471e-04  1.671101e-07
     26     28   2   0.50000     0.0600000    0.0600000   6.128906e-05  1.496315e-08
     26     29   2   0.50000     0.0600000    0.0600000   6.128906e-05  1.496315e-08
     27     14   2   0.50000     0.0600000   -0.1200000   2.494471e-04  1.671101e-07
     27     28   2   0.50000     0.0600000    0.0600000   6.128906e-05  1.496315e-08
     27     29   2   0.50000     0.0600000    0.0600000   6.128906e-05  1.496315e-08
     12     15   2   0.50000    -0.1200000    0.0800000   1.015252e-03  1.866303e-06
     12     30   2   0.50000    -0.1200000    0.0600000   2.494471e-04  1.671101e-07
     12     31   2   0.50000    -0.1200000    0.0600000   2.494471e-04  1.671101e-07
     28     15   2   0.50000     0.0600000    0.0800000   2.494471e-04  1.671101e-07
     28     30   2   0.50000     0.0600000    0.0600000   6.128906e-05  1.496315e-08
     28     31   2   0.50000     0.0600000    0.0600000   6.128906e-05  1.496315e-08
     29     15   2   0.50000     0.0600000    0.0800000   2.494471e-04  1.671101e-07
     29     30   2   0.50000     0.0600000    0.0600000   6.128906e-05  1.496315e-08
     29     31   2   0.50000     0.0600000    0.0600000   6.128906e-05  1.496315e-08
     13     16   2   0.50000    -0.1200000   -0.5000000   1.304585e-03  1.920112e-06
     13     32   2   0.50000    -0.1200000    0.0600000   2.494471e-04  1.671101e-07
     13     33   2   0.50000    -0.1200000    0.0600000   2.494471e-04  1.671101e-07
     30     16   2   0.50000     0.0600000   -0.5000000   3.205360e-04  1.719281e-07
     30     32   2   0.50000     0.0600000    0.0600000   6.128906e-05  1.496315e-08
     30     33   2   0.50000     0.0600000    0.0600000   6.128906e-05  1.496315e-08
     31     16   2   0.50000     0.0600000   -0.5000000   3.205360e-04  1.719281e-07
     31     32   2   0.50000     0.0600000    0.0600000   6.128906e-05  1.496315e-08
     31     33   2   0.50000     0.0600000    0.0600000   6.128906e-05  1.496315e-08
     14     34   2   0.50000    -0.1200000    0.3000000   1.995577e-06  1.069504e-11
     14     38   2   0.50000    -0.1200000    0.6150000   1.575021e-03  3.561100e-06
     32     34   2   0.50000     0.0600000    0.3000000   4.903125e-07  9.576416e-13
     32     38   2   0.50000     0.0600000    0.6150000   3.869820e-04  3.188634e-07
     33     34   2   0.50000     0.0600000    0.3000000   4.903125e-07  9.576416e-13
     33     38   2   0.50000     0.0600000    0.6150000   3.869820e-04  3.188634e-07
     15     39   2   0.50000     0.0800000   -0.5000000   1.095425e-03  1.218041e-06
     15     40   2   0.50000     0.0800000   -0.1150000   1.091018e-03  2.092768e-06
     34     39   2   0.50000     0.3000000   -0.5000000   2.153164e-06  6.980110e-12
     34     40   2   0.50000     0.3000000   -0.1150000   2.144502e-06  1.199282e-11
      6     36   2   0.50000    -0.1150000    0.1150000   2.431434e-04  1.541678e-07
     35      3   2   0.50000     0.1150000   -0.1150000   2.431434e-04  1.541678e-07
     35     36   2   0.50000     0.1150000    0.1150000   5.042375e-05  1.012808e-08
     16     41   2   0.50000    -0.5000000   -0.1150000   1.401943e-03  2.153106e-06
     16     55   2   0.50000    -0.5000000   -0.1150000   1.401943e-03  2.153106e-06
     39     41   2   0.50000    -0.5000000   -0.1150000   1.177174e-03  1.365843e-06
     39     55   2   0.50000    -0.5000000   -0.1150000   1.177174e-03  1.365843e-06
     38     42   2   0.50000     0.6150000   -0.1150000   1.692561e-03  3.993218e-06
     38     56   2   0.50000     0.6150000    0.1150000   3.510079e-04  2.623353e-07
     55     42   2   0.50000    -0.1150000   -0.1150000   1.172438e-03  2.346713e-06
     55     56   2   0.50000    -0.1150000    0.1150000   2.431434e-04  1.541678e-07
     38     54   2   0.50000     0.6150000   -0.1150000   1.692561e-03  3.993218e-06
     38     73   2   0.50000     0.6150000    0.1150000   3.510079e-04  2.623353e-07
     41     54   2   0.50000    -0.1150000   -0.1150000   1.172438e-03  2.346713e-06
     41     73   2   0.50000    -0.1150000    0.1150000   2.431434e-04  1.541678e-07
     40     43   2   0.50000    -0.1150000   -0.1150000   1.172438e-03  2.346713e-06
     40     57   2   0.50000    -0.1150000    0.1150000   2.431434e-04  1.541678e-07
     56     43   2   0.50000     0.1150000   -0.1150000   2.431434e-04  1.541678e-07
     56     57   2   0.50000     0.1150000    0.1150000   5.042375e-05  1.012808e-08
     41     44   2   0.50000    -0.1150000    0.6150000   1.692561e-03  3.993218e-06
     57     44   2   0.50000     0.1150000    0.6150000   3.510079e-04  2.623353e-07
     57     54   2   0.50000     0.1150000   -0.1150000   2.431434e-04  1.541678e-07
     42     45   2   0.50000    -0.1150000   -0.5000000   1.177174e-03  1.365843e-06
     42     46   2   0.50000    -0.1150000   -0.5000000   1.401943e-03  2.153106e-06
     54     45   2   0.50000    -0.1150000   -0.5000000   1.177174e-03  1.365843e-06
     54     46   2   0.50000    -0.1150000   -0.5000000   1.401943e-03  2.153106e-06
     42     72   2   0.50000    -0.1150000    0.1150000   2.431434e-04  1.541678e-07
     44     55   2   0.50000     0.6150000   -0.1150000   1.692561e-03  3.993218e-06
     44     72   2   0.50000     0.6150000    0.1150000   3.510079e-04  2.623353e-07
     43     47   2   0.50000    -0.1150000    0.0800000   1.091018e-03  2.092768e-06
     43     58   2   0.50000    -0.1150000    0.3000000   2.144502e-06  1.199282e-11
     45     47   2   0.50000    -0.5000000    0.0800000   1.095425e-03  1.218041e-06
     45     58   2   0.50000    -0.5000000    0.3000000   2.153164e-06  6.980110e-12
     44     48   2   0.50000     0.6150000   -0.1200000   1.575021e-03  3.561100e-06
     44     59   2   0.50000     0.6150000    0.0600000   3.869820e-04  3.188634e-07
     44     60   2   0.50000     0.6150000    0.0600000   3.869820e-04  3.188634e-07
     58     48   2   0.50000     0.3000000   -0.1200000   1.995577e-06  1.069504e-11
     58     59   2   0.50000     0.3000000    0.0600000   4.903125e-07  9.576416e-13
     58     60   2   0.50000     0.3000000    0.0600000   4.903125e-07  9.576416e-13
     46     49   2   0.50000    -0.5000000   -0.1200000   1.304585e-03  1.920112e-06
     46     61   2   0.50000    -0.5000000    0.0600000   3.205360e-04  1.719281e-07
     46     62   2   0.50000    -0.5000000    0.0600000   3.205360e-04  1.719281e-07
     59     49   2   0.50000     0.0600000   -0.1200000   2.494471e-04  1.671101e-07
     59     61   2   0.50000     0.0600000    0.0600000   6.128906e-05  1.496315e-08
     59     62   2   0.50000     0.0600000    0.0600000   6.128906e-05  1.496315e-08
     60     49   2   0.50000     0.0600000   -0.1200000   2.494471e-04  1.671101e-07
     60     61   2   0.50000     0.0600000    0.0600000   6.128906e-05  1.496315e-08
     60     62   2   0.50000     0.0600000    0.0600000   6.128906e-05  1.496315e-08
     47     50   2   0.50000     0.0800000   -0.1200000   1.015252e-03  1.866303e-06
     47     63   2   0.50000     0.0800000    0.0600000   2.494471e-04  1.671101e-07
     47     64   2   0.50000     0.0800000    0.0600000   2.494471e-04  1.671101e-07
     61     50   2   0.50000     0.0600000   -0.1200000   2.494471e-04  1.671101e-07
     61     63   2   0.50000     0.0600000    0.0600000   6.128906e-05  1.496315e-08
     61     64   2   0.50000     0.0600000    0.0600000   6.128906e-05  1.496315e-08
     62     50   2   0.50000     0.0600000   -0.1200000   2.494471e-04  1.671101e-07
     62     63   2   0.50000     0.0600000    0.0600000   6.128906e-05  1.496315e-08
     62     64   2   0.50000     0.0600000    0.0600000   6.128906e-05  1.496315e-08
     48     51   2   0.50000    -0.1200000   -0.1200000   1.015252e-03  1.866303e-06
     48     65   2   0.50000    -0.1200000    0.0600000   2.494471e-04  1.671101e-07
     48     66   2   0.50000    -0.1200000    0.0600000   2.494471e-04  1.671101e-07
     63     51   2   0.50000     0.0600000   -0.1200000   2.494471e-04  1.671101e-07
     63     65   2   0.50000     0.0600000    0.0600000   6.128906e-05  1.496315e-08
     63     66   2   0.50000     0.0600000    0.0600000   6.128906e-05  1.496315e-08
     64     51   2   0.50000     0.0600000   -0.1200000   2.494471e-04  1.671101e-07
     64     65   2   0.50000     0.0600000    0.0600000   6.128906e-05  1.496315e-08
     64     66   2   0.50000     0.0600000    0.0600000   6.128906e-05  1.496315e-08
     49     52   2   0.50000    -0.1200000    0.0800000   1.015252e-03  1.866303e-06
     49     67   2   0.50000    -0.1200000    0.0600000   2.494471e-04  1.671101e-07
     49     68   2   0.50000    -0.1200000    0.0600000   2.494471e-04  1.671101e-07
     65     52   2   0.50000     0.0600000    0.0800000   2.494471e-04  1.671101e-07
     65     67   2   0.50000     0.0600000    0.0600000   6.128906e-05  1.496315e-08
     65     68   2   0.50000     0.0600000    0.0600000   6.128906e-05  1.496315e-08
     66     52   2   0.50000     0.0600000    0.0800000   2.494471e-04  1.671101e-07
     66     67   2   0.50000     0.0600000    0.0600000   6.128906e-05  1.496315e-08
     66     68   2   0.50000     0.0600000    0.0600000   6.128906e-05  1.496315e-08
     50     53   2   0.50000    -0.1200000   -0.5000000   1.304585e-03  1.920112e-06
     50     69   2   0.50000    -0.1200000    0.0600000   2.494471e-04  1.671101e-07
     50     70   2   0.50000    -0.1200000    0.0600000   2.494471e-04  1.671101e-07
     67     53   2   0.50000     0.0600000   -0.5000000   3.205360e-04  1.719281e-07
     67     69   2   0.50000     0.0600000    0.0600000   6.128906e-05  1.496315e-08
     67     70   2   0.50000     0.0600000    0.0600000   6.128906e-05  1.496315e-08
     68     53   2   0.50000     0.0600000   -0.5000000   3.205360e-04  1.719281e-07
     68     69   2   0.50000     0.0600000    0.0600000   6.128906e-05  1.496315e-08
     68     70   2   0.50000     0.0600000    0.0600000   6.128906e-05  1.496315e-08
     51     71   2   0.50000    -0.1200000    0.3000000   1.995577e-06  1.069504e-11
     51     74   2   0.50000    -0.1200000    0.6150000   1.575021e-03  3.561100e-06
     69     71   2   0.50000     0.0600000    0.3000000   4.903125e-07  9.576416e-13
     69     74   2   0.50000     0.0600000    0.6150000   3.869820e-04  3.188634e-07
     70     71   2   0.50000     0.0600000    0.3000000   4.903125e-07  9.576416e-13
     70     74   2   0.50000     0.0600000    0.6150000   3.869820e-04  3.188634e-07
     52     75   2   0.50000     0.0800000   -0.5000000   1.095425e-03  1.218041e-06
     52     76   2   0.50000     0.0800000   -0.1150000   1.091018e-03  2.092768e-06
     71     75   2   0.50000     0.3000000   -0.5000000   2.153164e-06  6.980110e-12
     71     76   2   0.50000     0.3000000   -0.1150000   2.144502e-06  1.199282e-11
     43     73   2   0.50000    -0.1150000    0.1150000   2.431434e-04  1.541678e-07
     72     40   2   0.50000     0.1150000   -0.1150000   2.431434e-04  1.541678e-07
     72     73   2   0.50000     0.1150000    0.1150000   5.042375e-05  1.012808e-08
     53     77   2   0.50000    -0.5000000   -0.1150000   1.401943e-03  2.153106e-06
     53     91   2   0.50000    -0.5000000   -0.1150000   1.401943e-03  2.153106e-06
     75     77   2   0.50000    -0.5000000   -0.1150000   1.177174e-03  1.365843e-06
     75     91   2   0.50000    -0.5000000   -0.1150000   1.177174e-03  1.365843e-06
     74     78   2   0.50000     0.6150000   -0.1150000   1.692561e-03  3.993218e-06
     74     92   2   0.50000     0.6150000    0.1150000   3.510079e-04  2.623353e-07
     91     78   2   0.50000    -0.1150000   -0.1150000   1.172438e-03  2.346713e-06
     91     92   2   0.50000    -0.1150000    0.1150000   2.431434e-04  1.541678e-07
     74     90   2   0.50000     0.6150000   -0.1150000   1.692561e-03  3.993218e-06
     74    109   2   0.50000     0.6150000    0.1150000   3.510079e-04  2.623353e-07
     77     90   2   0.50000    -0.1150000   -0.1150000   1.172438e-03  2.346713e-06
     77    109   2   0.50000    -0.1150000    0.1150000   2.431434e-04  1.541678e-07
     76     79   2   0.50000    -0.1150000   -0.1150000   1.172438e-03  2.346713e-06
     76     93   2   0.50000    -0.1150000    0.1150000   2.431434e-04  1.541678e-07
     92     79   2   0.50000     0.1150000   -0.1150000   2.431434e-04  1.541678e-07
     92     93   2   0.50000     0.1150000    0.1150000   5.042375e-05  1.012808e-08
     77     80   2   0.50000    -0.1150000    0.6150000   1.692561e-03  3.993218e-06
     93     80   2   0.50000     0.1150000    0.6150000   3.510079e-04  2.623353e-07
     93     90   2   0.50000     0.1150000   -0.1150000   2.431434e-04  1.541678e-07
     78     81   2   0.50000    -0.1150000   -0.5000000   1.177174e-03  1.365843e-06
     78     82   2   0.50000    -0.1150000   -0.5000000   1.401943e-03  2.153106e-06
     90     81   2   0.50000    -0.1150000   -0.5000000   1.177174e-03  1.365843e-06
     90     82   2   0.50000    -0.1150000   -0.5000000   1.401943e-03  2.153106e-06
     78    108   2   0.50000    -0.1150000    0.1150000   2.431434e-04  1.541678e-07
     80     91   2   0.50000     0.6150000   -0.1150000   1.692561e-03  3.993218e-06
     80    108   2   0.50000     0.6150000    0.1150000   3.510079e-04  2.623353e-07
     79     83   2   0.50000    -0.1150000    0.0800000   1.091018e-03  2.092768e-06
     79     94   2   0.50000    -0.1150000    0.3000000   2.144502e-06  1.199282e-11
     81     83   2   0.50000    -0.5000000    0.0800000   1.095425e-03  1.218041e-06
     81     94   2   0.50000    -0.5000000    0.3000000   2.153164e-06  6.980110e-12
     80     84   2   0.50000     0.6150000   -0.1200000   1.575021e-03  3.561100e-06
     80     95   2   0.50000     0.6150000    0.0600000   3.869820e-04  3.188634e-07
     80     96   2   0.50000     0.6150000    0.0600000   3.869820e-04  3.188634e-07
     94     84   2   0.50000     0.3000000   -0.1200000   1.995577e-06  1.069504e-11
     94     95   2   0.50000     0.3000000    0.0600000   4.903125e-07  9.576416e-13
     94     96   2   0.50000     0.3000000    0.0600000   4.903125e-07  9.576416e-13
     82     85   2   0.50000    -0.5000000   -0.1200000   1.304585e-03  1.920112e-06
     82     97   2   0.50000    -0.5000000    0.0600000   3.205360e-04  1.719281e-07
     82     98   2   0.50000    -0.5000000    0.0600000   3.205360e-04  1.719281e-07
     95     85   2   0.50000     0.0600000   -0.1200000   2.494471e-04  1.671101e-07
     95     97   2   0.50000     0.0600000    0.0600000   6.128906e-05  1.496315e-08
     95     98   2   0.50000     0.0600000    0.0600000   6.128906e-05  1.496315e-08
     96     85   2   0.50000     0.0600000   -0.1200000   2.494471e-04  1.671101e-07
     96     97   2   0.50000     0.0600000    0.0600000   6.128906e-05  1.496315e-08
     96     98   2   0.50000     0.0600000    0.0600000   6.128906e-05  1.496315e-08
     83     86   2   0.50000     0.0800000   -0.1200000   1.015252e-03  1.866303e-06
     83     99   2   0.50000     0.0800000    0.0600000   2.494471e-04  1.671101e-07
     83    100   2   0.50000     0.0800000    0.0600000   2.494471e-04  1.671101e-07
     97     86   2   0.50000     0.0600000   -0.1200000   2.494471e-04  1.671101e-07
     97     99   2   0.50000     0.0600000    0.0600000   6.128906e-05  1.496315e-08
     97    100   2   0.50000     0.0600000    0.0600000   6.128906e-05  1.496315e-08
     98     86   2   0.50000     0.0600000   -0.1200000   2.494471e-04  1.671101e-07
     98     99   2   0.50000     0.0600000    0.0600000   6.128906e-05  1.496315e-08
     98    100   2   0.50000     0.0600000    0.0600000   6.128906e-05  1.496315e-08
     84     87   2   0.50000    -0.1200000   -0.1200000   1.015252e-03  1.866303e-06
     84    101   2   0.50000    -0.1200000    0.0600000   2.494471e-04  1.671101e-07
     84    102   2   0.50000    -0.1200000    0.0600000   2.494471e-04  1.671101e-07
     99     87   2   0.50000     0.0600000   -0.1200000   2.494471e-04  1.671101e-07
     99    101   2   0.50000     0.0600000    0.0600000   6.128906e-05  1.496315e-08
     99    102   2   0.50000     0.0600000    0.0600000   6.128906e-05  1.496315e-08
    100     87   2   0.50000     0.0600000   -0.1200000   2.494471e-04  1.671101e-07
    100    101   2   0.50000     0.0600000    0.0600000   6.128906e-05  1.496315e-08
    100    102   2   0.50000     0.0600000    0.0600000   6.128906e-05  1.496315e-08
     85     88   2   0.50000    -0.1200000    0.0800000   1.015252e-03  1.866303e-06
     85    103   2   0.50000    -0.1200000    0.0600000   2.494471e-04  1.671101e-07
     85    104   2   0.50000    -0.1200000    0.0600000   2.494471e-04  1.671101e-07
    101     88   2   0.50000     0.0600000    0.0800000   2.494471e-04  1.671101e-07
    101    103   2   0.50000     0.0600000    0.0600000   6.128906e-05  1.496315e-08
    101    104   2   0.50000     0.0600000    0.0600000   6.128906e-05  1.496315e-08
    102     88   2   0.50000     0.0600000    0.0800000   2.494471e-04  1.671101e-07
    102    103   2   0.50000     0.0600000    0.0600000   6.128906e-05  1.496315e-08
    102    104   2   0.50000     0.0600000    0.0600000   6.128906e-05  1.496315e-08
     86     89   2   0.50000    -0.1200000   -0.5000000   1.304585e-03  1.920112e-06
     86    105   2   0.50000    -0.1200000    0.0600000   2.494471e-04  1.671101e-07
     86    106   2   0.50000    -0.1200000    0.0600000   2.494471e-04  1.671101e-07
    103     89   2   0.50000     0.0600000   -0.5000000   3.205360e-04  1.719281e-07
    103    105   2   0.50000     0.0600000    0.0600000   6.128906e-05  1.496315e-08
    103    106   2   0.50000     0.0600000    0.0600000   6.128906e-05  1.496315e-08
    104     89   2   0.50000     0.0600000   -0.5000000   3.205360e-04  1.719281e-07
    104    105   2   0.50000     0.0600000    0.0600000   6.128906e-05  1.496315e-08
    104    106   2   0.50000     0.0600000    0.0600000   6.128906e-05  1.496315e-08
     87    107   2   0.50000    -0.1200000    0.3000000   1.995577e-06  1.069504e-11
     87    110   2   0.50000    -0.1200000    0.6150000   1.575021e-03  3.561100e-06
    105    107   2   0.50000     0.0600000    0.3000000   4.903125e-07  9.576416e-13
    105    110   2   0.50000     0.0600000    0.6150000   3.869820e-04  3.188634e-07
    106    107   2   0.50000     0.0600000    0.3000000   4.903125e-07  9.576416e-13
    106    110   2   0.50000     0.0600000    0.6150000   3.869820e-04  3.188634e-07
     88    111   2   0.50000     0.0800000   -0.5000000   1.095425e-03  1.218041e-06
     88    112   2   0.50000     0.0800000   -0.1150000   1.091018e-03  2.092768e-06
    107    111   2   0.50000     0.3000000   -0.5000000   2.153164e-06  6.980110e-12
    107    112   2   0.50000     0.3000000   -0.1150000   2.144502e-06  1.199282e-11
     79    109   2   0.50000    -0.1150000    0.1150000   2.431434e-04  1.541678e-07
    108     76   2   0.50000     0.1150000   -0.1150000   2.431434e-04  1.541678e-07
    108    109   2   0.50000     0.1150000    0.1150000   5.042375e-05  1.012808e-08
     89    113   2   0.50000    -0.5000000   -0.1150000   1.401943e-03  2.153106e-06
     89    127   2   0.50000    -0.5000000   -0.1150000   1.401943e-03  2.153106e-06
    111    113   2   0.50000    -0.5000000   -0.1150000   1.177174e-03  1.365843e-06
    111    127   2   0.50000    -0.5000000   -0.1150000   1.177174e-03  1.365843e-06
    110    114   2   0.50000     0.6150000   -0.1150000   1.692561e-03  3.993218e-06
    110    128   2   0.50000     0.6150000    0.1150000   3.510079e-04  2.623353e-07
    127    114   2   0.50000    -0.1150000   -0.1150000   1.172438e-03  2.346713e-06
    127    128   2   0.50000    -0.1150000    0.1150000   2.431434e-04  1.541678e-07
    110    126   2   0.50000     0.6150000   -0.1150000   1.692561e-03  3.993218e-06
    110    145   2   0.50000     0.6150000    0.1150000   3.510079e-04  2.623353e-07
    113    126   2   0.50000    -0.1150000   -0.1150000   1.172438e-03  2.346713e-06
    113    145   2   0.50000    -0.1150000    0.1150000   2.431434e-04  1.541678e-07
    112    115   2   0.50000    -0.1150000   -0.1150000   1.172438e-03  2.346713e-06
    112    129   2   0.50000    -0.1150000    0.1150000   2.431434e-04  1.541678e-07
    128    115   2   0.50000     0.1150000   -0.1150000   2.431434e-04  1.541678e-07
    128    129   2   0.50000     0.1150000    0.1150000   5.042375e-05  1.012808e-08
    113    116   2   0.50000    -0.1150000    0.6150000   1.692561e-03  3.993218e-06
    129    116   2   0.50000     0.1150000    0.6150000   3.510079e-04  2.623353e-07
    129    126   2   0.50000     0.1150000   -0.1150000   2.431434e-04  1.541678e-07
    114    117   2   0.50000    -0.1150000   -0.5000000   1.177174e-03  1.365843e-06
    114    118   2   0.50000    -0.1150000   -0.5000000   1.401943e-03  2.153106e-06
    126    117   2   0.50000    -0.1150000   -0.5000000   1.177174e-03  1.365843e-06
    126    118   2   0.50000    -0.1150000   -0.5000000   1.401943e-03  2.153106e-06
    114    144   2   0.50000    -0.1150000    0.1150000   2.431434e-04  1.541678e-07
    116    127   2   0.50000     0.6150000   -0.1150000   1.692561e-03  3.993218e-06
    116    144   2   0.50000     0.6150000    0.1150000   3.510079e-04  2.623353e-07
    115    119   2   0.50000    -0.1150000    0.0800000   1.091018e-03  2.092768e-06
    115    130   2   0.50000    -0.1150000    0.3000000   2.144502e-06  1.199282e-11
    117    119   2   0.50000    -0.5000000    0.0800000   1.095425e-03  1.218041e-06
    117    130   2   0.50000    -0.5000000    0.3000000   2.153164e-06  6.980110e-12
    116    120   2   0.50000     0.6150000   -0.1200000   1.575021e-03  3.561100e-06
    116    131   2   0.50000     0.6150000    0.0600000   3.869820e-04  3.188634e-07
    116    132   2   0.50000     0.6150000    0.0600000   3.869820e-04  3.188634e-07
    130    120   2   0.50000     0.3000000   -0.1200000   1.995577e-06  1.069504e-11
    130    131   2   0.50000     0.3000000    0.0600000   4.903125e-07  9.576416e-13
    130    132   2   0.50000     0.3000000    0.0600000   4.903125e-07  9.576416e-13
    118    121   2   0.50000    -0.5000000   -0.1200000   1.304585e-03  1.920112e-06
    118    133   2   0.50000    -0.5000000    0.0600000   3.205360e-04  1.719281e-07
    118    134   2   0.50000    -0.5000000    0.0600000   3.205360e-04  1.719281e-07
    131    121   2   0.50000     0.0600000   -0.1200000   2.494471e-04  1.671101e-07
    131    133   2   0.50000     0.0600000    0.0600000   6.128906e-05  1.496315e-08
    131    134   2   0.50000     0.0600000    0.0600000   6.128906e-05  1.496315e-08
    132    121   2   0.50000     0.0600000   -0.1200000   2.494471e-04  1.671101e-07
    132    133   2   0.50000     0.0600000    0.0600000   6.128906e-05  1.496315e-08
    132    134   2   0.50000     0.0600000    0.0600000   6.128906e-05  1.496315e-08
    119    122   2   0.50000     0.0800000   -0.1200000   1.015252e-03  1.866303e-06
    119    135   2   0.50000     0.0800000    0.0600000   2.494471e-04  1.671101e-07
    119    136   2   0.50000     0.0800000    0.0600000   2.494471e-04  1.671101e-07
    133    122   2   0.50000     0.0600000   -0.1200000   2.494471e-04  1.671101e-07
    133    135   2   0.50000     0.0600000    0.0600000   6.128906e-05  1.496315e-08
    133    136   2   0.50000     0.0600000    0.0600000   6.128906e-05  1.496315e-08
    134    122   2   0.50000     0.0600000   -0.1200000   2.494471e-04  1.671101e-07
    134    135   2   0.50000     0.0600000    0.0600000   6.128906e-05  1.496315e-08
    134    136   2   0.50000     0.0600000    0.0600000   6.128906e-05  1.496315e-08
    120    123   2   0.50000    -0.1200000   -0.1200000   1.015252e-03  1.866303e-06
    120    137   2   0.50000    -0.1200000    0.0600000   2.494471e-04  1.671101e-07
    120    138   2   0.50000    -0.1200000    0.0600000   2.494471e-04  1.671101e-07
    135    123   2   0.50000     0.0600000   -0.1200000   2.494471e-04  1.671101e-07
    135    137   2   0.50000     0.0600000    0.0600000   6.128906e-05  1.496315e-08
    135    138   2   0.50000     0.0600000    0.0600000   6.128906e-05  1.496315e-08
    136    123   2   0.50000     0.0600000   -0.1200000   2.494471e-04  1.671101e-07
    136    137   2   0.50000     0.0600000    0.0600000   6.128906e-05  1.496315e-08
    136    138   2   0.50000     0.0600000    0.0600000   6.128906e-05  1.496315e-08
    121    124   2   0.50000    -0.1200000    0.0800000   1.015252e-03  1.866303e-06
    121    139   2   0.50000    -0.1200000    0.0600000   2.494471e-04  1.671101e-07
    121    140   2   0.50000    -0.1200000    0.0600000   2.494471e-04  1.671101e-07
    137    124   2   0.50000     0.0600000    0.0800000   2.494471e-04  1.671101e-07
    137    139   2   0.50000     0.0600000    0.0600000   6.128906e-05  1.496315e-08
    137    140   2   0.50000     0.0600000    0.0600000   6.128906e-05  1.496315e-08
    138    124   2   0.50000     0.0600000    0.0800000   2.494471e-04  1.671101e-07
    138    139   2   0.50000     0.0600000    0.0600000   6.128906e-05  1.496315e-08
    138    140   2   0.50000     0.0600000    0.0600000   6.128906e-05  1.496315e-08
    122    125   2   0.50000    -0.1200000   -0.5000000   1.304585e-03  1.920112e-06
    122    141   2   0.50000    -0.1200000    0.0600000   2.494471e-04  1.671101e-07
    122    142   2   0.50000    -0.1200000    0.0600000   2.494471e-04  1.671101e-07
    139    125   2   0.50000     0.0600000   -0.5000000   3.205360e-04  1.719281e-07
    139    141   2   0.50000     0.0600000    0.0600000   6.128906e-05  1.496315e-08
    139    142   2   0.50000     0.0600000    0.0600000   6.128906e-05  1.496315e-08
    140    125   2   0.50000     0.0600000   -0.5000000   3.205360e-04  1.719281e-07
    140    141   2   0.50000     0.0600000    0.0600000   6.128906e-05  1.496315e-08
    140    142   2   0.50000     0.0600000    0.0600000   6.128906e-05  1.496315e-08
    123    143   2   0.50000    -0.1200000    0.3000000   1.995577e-06  1.069504e-11
    123    146   2   0.50000    -0.1200000    0.6150000   1.575021e-03  3.561100e-06
    141    143   2   0.50000     0.0600000    0.3000000   4.903125e-07  9.576416e-13
    141    146   2   0.50000     0.0600000    0.6150000   3.869820e-04  3.188634e-07
    142    143   2   0.50000     0.0600000    0.3000000   4.903125e-07  9.576416e-13
    142    146   2   0.50000     0.0600000    0.6150000   3.869820e-04  3.188634e-07
    124    147   2   0.50000     0.0800000   -0.5000000   1.095425e-03  1.218041e-06
    124    148   2   0.50000     0.0800000   -0.1150000   1.091018e-03  2.092768e-06
    143    147   2   0.50000     0.3000000   -0.5000000   2.153164e-06  6.980110e-12
    143    148   2   0.50000     0.3000000   -0.1150000   2.144502e-06  1.199282e-11
    115    145   2   0.50000    -0.1150000    0.1150000   2.431434e-04  1.541678e-07
    144    112   2   0.50000     0.1150000   -0.1150000   2.431434e-04  1.541678e-07
    144    145   2   0.50000     0.1150000    0.1150000   5.042375e-05  1.012808e-08
    125    149   2   0.50000    -0.5000000   -0.1150000   1.401943e-03  2.153106e-06
    125    163   2   0.50000    -0.5000000   -0.1150000   1.401943e-03  2.153106e-06
    147    149   2   0.50000    -0.5000000   -0.1150000   1.177174e-03  1.365843e-06
    147    163   2   0.50000    -0.5000000   -0.1150000   1.177174e-03  1.365843e-06
    146    150   2   0.50000     0.6150000   -0.1150000   1.692561e-03  3.993218e-06
    146    164   2   0.50000     0.6150000    0.1150000   3.510079e-04  2.623353e-07
    163    150   2   0.50000    -0.1150000   -0.1150000   1.172438e-03  2.346713e-06
    163    164   2   0.50000    -0.1150000    0.1150000   2.431434e-04  1.541678e-07
    146    162   2   0.50000     0.6150000   -0.1150000   1.692561e-03  3.993218e-06
    146    181   2   0.50000     0.6150000    0.1150000   3.510079e-04  2.623353e-07
    149    162   2   0.50000    -0.1150000   -0.1150000   1.172438e-03  2.346713e-06
    149    181   2   0.50000    -0.1150000    0.1150000   2.431434e-04  1.541678e-07
    148    151   2   0.50000    -0.1150000   -0.1150000   1.172438e-03  2.346713e-06
    148    165   2   0.50000    -0.1150000    0.1150000   2.431434e-04  1.541678e-07
    164    151   2   0.50000     0.1150000   -0.1150000   2.431434e-04  1.541678e-07
    164    165   2   0.50000     0.1150000    0.1150000   5.042375e-05  1.012808e-08
    149    152   2   0.50000    -0.1150000    0.6150000   1.692561e-03  3.993218e-06
    165    152   2   0.50000     0.1150000    0.6150000   3.510079e-04  2.623353e-07
    165    162   2   0.50000     0.1150000   -0.1150000   2.431434e-04  1.541678e-07
    150    153   2   0.50000    -0.1150000   -0.5000000   1.177174e-03  1.365843e-06
    150    154   2   0.50000    -0.1150000   -0.5000000   1.401943e-03  2.153106e-06
    162    153   2   0.50000    -0.1150000   -0.5000000   1.177174e-03  1.365843e-06
    162    154   2   0.50000    -0.1150000   -0.5000000   1.401943e-03  2.153106e-06
    150    180   2   0.50000    -0.1150000    0.1150000   2.431434e-04  1.541678e-07
    152    163   2   0.50000     0.6150000   -0.1150000   1.692561e-03  3.993218e-06
    152    180   2   0.50000     0.6150000    0.1150000   3.510079e-04  2.623353e-07
    151    155   2   0.50000    -0.1150000    0.0800000   1.091018e-03  2.092768e-06
    151    166   2   0.50000    -0.1150000    0.3000000   2.144502e-06  1.199282e-11
    153    155   2   0.50000    -0.5000000    0.0800000   1.095425e-03  1.218041e-06
    153    166   2   0.50000    -0.5000000    0.3000000   2.153164e-06  6.980110e-12
    152    156   2   0.50000     0.6150000   -0.1200000   1.575021e-03  3.561100e-06
    152    167   2   0.50000     0.6150000    0.0600000   3.869820e-04  3.188634e-07
    152    168   2   0.50000     0.6150000    0.0600000   3.869820e-04  3.188634e-07
    166    156   2   0.50000     0.3000000   -0.1200000   1.995577e-06  1.069504e-11
    166    167   2   0.50000     0.3000000    0.0600000   4.903125e-07  9.576416e-13
    166    168   2   0.50000     0.3000000    0.0600000   4.903125e-07  9.576416e-13
    154    157   2   0.50000    -0.5000000   -0.1200000   1.304585e-03  1.920112e-06
    154    169   2   0.50000    -0.5000000    0.0600000   3.205360e-04  1.719281e-07
    154    170   2   0.50000    -0.5000000    0.0600000   3.205360e-04  1.719281e-07
    167    157   2   0.50000     0.0600000   -0.1200000   2.494471e-04  1.671101e-07
    167    169   2   0.50000     0.0600000    0.0600000   6.128906e-05  1.496315e-08
    167    170   2   0.50000     0.0600000    0.0600000   6.128906e-05  1.496315e-08
    168    157   2   0.50000     0.0600000   -0.1200000   2.494471e-04  1.671101e-07
    168    169   2   0.50000     0.0600000    0.0600000   6.128906e-05  1.496315e-08
    168    170   2   0.50000     0.0600000    0.0600000   6.128906e-05  1.496315e-08
    155    158   2   0.50000     0.0800000   -0.1200000   1.015252e-03  1.866303e-06
    155    171   2   0.50000     0.0800000    0.0600000   2.494471e-04  1.671101e-07
    155    172   2   0.50000     0.0800000    0.0600000   2.494471e-04  1.671101e-07
    169    158   2   0.50000     0.0600000   -0.1200000   2.494471e-04  1.671101e-07
    169    171   2   0.50000     0.0600000    0.0600000   6.128906e-05  1.496315e-08
    169    172   2   0.50000     0.0600000    0.0600000   6.128906e-05  1.496315e-08
    170    158   2   0.50000     0.0600000   -0.1200000   2.494471e-04  1.671101e-07
    170    171   2   0.50000     0.0600000    0.0600000   6.128906e-05  1.496315e-08
    170    172   2   0.50000     0.0600000    0.0600000   6.128906e-05  1.496315e-08
    156    159   2   0.50000    -0.1200000   -0.1200000   1.015252e-03  1.866303e-06
    156    173   2   0.50000    -0.1200000    0.0600000   2.494471e-04  1.671101e-07
    156    174   2   0.50000    -0.1200000    0.0600000   2.494471e-04  1.671101e-07
    171    159   2   0.50000     0.0600000   -0.1200000   2.494471e-04  1.671101e-07
    171    173   2   0.50000     0.0600000    0.0600000   6.128906e-05  1.496315e-08
    171    174   2   0.50000     0.0600000    0.0600000   6.128906e-05  1.496315e-08
    172    159   2   0.50000     0.0600000   -0.1200000   2.494471e-04  1.671101e-07
    172    173   2   0.50000     0.0600000    0.0600000   6.128906e-05  1.496315e-08
    172    174   2   0.50000     0.0600000    0.0600000   6.128906e-05  1.496315e-08
    157    160   2   0.50000    -0.1200000    0.0800000   1.015252e-03  1.866303e-06
    157    175   2   0.50000    -0.1200000    0.0600000   2.494471e-04  1.671101e-07
    157    176   2   0.50000    -0.1200000    0.0600000   2.494471e-04  1.671101e-07
    173    160   2   0.50000     0.0600000    0.0800000   2.494471e-04  1.671101e-07
    173    175   2   0.50000     0.0600000    0.0600000   6.128906e-05  1.496315e-08
    173    176   2   0.50000     0.0600000    0.0600000   6.128906e-05  1.496315e-08
    174    160   2   0.50000     0.0600000    0.0800000   2.494471e-04  1.671101e-07
    174    175   2   0.50000     0.0600000    0.0600000   6.128906e-05  1.496315e-08
    174    176   2   0.50000     0.0600000    0.0600000   6.128906e-05  1.496315e-08
    158    161   2   0.50000    -0.1200000   -0.5000000   1.304585e-03  1.920112e-06
    158    177   2   0.50000    -0.1200000    0.0600000   2.494471e-04  1.671101e-07
    158    178   2   0.50000    -0.1200000    0.0600000   2.494471e-04  1.671101e-07
    175    161   2   0.50000     0.0600000   -0.5000000   3.205360e-04  1.719281e-07
    175    177   2   0.50000     0.0600000    0.0600000   6.128906e-05  1.496315e-08
    175    178   2   0.50000     0.0600000    0.0600000   6.128906e-05  1.496315e-08
    176    161   2   0.50000     0.0600000   -0.5000000   3.205360e-04  1.719281e-07
    176    177   2   0.50000     0.0600000    0.0600000   6.128906e-05  1.496315e-08
    176    178   2   0.50000     0.0600000    0.0600000   6.128906e-05  1.496315e-08
    159    179   2   0.50000    -0.1200000    0.3000000   1.995577e-06  1.069504e-11
    159    182   2   0.50000    -0.1200000    0.6150000   1.575021e-03  3.561100e-06
    177    179   2   0.50000     0.0600000    0.3000000   4.903125e-07  9.576416e-13
    177    182   2   0.50000     0.0600000    0.6150000   3.869820e-04  3.188634e-07
    178    179   2   0.50000     0.0600000    0.3000000   4.903125e-07  9.576416e-13
    178    182   2   0.50000     0.0600000    0.6150000   3.869820e-04  3.188634e-07
    160    183   2   0.50000     0.0800000   -0.5000000   1.095425e-03  1.218041e-06
    160    184   2   0.50000     0.0800000   -0.1150000   1.091018e-03  2.092768e-06
    179    183   2   0.50000     0.3000000   -0.5000000   2.153164e-06  6.980110e-12
    179    184   2   0.50000     0.3000000   -0.1150000   2.144502e-06  1.199282e-11
    151    181   2   0.50000    -0.1150000    0.1150000   2.431434e-04  1.541678e-07
    180    148   2   0.50000     0.1150000   -0.1150000   2.431434e-04  1.541678e-07
    180    181   2   0.50000     0.1150000    0.1150000   5.042375e-05  1.012808e-08
    161    185   2   0.50000    -0.5000000   -0.1150000   1.401943e-03  2.153106e-06
    161    199   2   0.50000    -0.5000000   -0.1150000   1.401943e-03  2.153106e-06
    183    185   2   0.50000    -0.5000000   -0.1150000   1.177174e-03  1.365843e-06
    183    199   2   0.50000    -0.5000000   -0.1150000   1.177174e-03  1.365843e-06
    182    186   2   0.50000     0.6150000   -0.1150000   1.692561e-03  3.993218e-06
    182    200   2   0.50000     0.6150000    0.1150000   3.510079e-04  2.623353e-07
    199    186   2   0.50000    -0.1150000   -0.1150000   1.172438e-03  2.346713e-06
    199    200   2   0.50000    -0.1150000    0.1150000   2.431434e-04  1.541678e-07
    182    198   2   0.50000     0.6150000   -0.1150000   1.692561e-03  3.993218e-06
    182    217   2   0.50000     0.6150000    0.1150000   3.510079e-04  2.623353e-07
    185    198   2   0.50000    -0.1150000   -0.1150000   1.172438e-03  2.346713e-06
    185    217   2   0.50000    -0.1150000    0.1150000   2.431434e-04  1.541678e-07
    184    187   2   0.50000    -0.1150000   -0.1150000   1.172438e-03  2.346713e-06
    184    201   2   0.50000    -0.1150000    0.1150000   2.431434e-04  1.541678e-07
    200    187   2   0.50000     0.1150000   -0.1150000   2.431434e-04  1.541678e-07
    200    201   2   0.50000     0.1150000    0.1150000   5.042375e-05  1.012808e-08
    185    188   2   0.50000    -0.1150000    0.6150000   1.692561e-03  3.993218e-06
    201    188   2   0.50000     0.1150000    0.6150000   3.510079e-04  2.623353e-07
    201    198   2   0.50000     0.1150000   -0.1150000   2.431434e-04  1.541678e-07
    186    189   2   0.50000    -0.1150000   -0.5000000   1.177174e-03  1.365843e-06
    186    190   2   0.50000    -0.1150000   -0.5000000   1.401943e-03  2.153106e-06
    198    189   2   0.50000    -0.1150000   -0.5000000   1.177174e-03  1.365843e-06
    198    190   2   0.50000    -0.1150000   -0.5000000   1.401943e-03  2.153106e-06
    186    216   2   0.50000    -0.1150000    0.1150000   2.431434e-04  1.541678e-07
    188    199   2   0.50000     0.6150000   -0.1150000   1.692561e-03  3.993218e-06
    188    216   2   0.50000     0.6150000    0.1150000   3.510079e-04  2.623353e-07
    187    191   2   0.50000    -0.1150000    0.0800000   1.091018e-03  2.092768e-06
    187    202   2   0.50000    -0.1150000    0.3000000   2.144502e-06  1.199282e-11
    189    191   2   0.50000    -0.5000000    0.0800000   1.095425e-03  1.218041e-06
    189    202   2   0.50000    -0.5000000    0.3000000   2.153164e-06  6.980110e-12
    188    192   2   0.50000     0.6150000   -0.1200000   1.575021e-03  3.561100e-06
    188    203   2   0.50000     0.6150000    0.0600000   3.869820e-04  3.188634e-07
    188    204   2   0.50000     0.6150000    0.0600000   3.869820e-04  3.188634e-07
    202    192   2   0.50000     0.3000000   -0.1200000   1.995577e-06  1.069504e-11
    202    203   2   0.50000     0.3000000    0.0600000   4.903125e-07  9.576416e-13
    202    204   2   0.50000     0.3000000    0.0600000   4.903125e-07  9.576416e-13
    190    193   2   0.50000    -0.5000000   -0.1200000   1.304585e-03  1.920112e-06
    190    205   2   0.50000    -0.5000000    0.0600000   3.205360e-04  1.719281e-07
    190    206   2   0.50000    -0.5000000    0.0600000   3.205360e-04  1.719281e-07
    203    193   2   0.50000     0.0600000   -0.1200000   2.494471e-04  1.671101e-07
    203    205   2   0.50000     0.0600000    0.0600000   6.128906e-05  1.496315e-08
    203    206   2   0.50000     0.0600000    0.0600000   6.128906e-05  1.496315e-08
    204    193   2   0.50000     0.0600000   -0.1200000   2.494471e-04  1.671101e-07
    204    205   2   0.50000     0.0600000    0.0600000   6.128906e-05  1.496315e-08
    204    206   2   0.50000     0.0600000    0.0600000   6.128906e-05  1.496315e-08
    191    194   2   0.50000     0.0800000   -0.1200000   1.015252e-03  1.866303e-06
    191    207   2   0.50000     0.0800000    0.0600000   2.494471e-04  1.671101e-07
    191    208   2   0.50000     0.0800000    0.0600000   2.494471e-04  1.671101e-07
    205    194   2   0.50000     0.0600000   -0.1200000   2.494471e-04  1.671101e-07
    205    207   2   0.50000     0.0600000    0.0600000   6.128906e-05  1.496315e-08
    205    208   2   0.50000     0.0600000    0.0600000   6.128906e-05  1.496315e-08
    206    194   2   0.50000     0.0600000   -0.1200000   2.494471e-04  1.671101e-07
    206    207   2   0.50000     0.0600000    0.0600000   6.128906e-05  1.496315e-08
    206    208   2   0.50000     0.0600000    0.0600000   6.128906e-05  1.496315e-08
    192    195   2   0.50000    -0.1200000   -0.1200000   1.015252e-03  1.866303e-06
    192    209   2   0.50000    -0.1200000    0.0600000   2.494471e-04  1.671101e-07
    192    210   2   0.50000    -0.1200000    0.0600000   2.494471e-04  1.671101e-07
    207    195   2   0.50000     0.0600000   -0.1200000   2.494471e-04  1.671101e-07
    207    209   2   0.50000     0.0600000    0.0600000   6.128906e-05  1.496315e-08
    207    210   2   0.50000     0.0600000    0.0600000   6.128906e-05  1.496315e-08
    208    195   2   0.50000     0.0600000   -0.1200000   2.494471e-04  1.671101e-07
    208    209   2   0.50000     0.0600000    0.0600000   6.128906e-05  1.496315e-08
    208    210   2   0.50000     0.0600000    0.0600000   6.128906e-05  1.496315e-08
    193    196   2   0.50000    -0.1200000    0.0800000   1.015252e-03  1.866303e-06
    193    211   2   0.50000    -0.1200000    0.0600000   2.494471e-04  1.671101e-07
    193    212   2   0.50000    -0.1200000    0.0600000   2.494471e-04  1.671101e-07
    209    196   2   0.50000     0.0600000    0.0800000   2.494471e-04  1.671101e-07
    209    211   2   0.50000     0.0600000    0.0600000   6.128906e-05  1.496315e-08
    209    212   2   0.50000     0.0600000    0.0600000   6.128906e-05  1.496315e-08
    210    196   2   0.50000     0.0600000    0.0800000   2.494471e-04  1.671101e-07
    210    211   2   0.50000     0.0600000    0.0600000   6.128906e-05  1.496315e-08
    210    212   2   0.50000     0.0600000    0.0600000   6.128906e-05  1.496315e-08
    194    197   2   0.50000    -0.1200000   -0.5000000   1.304585e-03  1.920112e-06
    194    213   2   0.50000    -0.1200000    0.0600000   2.494471e-04  1.671101e-07
    194    214   2   0.50000    -0.1200000    0.0600000   2.494471e-04  1.671101e-07
    211    197   2   0.50000     0.0600000   -0.5000000   3.205360e-04  1.719281e-07
    211    213   2   0.50000     0.0600000    0.0600000   6.128906e-05  1.496315e-08
    211    214   2   0.50000     0.0600000    0.0600000   6.128906e-05  1.496315e-08
    212    197   2   0.50000     0.0600000   -0.5000000   3.205360e-04  1.719281e-07
    212    213   2   0.50000     0.0600000    0.0600000   6.128906e-05  1.496315e-08
    212    214   2   0.50000     0.0600000    0.0600000   6.128906e-05  1.496315e-08
    195    215   2   0.50000    -0.1200000    0.3000000   1.995577e-06  1.069504e-11
    195    218   2   0.50000    -0.1200000    0.6150000   1.575021e-03  3.561100e-06
    213    215   2   0.50000     0.0600000    0.3000000   4.903125e-07  9.576416e-13
    213    218   2   0.50000     0.0600000    0.6150000   3.869820e-04  3.188634e-07
    214    215   2   0.50000     0.0600000    0.3000000   4.903125e-07  9.576416e-13
    214    218   2   0.50000     0.0600000    0.6150000   3.869820e-04  3.188634e-07
    196    219   2   0.50000     0.0800000   -0.5000000   1.095425e-03  1.218041e-06
    196    220   2   0.50000     0.0800000   -0.1150000   1.091018e-03  2.092768e-06
    215    219   2   0.50000     0.3000000   -0.5000000   2.153164e-06  6.980110e-12
    215    220   2   0.50000     0.3000000   -0.1150000   2.144502e-06  1.199282e-11
    187    217   2   0.50000    -0.1150000    0.1150000   2.431434e-04  1.541678e-07
    216    184   2   0.50000     0.1150000   -0.1150000   2.431434e-04  1.541678e-07
    216    217   2   0.50000     0.1150000    0.1150000   5.042375e-05  1.012808e-08
    197    221   2   0.50000    -0.5000000   -0.1150000   1.401943e-03  2.153106e-06
    197    235   2   0.50000    -0.5000000   -0.1150000   1.401943e-03  2.153106e-06
    219    221   2   0.50000    -0.5000000   -0.1150000   1.177174e-03  1.365843e-06
    219    235   2   0.50000    -0.5000000   -0.1150000   1.177174e-03  1.365843e-06
    218    222   2   0.50000     0.6150000   -0.1150000   1.692561e-03  3.993218e-06
    218    236   2   0.50000     0.6150000    0.1150000   3.510079e-04  2.623353e-07
    235    222   2   0.50000    -0.1150000   -0.1150000   1.172438e-03  2.346713e-06
    235    236   2   0.50000    -0.1150000    0.1150000   2.431434e-04  1.541678e-07
    218    234   2   0.50000     0.6150000   -0.1150000   1.692561e-03  3.993218e-06
    218    253   2   0.50000     0.6150000    0.1150000   3.510079e-04  2.623353e-07
    221    234   2   0.50000    -0.1150000   -0.1150000   1.172438e-03  2.346713e-06
    221    253   2   0.50000    -0.1150000    0.1150000   2.431434e-04  1.541678e-07
    220    223   2   0.50000    -0.1150000   -0.1150000   1.172438e-03  2.346713e-06
    220    237   2   0.50000    -0.1150000    0.1150000   2.431434e-04  1.541678e-07
    236    223   2   0.50000     0.1150000   -0.1150000   2.431434e-04  1.541678e-07
    236    237   2   0.50000     0.1150000    0.1150000   5.042375e-05  1.012808e-08
    221    224   2   0.50000    -0.1150000    0.6150000   1.692561e-03  3.993218e-06
    237    224   2   0.50000     0.1150000    0.6150000   3.510079e-04  2.623353e-07
    237    234   2   0.50000     0.1150000   -0.1150000   2.431434e-04  1.541678e-07
    222    225   2   0.50000    -0.1150000   -0.5000000   1.177174e-03  1.365843e-06
    222    226   2   0.50000    -0.1150000   -0.5000000   1.401943e-03  2.153106e-06
    234    225   2   0.50000    -0.1150000   -0.5000000   1.177174e-03  1.365843e-06
    234    226   2   0.50000    -0.1150000   -0.5000000   1.401943e-03  2.153106e-06
    222    252   2   0.50000    -0.1150000    0.1150000   2.431434e-04  1.541678e-07
    224    235   2   0.50000     0.6150000   -0.1150000   1.692561e-03  3.993218e-06
    224    252   2   0.50000     0.6150000    0.1150000   3.510079e-04  2.623353e-07
    223    227   2   0.50000    -0.1150000    0.0800000   1.091018e-03  2.092768e-06
    223    238   2   0.50000    -0.1150000    0.3000000   2.144502e-06  1.199282e-11
    225    227   2   0.50000    -0.5000000    0.0800000   1.095425e-03  1.218041e-06
    225    238   2   0.50000    -0.5000000    0.3000000   2.153164e-06  6.980110e-12
    224    228   2   0.50000     0.6150000   -0.1200000   1.575021e-03  3.561100e-06
    224    239   2   0.50000     0.6150000    0.0600000   3.869820e-04  3.188634e-07
    224    240   2   0.50000     0.6150000    0.0600000   3.869820e-04  3.188634e-07
    238    228   2   0.50000     0.3000000   -0.1200000   1.995577e-06  1.069504e-11
    238    239   2   0.50000     0.3000000    0.0600000   4.903125e-07  9.576416e-13
    238    240   2   0.50000     0.3000000    0.0600000   4.903125e-07  9.576416e-13
    226    229   2   0.50000    -0.5000000   -0.1200000   1.304585e-03  1.920112e-06
    226    241   2   0.50000    -0.5000000    0.0600000   3.205360e-04  1.719281e-07
    226    242   2   0.50000    -0.5000000    0.0600000   3.205360e-04  1.719281e-07
    239    229   2   0.50000     0.0600000   -0.1200000   2.494471e-04  1.671101e-07
    239    241   2   0.50000     0.0600000    0.0600000   6.128906e-05  1.496315e-08
    239    242   2   0.50000     0.0600000    0.0600000   6.128906e-05  1.496315e-08
    240    229   2   0.50000     0.0600000   -0.1200000   2.494471e-04  1.671101e-07
    240    241   2   0.50000     0.0600000    0.0600000   6.128906e-05  1.496315e-08
    240    242   2   0.50000     0.0600000    0.0600000   6.128906e-05  1.496315e-08
    227    230   2   0.50000     0.0800000   -0.1200000   1.015252e-03  1.866303e-06
    227    243   2   0.50000     0.0800000    0.0600000   2.494471e-04  1.671101e-07
    227    244   2   0.50000     0.0800000    0.0600000   2.494471e-04  1.671101e-07
    241    230   2   0.50000     0.0600000   -0.1200000   2.494471e-04  1.671101e-07
    241    243   2   0.50000     0.0600000    0.0600000   6.128906e-05  1.496315e-08
    241    244   2   0.50000     0.0600000    0.0600000   6.128906e-05  1.496315e-08
    242    230   2   0.50000     0.0600000   -0.1200000   2.494471e-04  1.671101e-07
    242    243   2   0.50000     0.0600000    0.0600000   6.128906e-05  1.496315e-08
    242    244   2   0.50000     0.0600000    0.0600000   6.128906e-05  1.496315e-08
    228    231   2   0.50000    -0.1200000   -0.1200000   1.015252e-03  1.866303e-06
    228    245   2   0.50000    -0.1200000    0.0600000   2.494471e-04  1.671101e-07
    228    246   2   0.50000    -0.1200000    0.0600000   2.494471e-04  1.671101e-07
    243    231   2   0.50000     0.0600000   -0.1200000   2.494471e-04  1.671101e-07
    243    245   2   0.50000     0.0600000    0.0600000   6.128906e-05  1.496315e-08
    243    246   2   0.50000     0.0600000    0.0600000   6.128906e-05  1.496315e-08
    244    231   2   0.50000     0.0600000   -0.1200000   2.494471e-04  1.671101e-07
    244    245   2   0.50000     0.0600000    0.0600000   6.128906e-05  1.496315e-08
    244    246   2   0.50000     0.0600000    0.0600000   6.128906e-05  1.496315e-08
    229    232   2   0.50000    -0.1200000    0.0800000   1.015252e-03  1.866303e-06
    229    247   2   0.50000    -0.1200000    0.0600000   2.494471e-04  1.671101e-07
    229    248   2   0.50000    -0.1200000    0.0600000   2.494471e-04  1.671101e-07
    245    232   2   0.50000     0.0600000    0.0800000   2.494471e-04  1.671101e-07
    245    247   2   0.50000     0.0600000    0.0600000   6.128906e-05  1.496315e-08
    245    248   2   0.50000     0.0600000    0.0600000   6.128906e-05  1.496315e-08
    246    232   2   0.50000     0.0600000    0.0800000   2.494471e-04  1.671101e-07
    246    247   2   0.50000     0.0600000    0.0600000   6.128906e-05  1.496315e-08
    246    248   2   0.50000     0.0600000    0.0600000   6.128906e-05  1.496315e-08
    230    233   2   0.50000    -0.1200000   -0.5000000   1.304585e-03  1.920112e-06
    230    249   2   0.50000    -0.1200000    0.0600000   2.494471e-04  1.671101e-07
    230    250   2   0.50000    -0.1200000    0.0600000   2.494471e-04  1.671101e-07
    247    233   2   0.50000     0.0600000   -0.5000000   3.205360e-04  1.719281e-07
    247    249   2   0.50000     0.0600000    0.0600000   6.128906e-05  1.496315e-08
    247    250   2   0.50000     0.0600000    0.0600000   6.128906e-05  1.496315e-08
    248    233   2   0.50000     0.0600000   -0.5000000   3.205360e-04  1.719281e-07
    248    249   2   0.50000     0.0600000    0.0600000   6.128906e-05  1.496315e-08
    248    250   2   0.50000     0.0600000    0.0600000   6.128906e-05  1.496315e-08
    231    251   2   0.50000    -0.1200000    0.3000000   1.995577e-06  1.069504e-11
    231    254   2   0.50000    -0.1200000    0.6150000   1.575021e-03  3.561100e-06
    249    251   2   0.50000     0.0600000    0.3000000   4.903125e-07  9.576416e-13
    249    254   2   0.50000     0.0600000    0.6150000   3.869820e-04  3.188634e-07
    250    251   2   0.50000     0.0600000    0.3000000   4.903125e-07  9.576416e-13
    250    254   2   0.50000     0.0600000    0.6150000   3.869820e-04  3.188634e-07
    232    255   2   0.50000     0.0800000   -0.5000000   1.095425e-03  1.218041e-06
    232    256   2   0.50000     0.0800000   -0.1150000   1.091018e-03  2.092768e-06
    251    255   2   0.50000     0.3000000   -0.5000000   2.153164e-06  6.980110e-12
    251    256   2   0.50000     0.3000000   -0.1150000   2.144502e-06  1.199282e-11
    223    253   2   0.50000    -0.1150000    0.1150000   2.431434e-04  1.541678e-07
    252    220   2   0.50000     0.1150000   -0.1150000   2.431434e-04  1.541678e-07
    252    253   2   0.50000     0.1150000    0.1150000   5.042375e-05  1.012808e-08
    233    257   2   0.50000    -0.5000000   -0.1150000   1.401943e-03  2.153106e-06
    233    271   2   0.50000    -0.5000000   -0.1150000   1.401943e-03  2.153106e-06
    255    257   2   0.50000    -0.5000000   -0.1150000   1.177174e-03  1.365843e-06
    255    271   2   0.50000    -0.5000000   -0.1150000   1.177174e-03  1.365843e-06
    254    258   2   0.50000     0.6150000   -0.1150000   1.692561e-03  3.993218e-06
    254    272   2   0.50000     0.6150000    0.1150000   3.510079e-04  2.623353e-07
    271    258   2   0.50000    -0.1150000   -0.1150000   1.172438e-03  2.346713e-06
    271    272   2   0.50000    -0.1150000    0.1150000   2.431434e-04  1.541678e-07
    254    270   2   0.50000     0.6150000   -0.1150000   1.692561e-03  3.993218e-06
    254    289   2   0.50000     0.6150000    0.1150000   3.510079e-04  2.623353e-07
    257    270   2   0.50000    -0.1150000   -0.1150000   1.172438e-03  2.346713e-06
    257    289   2   0.50000    -0.1150000    0.1150000   2.431434e-04  1.541678e-07
    256    259   2   0.50000    -0.1150000   -0.1150000   1.172438e-03  2.346713e-06
    256    273   2   0.50000    -0.1150000    0.1150000   2.431434e-04  1.541678e-07
    272    259   2   0.50000     0.1150000   -0.1150000   2.431434e-04  1.541678e-07
    272    273   2   0.50000     0.1150000    0.1150000   5.042375e-05  1.012808e-08
    257    260   2   0.50000    -0.1150000    0.6150000   1.692561e-03  3.993218e-06
    273    260   2   0.50000     0.1150000    0.6150000   3.510079e-04  2.623353e-07
    273    270   2   0.50000     0.1150000   -0.1150000   2.431434e-04  1.541678e-07
    258    261   2   0.50000    -0.1150000   -0.5000000   1.177174e-03  1.365843e-06
    258    262   2   0.50000    -0.1150000   -0.5000000   1.401943e-03  2.153106e-06
    270    261   2   0.50000    -0.1150000   -0.5000000   1.177174e-03  1.365843e-06
    270    262   2   0.50000    -0.1150000   -0.5000000   1.401943e-03  2.153106e-06
    258    288   2   0.50000    -0.1150000    0.1150000   2.431434e-04  1.541678e-07
    260    271   2   0.50000     0.6150000   -0.1150000   1.692561e-03  3.993218e-06
    260    288   2   0.50000     0.6150000    0.1150000   3.510079e-04  2.623353e-07
    259    263   2   0.50000    -0.1150000    0.0800000   1.091018e-03  2.092768e-06
    259    274   2   0.50000    -0.1150000    0.3000000   2.144502e-06  1.199282e-11
    261    263   2   0.50000    -0.5000000    0.0800000   1.095425e-03  1.218041e-06
    261    274   2   0.50000    -0.5000000    0.3000000   2.153164e-06  6.980110e-12
    260    264   2   0.50000     0.6150000   -0.1200000   1.575021e-03  3.561100e-06
    260    275   2   0.50000     0.6150000    0.0600000   3.869820e-04  3.188634e-07
    260    276   2   0.50000     0.6150000    0.0600000   3.869820e-04  3.188634e-07
    274    264   2   0.50000     0.3000000   -0.1200000   1.995577e-06  1.069504e-11
    274    275   2   0.50000     0.3000000    0.0600000   4.903125e-07  9.576416e-13
    274    276   2   0.50000     0.3000000    0.0600000   4.903125e-07  9.576416e-13
    262    265   2   0.50000    -0.5000000   -0.1200000   1.304585e-03  1.920112e-06
    262    277   2   0.50000    -0.5000000    0.0600000   3.205360e-04  1.719281e-07
    262    278   2   0.50000    -0.5000000    0.0600000   3.205360e-04  1.719281e-07
    275    265   2   0.50000     0.0600000   -0.1200000   2.494471e-04  1.671101e-07
    275    277   2   0.50000     0.0600000    0.0600000   6.128906e-05  1.496315e-08
    275    278   2   0.50000     0.0600000    0.0600000   6.128906e-05  1.496315e-08
    276    265   2   0.50000     0.0600000   -0.1200000   2.494471e-04  1.671101e-07
    276    277   2   0.50000     0.0600000    0.0600000   6.128906e-05  1.496315e-08
    276    278   2   0.50000     0.0600000    0.0600000   6.128906e-05  1.496315e-08
    263    266   2   0.50000     0.0800000   -0.1200000   1.015252e-03  1.866303e-06
    263    279   2   0.50000     0.0800000    0.0600000   2.494471e-04  1.671101e-07
    263    280   2   0.50000     0.0800000    0.0600000   2.494471e-04  1.671101e-07
    277    266   2   0.50000     0.0600000   -0.1200000   2.494471e-04  1.671101e-07
    277    279   2   0.50000     0.0600000    0.0600000   6.128906e-05  1.496315e-08
    277    280   2   0.50000     0.0600000    0.0600000   6.128906e-05  1.496315e-08
    278    266   2   0.50000     0.0600000   -0.1200000   2.494471e-04  1.671101e-07
    278    279   2   0.50000     0.0600000    0.0600000   6.128906e-05  1.496315e-08
    278    280   2   0.50000     0.0600000    0.0600000   6.128906e-05  1.496315e-08
    264    267   2   0.50000    -0.1200000   -0.1200000   1.015252e-03  1.866303e-06
    264    281   2   0.50000    -0.1200000    0.0600000   2.494471e-04  1.671101e-07
    264    282   2   0.50000    -0.1200000    0.0600000   2.494471e-04  1.671101e-07
    279    267   2   0.50000     0.0600000   -0.1200000   2.494471e-04  1.671101e-07
    279    281   2   0.50000     0.0600000    0.0600000   6.128906e-05  1.496315e-08
    279    282   2   0.50000     0.0600000    0.0600000   6.128906e-05  1.496315e-08
    280    267   2   0.50000     0.0600000   -0.1200000   2.494471e-04  1.671101e-07
    280    281   2   0.50000     0.0600000    0.0600000   6.128906e-05  1.496315e-08
    280    282   2   0.50000     0.0600000    0.0600000   6.128906e-05  1.496315e-08
    265    268   2   0.50000    -0.1200000    0.0800000   1.015252e-03  1.866303e-06
    265    283   2   0.50000    -0.1200000    0.0600000   2.494471e-04  1.671101e-07
    265    284   2   0.50000    -0.1200000    0.0600000   2.494471e-04  1.671101e-07
    281    268   2   0.50000     0.0600000    0.0800000   2.494471e-04  1.671101e-07
    281    283   2   0.50000     0.0600000    0.0600000   6.128906e-05  1.496315e-08
    281    284   2   0.50000     0.0600000    0.0600000   6.128906e-05  1.496315e-08
    282    268   2   0.50000     0.0600000    0.0800000   2.494471e-04  1.671101e-07
    282    283   2   0.50000     0.0600000    0.0600000   6.128906e-05  1.496315e-08
    282    284   2   0.50000     0.0600000    0.0600000   6.128906e-05  1.496315e-08
    266    269   2   0.50000    -0.1200000   -0.5000000   1.304585e-03  1.920112e-06
    266    285   2   0.50000    -0.1200000    0.0600000   2.494471e-04  1.671101e-07
    266    286   2   0.50000    -0.1200000    0.0600000   2.494471e-04  1.671101e-07
    283    269   2   0.50000     0.0600000   -0.5000000   3.205360e-04  1.719281e-07
    283    285   2   0.50000     0.0600000    0.0600000   6.128906e-05  1.496315e-08
    283    286   2   0.50000     0.0600000    0.0600000   6.128906e-05  1.496315e-08
    284    269   2   0.50000     0.0600000   -0.5000000   3.205360e-04  1.719281e-07
    284    285   2   0.50000     0.0600000    0.0600000   6.128906e-05  1.496315e-08
    284    286   2   0.50000     0.0600000    0.0600000   6.128906e-05  1.496315e-08
    267    287   2   0.50000    -0.1200000    0.3000000   1.995577e-06  1.069504e-11
    267    290   2   0.50000    -0.1200000    0.6150000   1.575021e-03  3.561100e-06
    285    287   2   0.50000     0.0600000    0.3000000   4.903125e-07  9.576416e-13
    285    290   2   0.50000     0.0600000    0.6150000   3.869820e-04  3.188634e-07
    286    287   2   0.50000     0.0600000    0.3000000   4.903125e-07  9.576416e-13
    286    290   2   0.50000     0.0600000    0.6150000   3.869820e-04  3.188634e-07
    268    291   2   0.50000     0.0800000   -0.5000000   1.095425e-03  1.218041e-06
    268    292   2   0.50000     0.0800000   -0.1150000   1.091018e-03  2.092768e-06
    287    291   2   0.50000     0.3000000   -0.5000000   2.153164e-06  6.980110e-12
    287    292   2   0.50000     0.3000000   -0.1150000   2.144502e-06  1.199282e-11
    259    289   2   0.50000    -0.1150000    0.1150000   2.431434e-04  1.541678e-07
    288    256   2   0.50000     0.1150000   -0.1150000   2.431434e-04  1.541678e-07
    288    289   2   0.50000     0.1150000    0.1150000   5.042375e-05  1.012808e-08
    269    293   2   0.50000    -0.5000000   -0.1150000   1.401943e-03  2.153106e-06
    269    307   2   0.50000    -0.5000000   -0.1150000   1.401943e-03  2.153106e-06
    291    293   2   0.50000    -0.5000000   -0.1150000   1.177174e-03  1.365843e-06
    291    307   2   0.50000    -0.5000000   -0.1150000   1.177174e-03  1.365843e-06
    290    294   2   0.50000     0.6150000   -0.1150000   1.692561e-03  3.993218e-06
    290    308   2   0.50000     0.6150000    0.1150000   3.510079e-04  2.623353e-07
    307    294   2   0.50000    -0.1150000   -0.1150000   1.172438e-03  2.346713e-06
    307    308   2   0.50000    -0.1150000    0.1150000   2.431434e-04  1.541678e-07
    290    306   2   0.50000     0.6150000   -0.1150000   1.692561e-03  3.993218e-06
    290    325   2   0.50000     0.6150000    0.1150000   3.510079e-04  2.623353e-07
    293    306   2   0.50000    -0.1150000   -0.1150000   1.172438e-03  2.346713e-06
    293    325   2   0.50000    -0.1150000    0.1150000   2.431434e-04  1.541678e-07
    292    295   2   0.50000    -0.1150000   -0.1150000   1.172438e-03  2.346713e-06
    292    309   2   0.50000    -0.1150000    0.1150000   2.431434e-04  1.541678e-07
    308    295   2   0.50000     0.1150000   -0.1150000   2.431434e-04  1.541678e-07
    308    309   2   0.50000     0.1150000    0.1150000   5.042375e-05  1.012808e-08
    293    296   2   0.50000    -0.1150000    0.6150000   1.692561e-03  3.993218e-06
    309    296   2   0.50000     0.1150000    0.6150000   3.510079e-04  2.623353e-07
    309    306   2   0.50000     0.1150000   -0.1150000   2.431434e-04  1.541678e-07
    294    297   2   0.50000    -0.1150000   -0.5000000   1.177174e-03  1.365843e-06
    294    298   2   0.50000    -0.1150000   -0.5000000   1.401943e-03  2.153106e-06
    306    297   2   0.50000    -0.1150000   -0.5000000   1.177174e-03  1.365843e-06
    306    298   2   0.50000    -0.1150000   -0.5000000   1.401943e-03  2.153106e-06
    294    324   2   0.50000    -0.1150000    0.1150000   2.431434e-04  1.541678e-07
    296    307   2   0.50000     0.6150000   -0.1150000   1.692561e-03  3.993218e-06
    296    324   2   0.50000     0.6150000    0.1150000   3.510079e-04  2.623353e-07
    295    299   2   0.50000    -0.1150000    0.0800000   1.091018e-03  2.092768e-06
    295    310   2   0.50000    -0.1150000    0.3000000   2.144502e-06  1.199282e-11
    297    299   2   0.50000    -0.5000000    0.0800000   1.095425e-03  1.218041e-06
    297    310   2   0.50000    -0.5000000    0.3000000   2.153164e-06  6.980110e-12
    296    300   2   0.50000     0.6150000   -0.1200000   1.575021e-03  3.561100e-06
    296    311   2   0.50000     0.6150000    0.0600000   3.869820e-04  3.188634e-07
    296    312   2   0.50000     0.6150000    0.0600000   3.869820e-04  3.188634e-07
    310    300   2   0.50000     0.3000000   -0.1200000   1.995577e-06  1.069504e-11
    310    311   2   0.50000     0.3000000    0.0600000   4.903125e-07  9.576416e-13
    310    312   2   0.50000     0.3000000    0.0600000   4.903125e-07  9.576416e-13
    298    301   2   0.50000    -0.5000000   -0.1200000   1.304585e-03  1.920112e-06
    298    313   2   0.50000    -0.5000000    0.0600000   3.205360e-04  1.719281e-07
    298    314   2   0.50000    -0.5000000    0.0600000   3.205360e-04  1.719281e-07
    311    301   2   0.50000     0.0600000   -0.1200000   2.494471e-04  1.671101e-07
    311    313   2   0.50000     0.0600000    0.0600000   6.128906e-05  1.496315e-08
    311    314   2   0.50000     0.0600000    0.0600000   6.128906e-05  1.496315e-08
    312    301   2   0.50000     0.0600000   -0.1200000   2.494471e-04  1.671101e-07
    312    313   2   0.50000     0.0600000    0.0600000   6.128906e-05  1.496315e-08
    312    314   2   0.50000     0.0600000    0.0600000   6.128906e-05  1.496315e-08
    299    302   2   0.50000     0.0800000   -0.1200000   1.015252e-03  1.866303e-06
    299    315   2   0.50000     0.0800000    0.0600000   2.494471e-04  1.671101e-07
    299    316   2   0.50000     0.0800000    0.0600000   2.494471e-04  1.671101e-07
    313    302   2   0.50000     0.0600000   -0.1200000   2.494471e-04  1.671101e-07
    313    315   2   0.50000     0.0600000    0.0600000   6.128906e-05  1.496315e-08
    313    316   2   0.50000     0.0600000    0.0600000   6.128906e-05  1.496315e-08
    314    302   2   0.50000     0.0600000   -0.1200000   2.494471e-04  1.671101e-07
    314    315   2   0.50000     0.0600000    0.0600000   6.128906e-05  1.496315e-08
    314    316   2   0.50000     0.0600000    0.0600000   6.128906e-05  1.496315e-08
    300    303   2   0.50000    -0.1200000   -0.1200000   1.015252e-03  1.866303e-06
    300    317   2   0.50000    -0.1200000    0.0600000   2.494471e-04  1.671101e-07
    300    318   2   0.50000    -0.1200000    0.0600000   2.494471e-04  1.671101e-07
    315    303   2   0.50000     0.0600000   -0.1200000   2.494471e-04  1.671101e-07
    315    317   2   0.50000     0.0600000    0.0600000   6.128906e-05  1.496315e-08
    315    318   2   0.50000     0.0600000    0.0600000   6.128906e-05  1.496315e-08
    316    303   2   0.50000     0.0600000   -0.1200000   2.494471e-04  1.671101e-07
    316    317   2   0.50000     0.0600000    0.0600000   6.128906e-05  1.496315e-08
    316    318   2   0.50000     0.0600000    0.0600000   6.128906e-05  1.496315e-08
    301    304   2   0.50000    -0.1200000    0.0800000   1.015252e-03  1.866303e-06
    301    319   2   0.50000    -0.1200000    0.0600000   2.494471e-04  1.671101e-07
    301    320   2   0.50000    -0.1200000    0.0600000   2.494471e-04  1.671101e-07
    317    304   2   0.50000     0.0600000    0.0800000   2.494471e-04  1.671101e-07
    317    319   2   0.50000     0.0600000    0.0600000   6.128906e-05  1.496315e-08
    317    320   2   0.50000     0.0600000    0.0600000   6.128906e-05  1.496315e-08
    318    304   2   0.50000     0.0600000    0.0800000   2.494471e-04  1.671101e-07
    318    319   2   0.50000     0.0600000    0.0600000   6.128906e-05  1.496315e-08
    318    320   2   0.50000     0.0600000    0.0600000   6.128906e-05  1.496315e-08
    302    305   2   0.50000    -0.1200000   -0.5000000   1.304585e-03  1.920112e-06
    302    321   2   0.50000    -0.1200000    0.0600000   2.494471e-04  1.671101e-07
    302    322   2   0.50000    -0.1200000    0.0600000   2.494471e-04  1.671101e-07
    319    305   2   0.50000     0.0600000   -0.5000000   3.205360e-04  1.719281e-07
    319    321   2   0.50000     0.0600000    0.0600000   6.128906e-05  1.496315e-08
    319    322   2   0.50000     0.0600000    0.0600000   6.128906e-05  1.496315e-08
    320    305   2   0.50000     0.0600000   -0.5000000   3.205360e-04  1.719281e-07
    320    321   2   0.50000     0.0600000    0.0600000   6.128906e-05  1.496315e-08
    320    322   2   0.50000     0.0600000    0.0600000   6.128906e-05  1.496315e-08
    303    323   2   0.50000    -0.1200000    0.3000000   1.995577e-06  1.069504e-11
    303    326   2   0.50000    -0.1200000    0.6150000   1.575021e-03  3.561100e-06
    321    323   2   0.50000     0.0600000    0.3000000   4.903125e-07  9.576416e-13
    321    326   2   0.50000     0.0600000    0.6150000   3.869820e-04  3.188634e-07
    322    323   2   0.50000     0.0600000    0.3000000   4.903125e-07  9.576416e-13
    322    326   2   0.50000     0.0600000    0.6150000   3.869820e-04  3.188634e-07
    304    327   2   0.50000     0.0800000   -0.5000000   1.095425e-03  1.218041e-06
    304    328   2   0.50000     0.0800000   -0.1150000   1.091018e-03  2.092768e-06
    323    327   2   0.50000     0.3000000   -0.5000000   2.153164e-06  6.980110e-12
    323    328   2   0.50000     0.3000000   -0.1150000   2.144502e-06  1.199282e-11
    295    325   2   0.50000    -0.1150000    0.1150000   2.431434e-04  1.541678e-07
    324    292   2   0.50000     0.1150000   -0.1150000   2.431434e-04  1.541678e-07
    324    325   2   0.50000     0.1150000    0.1150000   5.042375e-05  1.012808e-08
    305    329   2   0.50000    -0.5000000   -0.1150000   1.401943e-03  2.153106e-06
    305    343   2   0.50000    -0.5000000   -0.1150000   1.401943e-03  2.153106e-06
    327    329   2   0.50000    -0.5000000   -0.1150000   1.177174e-03  1.365843e-06
    327    343   2   0.50000    -0.5000000   -0.1150000   1.177174e-03  1.365843e-06
    326    330   2   0.50000     0.6150000   -0.1150000   1.692561e-03  3.993218e-06
    326    344   2   0.50000     0.6150000    0.1150000   3.510079e-04  2.623353e-07
    343    330   2   0.50000    -0.1150000   -0.1150000   1.172438e-03  2.346713e-06
    343    344   2   0.50000    -0.1150000    0.1150000   2.431434e-04  1.541678e-07
    326    342   2   0.50000     0.6150000   -0.1150000   1.692561e-03  3.993218e-06
    326    361   2   0.50000     0.6150000    0.1150000   3.510079e-04  2.623353e-07
    329    342   2   0.50000    -0.1150000   -0.1150000   1.172438e-03  2.346713e-06
    329    361   2   0.50000    -0.1150000    0.1150000   2.431434e-04  1.541678e-07
    328    331   2   0.50000    -0.1150000   -0.1150000   1.172438e-03  2.346713e-06
    328    345   2   0.50000    -0.1150000    0.1150000   2.431434e-04  1.541678e-07
    344    331   2   0.50000     0.1150000   -0.1150000   2.431434e-04  1.541678e-07
    344    345   2   0.50000     0.1150000    0.1150000   5.042375e-05  1.012808e-08
    329    332   2   0.50000    -0.1150000    0.6150000   1.692561e-03  3.993218e-06
    345    332   2   0.50000     0.1150000    0.6150000   3.510079e-04  2.623353e-07
    345    342   2   0.50000     0.1150000   -0.1150000   2.431434e-04  1.541678e-07
    330    333   2   0.50000    -0.1150000   -0.5000000   1.177174e-03  1.365843e-06
    330    334   2   0.50000    -0.1150000   -0.5000000   1.401943e-03  2.153106e-06
    342    333   2   0.50000    -0.1150000   -0.5000000   1.177174e-03  1.365843e-06
    342    334   2   0.50000    -0.1150000   -0.5000000   1.401943e-03  2.153106e-06
    330    360   2   0.50000    -0.1150000    0.1150000   2.431434e-04  1.541678e-07
    332    343   2   0.50000     0.6150000   -0.1150000   1.692561e-03  3.993218e-06
    332    360   2   0.50000     0.6150000    0.1150000   3.510079e-04  2.623353e-07
    331    335   2   0.50000    -0.1150000    0.0800000   1.091018e-03  2.092768e-06
    331    346   2   0.50000    -0.1150000    0.3000000   2.144502e-06  1.199282e-11
    333    335   2   0.50000    -0.5000000    0.0800000   1.095425e-03  1.218041e-06
    333    346   2   0.50000    -0.5000000    0.3000000   2.153164e-06  6.980110e-12
    332    336   2   0.50000     0.6150000   -0.1200000   1.575021e-03  3.561100e-06
    332    347   2   0.50000     0.6150000    0.0600000   3.869820e-04  3.188634e-07
    332    348   2   0.50000     0.6150000    0.0600000   3.869820e-04  3.188634e-07
    346    336   2   0.50000     0.3000000   -0.1200000   1.995577e-06  1.069504e-11
    346    347   2   0.50000     0.3000000    0.0600000   4.903125e-07  9.576416e-13
    346    348   2   0.50000     0.3000000    0.0600000   4.903125e-07  9.576416e-13
    334    337   2   0.50000    -0.5000000   -0.1200000   1.304585e-03  1.920112e-06
    334    349   2   0.50000    -0.5000000    0.0600000   3.205360e-04  1.719281e-07
    334    350   2   0.50000    -0.5000000    0.0600000   3.205360e-04  1.719281e-07
    347    337   2   0.50000     0.0600000   -0.1200000   2.494471e-04  1.671101e-07
    347    349   2   0.50000     0.0600000    0.0600000   6.128906e-05  1.496315e-08
    347    350   2   0.50000     0.0600000    0.0600000   6.128906e-05  1.496315e-08
    348    337   2   0.50000     0.0600000   -0.1200000   2.494471e-04  1.671101e-07
    348    349   2   0.50000     0.0600000    0.0600000   6.128906e-05  1.496315e-08
    348    350   2   0.50000     0.0600000    0.0600000   6.128906e-05  1.496315e-08
    335    338   2   0.50000     0.0800000   -0.1200000   1.015252e-03  1.866303e-06
    335    351   2   0.50000     0.0800000    0.0600000   2.494471e-04  1.671101e-07
    335    352   2   0.50000     0.0800000    0.0600000   2.494471e-04  1.671101e-07
    349    338   2   0.50000     0.0600000   -0.1200000   2.494471e-04  1.671101e-07
    349    351   2   0.50000     0.0600000    0.0600000   6.128906e-05  1.496315e-08
    349    352   2   0.50000     0.0600000    0.0600000   6.128906e-05  1.496315e-08
    350    338   2   0.50000     0.0600000   -0.1200000   2.494471e-04  1.671101e-07
    350    351   2   0.50000     0.0600000    0.0600000   6.128906e-05  1.496315e-08
    350    352   2   0.50000     0.0600000    0.0600000   6.128906e-05  1.496315e-08
    336    339   2   0.50000    -0.1200000   -0.1200000   1.015252e-03  1.866303e-06
    336    353   2   0.50000    -0.1200000    0.0600000   2.494471e-04  1.671101e-07
    336    354   2   0.50000    -0.1200000    0.0600000   2.494471e-04  1.671101e-07
    351    339   2   0.50000     0.0600000   -0.1200000   2.494471e-04  1.671101e-07
    351    353   2   0.50000     0.0600000    0.0600000   6.128906e-05  1.496315e-08
    351    354   2   0.50000     0.0600000    0.0600000   6.128906e-05  1.496315e-08
    352    339   2   0.50000     0.0600000   -0.1200000   2.494471e-04  1.671101e-07
    352    353   2   0.50000     0.0600000    0.0600000   6.128906e-05  1.496315e-08
    352    354   2   0.50000     0.0600000    0.0600000   6.128906e-05  1.496315e-08
    337    340   2   0.50000    -0.1200000    0.0800000   1.015252e-03  1.866303e-06
    337    355   2   0.50000    -0.1200000    0.0600000   2.494471e-04  1.671101e-07
    337    356   2   0.50000    -0.1200000    0.0600000   2.494471e-04  1.671101e-07
    353    340   2   0.50000     0.0600000    0.0800000   2.494471e-04  1.671101e-07
    353    355   2   0.50000     0.0600000    0.0600000   6.128906e-05  1.496315e-08
    353    356   2   0.50000     0.0600000    0.0600000   6.128906e-05  1.496315e-08
    354    340   2   0.50000     0.0600000    0.0800000   2.494471e-04  1.671101e-07
    354    355   2   0.50000     0.0600000    0.0600000   6.128906e-05  1.496315e-08
    354    356   2   0.50000     0.0600000    0.0600000   6.128906e-05  1.496315e-08
    338    341   2   0.50000    -0.1200000   -0.5000000   1.304585e-03  1.920112e-06
    338    357   2   0.50000    -0.1200000    0.0600000   2.494471e-04  1.671101e-07
    338    358   2   0.50000    -0.1200000    0.0600000   2.494471e-04  1.671101e-07
    355    341   2   0.50000     0.0600000   -0.5000000   3.205360e-04  1.719281e-07
    355    357   2   0.50000     0.0600000    0.0600000   6.128906e-05  1.496315e-08
    355    358   2   0.50000     0.0600000    0.0600000   6.128906e-05  1.496315e-08
    356    341   2   0.50000     0.0600000   -0.5000000   3.205360e-04  1.719281e-07
    356    357   2   0.50000     0.0600000    0.0600000   6.128906e-05  1.496315e-08
    356    358   2   0.50000     0.0600000    0.0600000   6.128906e-05  1.496315e-08
    339    359   2   0.50000    -0.1200000    0.3000000   1.995577e-06  1.069504e-11
    339    362   2   0.50000    -0.1200000    0.6150000   1.575021e-03  3.561100e-06
    357    359   2   0.50000     0.0600000    0.3000000   4.903125e-07  9.576416e-13
    357    362   2   0.50000     0.0600000    0.6150000   3.869820e-04  3.188634e-07
    358    359   2   0.50000     0.0600000    0.3000000   4.903125e-07  9.576416e-13
    358    362   2   0.50000     0.0600000    0.6150000   3.869820e-04  3.188634e-07
    340    363   2   0.50000     0.0800000   -0.5000000   1.095425e-03  1.218041e-06
    340    364   2   0.50000     0.0800000   -0.1150000   1.091018e-03  2.092768e-06
    359    363   2   0.50000     0.3000000   -0.5000000   2.153164e-06  6.980110e-12
    359    364   2   0.50000     0.3000000   -0.1150000   2.144502e-06  1.199282e-11
    331    361   2   0.50000    -0.1150000    0.1150000   2.431434e-04  1.541678e-07
    360    328   2   0.50000     0.1150000   -0.1150000   2.431434e-04  1.541678e-07
    360    361   2   0.50000     0.1150000    0.1150000   5.042375e-05  1.012808e-08
    341    365   2   0.50000    -0.5000000   -0.1150000   1.401943e-03  2.153106e-06
    341    379   2   0.50000    -0.5000000   -0.1150000   1.401943e-03  2.153106e-06
    363    365   2   0.50000    -0.5000000   -0.1150000   1.177174e-03  1.365843e-06
    363    379   2   0.50000    -0.5000000   -0.1150000   1.177174e-03  1.365843e-06
    362    366   2   0.50000     0.6150000   -0.1150000   1.692561e-03  3.993218e-06
    362    380   2   0.50000     0.6150000    0.1150000   3.510079e-04  2.623353e-07
    379    366   2   0.50000    -0.1150000   -0.1150000   1.172438e-03  2.346713e-06
    379    380   2   0.50000    -0.1150000    0.1150000   2.431434e-04  1.541678e-07
    362    378   2   0.50000     0.6150000   -0.1150000   1.692561e-03  3.993218e-06
    362    397   2   0.50000     0.6150000    0.1150000   3.510079e-04  2.623353e-07
    365    378   2   0.50000    -0.1150000   -0.1150000   1.172438e-03  2.346713e-06
    365    397   2   0.50000    -0.1150000    0.1150000   2.431434e-04  1.541678e-07
    364    367   2   0.50000    -0.1150000   -0.1150000   1.172438e-03  2.346713e-06
    364    381   2   0.50000    -0.1150000    0.1150000   2.431434e-04  1.541678e-07
    380    367   2   0.50000     0.1150000   -0.1150000   2.431434e-04  1.541678e-07
    380    381   2   0.50000     0.1150000    0.1150000   5.042375e-05  1.012808e-08
    365    368   2   0.50000    -0.1150000    0.6150000   1.692561e-03  3.993218e-06
    381    368   2   0.50000     0.1150000    0.6150000   3.510079e-04  2.623353e-07
    381    378   2   0.50000     0.1150000   -0.1150000   2.431434e-04  1.541678e-07
    366    369   2   0.50000    -0.1150000   -0.5000000   1.177174e-03  1.365843e-06
    366    370   2   0.50000    -0.1150000   -0.5000000   1.401943e-03  2.153106e-06
    378    369   2   0.50000    -0.1150000   -0.5000000   1.177174e-03  1.365843e-06
    378    370   2   0.50000    -0.1150000   -0.5000000   1.401943e-03  2.153106e-06
    366    396   2   0.50000    -0.1150000    0.1150000   2.431434e-04  1.541678e-07
    368    379   2   0.50000     0.6150000   -0.1150000   1.692561e-03  3.993218e-06
    368    396   2   0.50000     0.6150000    0.1150000   3.510079e-04  2.623353e-07
    367    371   2   0.50000    -0.1150000    0.0800000   1.091018e-03  2.092768e-06
    367    382   2   0.50000    -0.1150000    0.3000000   2.144502e-06  1.199282e-11
    369    371   2   0.50000    -0.5000000    0.0800000   1.095425e-03  1.218041e-06
    369    382   2   0.50000    -0.5000000    0.3000000   2.153164e-06  6.980110e-12
    368    372   2   0.50000     0.6150000   -0.1200000   1.575021e-03  3.561100e-06
    368    383   2   0.50000     0.6150000    0.0600000   3.869820e-04  3.188634e-07
    368    384   2   0.50000     0.6150000    0.0600000   3.869820e-04  3.188634e-07
    382    372   2   0.50000     0.3000000   -0.1200000   1.995577e-06  1.069504e-11
    382    383   2   0.50000     0.3000000    0.0600000   4.903125e-07  9.576416e-13
    382    384   2   0.50000     0.3000000    0.0600000   4.903125e-07  9.576416e-13
    370    373   2   0.50000    -0.5000000   -0.1200000   1.304585e-03  1.920112e-06
    370    385   2   0.50000    -0.5000000    0.0600000   3.205360e-04  1.719281e-07
    370    386   2   0.50000    -0.5000000    0.0600000   3.205360e-04  1.719281e-07
    383    373   2   0.50000     0.0600000   -0.1200000   2.494471e-04  1.671101e-07
    383    385   2   0.50000     0.0600000    0.0600000   6.128906e-05  1.496315e-08
    383    386   2   0.50000     0.0600000    0.0600000   6.128906e-05  1.496315e-08
    384    373   2   0.50000     0.0600000   -0.1200000   2.494471e-04  1.671101e-07
    384    385   2   0.50000     0.0600000    0.0600000   6.128906e-05  1.496315e-08
    384    386   2   0.50000     0.0600000    0.0600000   6.128906e-05  1.496315e-08
    371    374   2   0.50000     0.0800000   -0.1200000   1.015252e-03  1.866303e-06
    371    387   2   0.50000     0.0800000    0.0600000   2.494471e-04  1.671101e-07
    371    388   2   0.50000     0.0800000    0.0600000   2.494471e-04  1.671101e-07
    385    374   2   0.50000     0.0600000   -0.1200000   2.494471e-04  1.671101e-07
    385    387   2   0.50000     0.0600000    0.0600000   6.128906e-05  1.496315e-08
    385    388   2   0.50000     0.0600000    0.0600000   6.128906e-05  1.496315e-08
    386    374   2   0.50000     0.0600000   -0.1200000   2.494471e-04  1.671101e-07
    386    387   2   0.50000     0.0600000    0.0600000   6.128906e-05  1.496315e-08
    386    388   2   0.50000     0.0600000    0.0600000   6.128906e-05  1.496315e-08
    372    375   2   0.50000    -0.1200000   -0.1200000   1.015252e-03  1.866303e-06
    372    389   2   0.50000    -0.1200000    0.0600000   2.494471e-04  1.671101e-07
    372    390   2   0.50000    -0.1200000    0.0600000   2.494471e-04  1.671101e-07
    387    375   2   0.50000     0.0600000   -0.1200000   2.494471e-04  1.671101e-07
    387    389   2   0.50000     0.0600000    0.0600000   6.128906e-05  1.496315e-08
    387    390   2   0.50000     0.0600000    0.0600000   6.128906e-05  1.496315e-08
    388    375   2   0.50000     0.0600000   -0.1200000   2.494471e-04  1.671101e-07
    388    389   2   0.50000     0.0600000    0.0600000   6.128906e-05  1.496315e-08
    388    390   2   0.50000     0.0600000    0.0600000   6.128906e-05  1.496315e-08
    373    376   2   0.50000    -0.1200000    0.0800000   1.015252e-03  1.866303e-06
    373    391   2   0.50000    -0.1200000    0.0600000   2.494471e-04  1.671101e-07
    373    392   2   0.50000    -0.1200000    0.0600000   2.494471e-04  1.671101e-07
    389    376   2   0.50000     0.0600000    0.0800000   2.494471e-04  1.671101e-07
    389    391   2   0.50000     0.0600000    0.0600000   6.128906e-05  1.496315e-08
    389    392   2   0.50000     0.0600000    0.0600000   6.128906e-05  1.496315e-08
    390    376   2   0.50000     0.0600000    0.0800000   2.494471e-04  1.671101e-07
    390    391   2   0.50000     0.0600000    0.0600000   6.128906e-05  1.496315e-08
    390    392   2   0.50000     0.0600000    0.0600000   6.128906e-05  1.496315e-08
    374    377   2   0.50000    -0.1200000   -0.5000000   1.304585e-03  1.920112e-06
    374    393   2   0.50000    -0.1200000    0.0600000   2.494471e-04  1.671101e-07
    374    394   2   0.50000    -0.1200000    0.0600000   2.494471e-04  1.671101e-07
    391    377   2   0.50000     0.0600000   -0.5000000   3.205360e-04  1.719281e-07
    391    393   2   0.50000     0.0600000    0.0600000   6.128906e-05  1.496315e-08
    391    394   2   0.50000     0.0600000    0.0600000   6.128906e-05  1.496315e-08
    392    377   2   0.50000     0.0600000   -0.5000000   3.205360e-04  1.719281e-07
    392    393   2   0.50000     0.0600000    0.0600000   6.128906e-05  1.496315e-08
    392    394   2   0.50000     0.0600000    0.0600000   6.128906e-05  1.496315e-08
    375    395   2   0.50000    -0.1200000    0.3000000   1.995577e-06  1.069504e-11
    375    398   2   0.50000    -0.1200000    0.6150000   1.575021e-03  3.561100e-06
    393    395   2   0.50000     0.0600000    0.3000000   4.903125e-07  9.576416e-13
    393    398   2   0.50000     0.0600000    0.6150000   3.869820e-04  3.188634e-07
    394    395   2   0.50000     0.0600000    0.3000000   4.903125e-07  9.576416e-13
    394    398   2   0.50000     0.0600000    0.6150000   3.869820e-04  3.188634e-07
    376    399   2   0.50000     0.0800000   -0.5000000   1.095425e-03  1.218041e-06
    376    400   2   0.50000     0.0800000   -0.1150000   1.091018e-03  2.092768e-06
    395    399   2   0.50000     0.3000000   -0.5000000   2.153164e-06  6.980110e-12
    395    400   2   0.50000     0.3000000   -0.1150000   2.144502e-06  1.199282e-11
    367    397   2   0.50000    -0.1150000    0.1150000   2.431434e-04  1.541678e-07
    396    364   2   0.50000     0.1150000   -0.1150000   2.431434e-04  1.541678e-07
    396    397   2   0.50000     0.1150000    0.1150000   5.042375e-05  1.012808e-08
    377    401   2   0.50000    -0.5000000   -0.1150000   1.401943e-03  2.153106e-06
    377    415   2   0.50000    -0.5000000   -0.1150000   1.401943e-03  2.153106e-06
    399    401   2   0.50000    -0.5000000   -0.1150000   1.177174e-03  1.365843e-06
    399    415   2   0.50000    -0.5000000   -0.1150000   1.177174e-03  1.365843e-06
    398    402   2   0.50000     0.6150000   -0.1150000   1.692561e-03  3.993218e-06
    398    416   2   0.50000     0.6150000    0.1150000   3.510079e-04  2.623353e-07
    415    402   2   0.50000    -0.1150000   -0.1150000   1.172438e-03  2.346713e-06
    415    416   2   0.50000    -0.1150000    0.1150000   2.431434e-04  1.541678e-07
    398    414   2   0.50000     0.6150000   -0.1150000   1.692561e-03  3.993218e-06
    398    433   2   0.50000     0.6150000    0.1150000   3.510079e-04  2.623353e-07
    401    414   2   0.50000    -0.1150000   -0.1150000   1.172438e-03  2.346713e-06
    401    433   2   0.50000    -0.1150000    0.1150000   2.431434e-04  1.541678e-07
    400    403   2   0.50000    -0.1150000   -0.1150000   1.172438e-03  2.346713e-06
    400    417   2   0.50000    -0.1150000    0.1150000   2.431434e-04  1.541678e-07
    416    403   2   0.50000     0.1150000   -0.1150000   2.431434e-04  1.541678e-07
    416    417   2   0.50000     0.1150000    0.1150000   5.042375e-05  1.012808e-08
    401    404   2   0.50000    -0.1150000    0.6150000   1.692561e-03  3.993218e-06
    417    404   2   0.50000     0.1150000    0.6150000   3.510079e-04  2.623353e-07
    417    414   2   0.50000     0.1150000   -0.1150000   2.431434e-04  1.541678e-07
    402    405   2   0.50000    -0.1150000   -0.5000000   1.177174e-03  1.365843e-06
    402    406   2   0.50000    -0.1150000   -0.5000000   1.401943e-03  2.153106e-06
    414    405   2   0.50000    -0.1150000   -0.5000000   1.177174e-03  1.365843e-06
    414    406   2   0.50000    -0.1150000   -0.5000000   1.401943e-03  2.153106e-06
    402    432   2   0.50000    -0.1150000    0.1150000   2.431434e-04  1.541678e-07
    404    415   2   0.50000     0.6150000   -0.1150000   1.692561e-03  3.993218e-06
    404    432   2   0.50000     0.6150000    0.1150000   3.510079e-04  2.623353e-07
    403    407   2   0.50000    -0.1150000    0.0800000   1.091018e-03  2.092768e-06
    403    418   2   0.50000    -0.1150000    0.3000000   2.144502e-06  1.199282e-11
    405    407   2   0.50000    -0.5000000    0.0800000   1.095425e-03  1.218041e-06
    405    418   2   0.50000    -0.5000000    0.3000000   2.153164e-06  6.980110e-12
    404    408   2   0.50000     0.6150000   -0.1200000   1.575021e-03  3.561100e-06
    404    419   2   0.50000     0.6150000    0.0600000   3.869820e-04  3.188634e-07
    404    420   2   0.50000     0.6150000    0.0600000   3.869820e-04  3.188634e-07
    418    408   2   0.50000     0.3000000   -0.1200000   1.995577e-06  1.069504e-11
    418    419   2   0.50000     0.3000000    0.0600000   4.903125e-07  9.576416e-13
    418    420   2   0.50000     0.3000000    0.0600000   4.903125e-07  9.576416e-13
    406    409   2   0.50000    -0.5000000   -0.1200000   1.304585e-03  1.920112e-06
    406    421   2   0.50000    -0.5000000    0.0600000   3.205360e-04  1.719281e-07
    406    422   2   0.50000    -0.5000000    0.0600000   3.205360e-04  1.719281e-07
    419    409   2   0.50000     0.0600000   -0.1200000   2.494471e-04  1.671101e-07
    419    421   2   0.50000     0.0600000    0.0600000   6.128906e-05  1.496315e-08
    419    422   2   0.50000     0.0600000    0.0600000   6.128906e-05  1.496315e-08
    420    409   2   0.50000     0.0600000   -0.1200000   2.494471e-04  1.671101e-07
    420    421   2   0.50000     0.0600000    0.0600000   6.128906e-05  1.496315e-08
    420    422   2   0.50000     0.0600000    0.0600000   6.128906e-05  1.496315e-08
    407    410   2   0.50000     0.0800000   -0.1200000   1.015252e-03  1.866303e-06
    407    423   2   0.50000     0.0800000    0.0600000   2.494471e-04  1.671101e-07
    407    424   2   0.50000     0.0800000    0.0600000   2.494471e-04  1.671101e-07
    421    410   2   0.50000     0.0600000   -0.1200000   2.494471e-04  1.671101e-07
    421    423   2   0.50000     0.0600000    0.0600000   6.128906e-05  1.496315e-08
    421    424   2   0.50000     0.0600000    0.0600000   6.128906e-05  1.496315e-08
    422    410   2   0.50000     0.0600000   -0.1200000   2.494471e-04  1.671101e-07
    422    423   2   0.50000     0.0600000    0.0600000   6.128906e-05  1.496315e-08
    422    424   2   0.50000     0.0600000    0.0600000   6.128906e-05  1.496315e-08
    408    411   2   0.50000    -0.1200000   -0.1200000   1.015252e-03  1.866303e-06
    408    425   2   0.50000    -0.1200000    0.0600000   2.494471e-04  1.671101e-07
    408    426   2   0.50000    -0.1200000    0.0600000   2.494471e-04  1.671101e-07
    423    411   2   0.50000     0.0600000   -0.1200000   2.494471e-04  1.671101e-07
    423    425   2   0.50000     0.0600000    0.0600000   6.128906e-05  1.496315e-08
    423    426   2   0.50000     0.0600000    0.0600000   6.128906e-05  1.496315e-08
    424    411   2   0.50000     0.0600000   -0.1200000   2.494471e-04  1.671101e-07
    424    425   2   0.50000     0.0600000    0.0600000   6.128906e-05  1.496315e-08
    424    426   2   0.50000     0.0600000    0.0600000   6.128906e-05  1.496315e-08
    409    412   2   0.50000    -0.1200000    0.0800000   1.015252e-03  1.866303e-06
    409    427   2   0.50000    -0.1200000    0.0600000   2.494471e-04  1.671101e-07
    409    428   2   0.50000    -0.1200000    0.0600000   2.494471e-04  1.671101e-07
    425    412   2   0.50000     0.0600000    0.0800000   2.494471e-04  1.671101e-07
    425    427   2   0.50000     0.0600000    0.0600000   6.128906e-05  1.496315e-08
    425    428   2   0.50000     0.0600000    0.0600000   6.128906e-05  1.496315e-08
    426    412   2   0.50000     0.0600000    0.0800000   2.494471e-04  1.671101e-07
    426    427   2   0.50000     0.0600000    0.0600000   6.128906e-05  1.496315e-08
    426    428   2   0.50000     0.0600000    0.0600000   6.128906e-05  1.496315e-08
    410    413   2   0.50000    -0.1200000   -0.5000000   1.304585e-03  1.920112e-06
    410    429   2   0.50000    -0.1200000    0.0600000   2.494471e-04  1.671101e-07
    410    430   2   0.50000    -0.1200000    0.0600000   2.494471e-04  1.671101e-07
    427    413   2   0.50000     0.0600000   -0.5000000   3.205360e-04  1.719281e-07
    427    429   2   0.50000     0.0600000    0.0600000   6.128906e-05  1.496315e-08
    427    430   2   0.50000     0.0600000    0.0600000   6.128906e-05  1.496315e-08
    428    413   2   0.50000     0.0600000   -0.5000000   3.205360e-04  1.719281e-07
    428    429   2   0.50000     0.0600000    0.0600000   6.128906e-05  1.496315e-08
    428    430   2   0.50000     0.0600000    0.0600000   6.128906e-05  1.496315e-08
    411    431   2   0.50000    -0.1200000    0.3000000   1.995577e-06  1.069504e-11
    411    434   2   0.50000    -0.1200000    0.6150000   1.575021e-03  3.561100e-06
    429    431   2   0.50000     0.0600000    0.3000000   4.903125e-07  9.576416e-13
    429    434   2   0.50000     0.0600000    0.6150000   3.869820e-04  3.188634e-07
    430    431   2   0.50000     0.0600000    0.3000000   4.903125e-07  9.576416e-13
    430    434   2   0.50000     0.0600000    0.6150000   3.869820e-04  3.188634e-07
    412    435   2   0.50000     0.0800000   -0.5000000   1.095425e-03  1.218041e-06
    412    436   2   0.50000     0.0800000   -0.1150000   1.091018e-03  2.092768e-06
    431    435   2   0.50000     0.3000000   -0.5000000   2.153164e-06  6.980110e-12
    431    436   2   0.50000     0.3000000   -0.1150000   2.144502e-06  1.199282e-11
    403    433   2   0.50000    -0.1150000    0.1150000   2.431434e-04  1.541678e-07
    432    400   2   0.50000     0.1150000   -0.1150000   2.431434e-04  1.541678e-07
    432    433   2   0.50000     0.1150000    0.1150000   5.042375e-05  1.012808e-08
    413    437   2   0.50000    -0.5000000   -0.1150000   1.401943e-03  2.153106e-06
    413    451   2   0.50000    -0.5000000   -0.1150000   1.401943e-03  2.153106e-06
    435    437   2   0.50000    -0.5000000   -0.1150000   1.177174e-03  1.365843e-06
    435    451   2   0.50000    -0.5000000   -0.1150000   1.177174e-03  1.365843e-06
    434    438   2   0.50000     0.6150000   -0.1150000   1.692561e-03  3.993218e-06
    434    452   2   0.50000     0.6150000    0.1150000   3.510079e-04  2.623353e-07
    451    438   2   0.50000    -0.1150000   -0.1150000   1.172438e-03  2.346713e-06
    451    452   2   0.50000    -0.1150000    0.1150000   2.431434e-04  1.541678e-07
    434    450   2   0.50000     0.6150000   -0.1150000   1.692561e-03  3.993218e-06
    434    469   2   0.50000     0.6150000    0.1150000   3.510079e-04  2.623353e-07
    437    450   2   0.50000    -0.1150000   -0.1150000   1.172438e-03  2.346713e-06
    437    469   2   0.50000    -0.1150000    0.1150000   2.431434e-04  1.541678e-07
    436    439   2   0.50000    -0.1150000   -0.1150000   1.172438e-03  2.346713e-06
    436    453   2   0.50000    -0.1150000    0.1150000   2.431434e-04  1.541678e-07
    452    439   2   0.50000     0.1150000   -0.1150000   2.431434e-04  1.541678e-07
    452    453   2   0.50000     0.1150000    0.1150000   5.042375e-05  1.012808e-08
    437    440   2   0.50000    -0.1150000    0.6150000   1.692561e-03  3.993218e-06
    453    440   2   0.50000     0.1150000    0.6150000   3.510079e-04  2.623353e-07
    453    450   2   0.50000     0.1150000   -0.1150000   2.431434e-04  1.541678e-07
    438    441   2   0.50000    -0.1150000   -0.5000000   1.177174e-03  1.365843e-06
    438    442   2   0.50000    -0.1150000   -0.5000000   1.401943e-03  2.153106e-06
    450    441   2   0.50000    -0.1150000   -0.5000000   1.177174e-03  1.365843e-06
    450    442   2   0.50000    -0.1150000   -0.5000000   1.401943e-03  2.153106e-06
    438    468   2   0.50000    -0.1150000    0.1150000   2.431434e-04  1.541678e-07
    440    451   2   0.50000     0.6150000   -0.1150000   1.692561e-03  3.993218e-06
    440    468   2   0.50000     0.6150000    0.1150000   3.510079e-04  2.623353e-07
    439    443   2   0.50000    -0.1150000    0.0800000   1.091018e-03  2.092768e-06
    439    454   2   0.50000    -0.1150000    0.3000000   2.144502e-06  1.199282e-11
    441    443   2   0.50000    -0.5000000    0.0800000   1.095425e-03  1.218041e-06
    441    454   2   0.50000    -0.5000000    0.3000000   2.153164e-06  6.980110e-12
    440    444   2   0.50000     0.6150000   -0.1200000   1.575021e-03  3.561100e-06
    440    455   2   0.50000     0.6150000    0.0600000   3.869820e-04  3.188634e-07
    440    456   2   0.50000     0.6150000    0.0600000   3.869820e-04  3.188634e-07
    454    444   2   0.50000     0.3000000   -0.1200000   1.995577e-06  1.069504e-11
    454    455   2   0.50000     0.3000000    0.0600000   4.903125e-07  9.576416e-13
    454    456   2   0.50000     0.3000000    0.0600000   4.903125e-07  9.576416e-13
    442    445   2   0.50000    -0.5000000   -0.1200000   1.304585e-03  1.920112e-06
    442    457   2   0.50000    -0.5000000    0.0600000   3.205360e-04  1.719281e-07
    442    458   2   0.50000    -0.5000000    0.0600000   3.205360e-04  1.719281e-07
    455    445   2   0.50000     0.0600000   -0.1200000   2.494471e-04  1.671101e-07
    455    457   2   0.50000     0.0600000    0.0600000   6.128906e-05  1.496315e-08
    455    458   2   0.50000     0.0600000    0.0600000   6.128906e-05  1.496315e-08
    456    445   2   0.50000     0.0600000   -0.1200000   2.494471e-04  1.671101e-07
    456    457   2   0.50000     0.0600000    0.0600000   6.128906e-05  1.496315e-08
    456    458   2   0.50000     0.0600000    0.0600000   6.128906e-05  1.496315e-08
    443    446   2   0.50000     0.0800000   -0.1200000   1.015252e-03  1.866303e-06
    443    459   2   0.50000     0.0800000    0.0600000   2.494471e-04  1.671101e-07
    443    460   2   0.50000     0.0800000    0.0600000   2.494471e-04  1.671101e-07
    457    446   2   0.50000     0.0600000   -0.1200000   2.494471e-04  1.671101e-07
    457    459   2   0.50000     0.0600000    0.0600000   6.128906e-05  1.496315e-08
    457    460   2   0.50000     0.0600000    0.0600000   6.128906e-05  1.496315e-08
    458    446   2   0.50000     0.0600000   -0.1200000   2.494471e-04  1.671101e-07
    458    459   2   0.50000     0.0600000    0.0600000   6.128906e-05  1.496315e-08
    458    460   2   0.50000     0.0600000    0.0600000   6.128906e-05  1.496315e-08
    444    447   2   0.50000    -0.1200000   -0.1200000   1.015252e-03  1.866303e-06
    444    461   2   0.50000    -0.1200000    0.0600000   2.494471e-04  1.671101e-07
    444    462   2   0.50000    -0.1200000    0.0600000   2.494471e-04  1.671101e-07
    459    447   2   0.50000     0.0600000   -0.1200000   2.494471e-04  1.671101e-07
    459    461   2   0.50000     0.0600000    0.0600000   6.128906e-05  1.496315e-08
    459    462   2   0.50000     0.0600000    0.0600000   6.128906e-05  1.496315e-08
    460    447   2   0.50000     0.0600000   -0.1200000   2.494471e-04  1.671101e-07
    460    461   2   0.50000     0.0600000    0.0600000   6.128906e-05  1.496315e-08
    460    462   2   0.50000     0.0600000    0.0600000   6.128906e-05  1.496315e-08
    445    448   2   0.50000    -0.1200000    0.0800000   1.015252e-03  1.866303e-06
    445    463   2   0.50000    -0.1200000    0.0600000   2.494471e-04  1.671101e-07
    445    464   2   0.50000    -0.1200000    0.0600000   2.494471e-04  1.671101e-07
    461    448   2   0.50000     0.0600000    0.0800000   2.494471e-04  1.671101e-07
    461    463   2   0.50000     0.0600000    0.0600000   6.128906e-05  1.496315e-08
    461    464   2   0.50000     0.0600000    0.0600000   6.128906e-05  1.496315e-08
    462    448   2   0.50000     0.0600000    0.0800000   2.494471e-04  1.671101e-07
    462    463   2   0.50000     0.0600000    0.0600000   6.128906e-05  1.496315e-08
    462    464   2   0.50000     0.0600000    0.0600000   6.128906e-05  1.496315e-08
    446    449   2   0.50000    -0.1200000   -0.5000000   1.304585e-03  1.920112e-06
    446    465   2   0.50000    -0.1200000    0.0600000   2.494471e-04  1.671101e-07
    446    466   2   0.50000    -0.1200000    0.0600000   2.494471e-04  1.671101e-07
    463    449   2   0.50000     0.0600000   -0.5000000   3.205360e-04  1.719281e-07
    463    465   2   0.50000     0.0600000    0.0600000   6.128906e-05  1.496315e-08
    463    466   2   0.50000     0.0600000    0.0600000   6.128906e-05  1.496315e-08
    464    449   2   0.50000     0.0600000   -0.5000000   3.205360e-04  1.719281e-07
    464    465   2   0.50000     0.0600000    0.0600000   6.128906e-05  1.496315e-08
    464    466   2   0.50000     0.0600000    0.0600000   6.128906e-05  1.496315e-08
    447    467   2   0.50000    -0.1200000    0.3000000   1.995577e-06  1.069504e-11
    447    470   2   0.50000    -0.1200000    0.6150000   1.575021e-03  3.561100e-06
    465    467   2   0.50000     0.0600000    0.3000000   4.903125e-07  9.576416e-13
    465    470   2   0.50000     0.0600000    0.6150000   3.869820e-04  3.188634e-07
    466    467   2   0.50000     0.0600000    0.3000000   4.903125e-07  9.576416e-13
    466    470   2   0.50000     0.0600000    0.6150000   3.869820e-04  3.188634e-07
    448    471   2   0.50000     0.0800000   -0.5000000   1.095425e-03  1.218041e-06
    448    472   2   0.50000     0.0800000   -0.1150000   1.091018e-03  2.092768e-06
    467    471   2   0.50000     0.3000000   -0.5000000   2.153164e-06  6.980110e-12
    467    472   2   0.50000     0.3000000   -0.1150000   2.144502e-06  1.199282e-11
    439    469   2   0.50000    -0.1150000    0.1150000   2.431434e-04  1.541678e-07
    468    436   2   0.50000     0.1150000   -0.1150000   2.431434e-04  1.541678e-07
    468    469   2   0.50000     0.1150000    0.1150000   5.042375e-05  1.012808e-08
    449    473   2   0.50000    -0.5000000   -0.1150000   1.401943e-03  2.153106e-06
    449    487   2   0.50000    -0.5000000   -0.1150000   1.401943e-03  2.153106e-06
    471    473   2   0.50000    -0.5000000   -0.1150000   1.177174e-03  1.365843e-06
    471    487   2   0.50000    -0.5000000   -0.1150000   1.177174e-03  1.365843e-06
    470    474   2   0.50000     0.6150000   -0.1150000   1.692561e-03  3.993218e-06
    470    488   2   0.50000     0.6150000    0.1150000   3.510079e-04  2.623353e-07
    487    474   2   0.50000    -0.1150000   -0.1150000   1.172438e-03  2.346713e-06
    487    488   2   0.50000    -0.1150000    0.1150000   2.431434e-04  1.541678e-07
    470    486   2   0.50000     0.6150000   -0.1150000   1.692561e-03  3.993218e-06
    470    505   2   0.50000     0.6150000    0.1150000   3.510079e-04  2.623353e-07
    473    486   2   0.50000    -0.1150000   -0.1150000   1.172438e-03  2.346713e-06
    473    505   2   0.50000    -0.1150000    0.1150000   2.431434e-04  1.541678e-07
    472    475   2   0.50000    -0.1150000   -0.1150000   1.172438e-03  2.346713e-06
    472    489   2   0.50000    -0.1150000    0.1150000   2.431434e-04  1.541678e-07
    488    475   2   0.50000     0.1150000   -0.1150000   2.431434e-04  1.541678e-07
    488    489   2   0.50000     0.1150000    0.1150000   5.042375e-05  1.012808e-08
    473    476   2   0.50000    -0.1150000    0.6150000   1.692561e-03  3.993218e-06
    489    476   2   0.50000     0.1150000    0.6150000   3.510079e-04  2.623353e-07
    489    486   2   0.50000     0.1150000   -0.1150000   2.431434e-04  1.541678e-07
    474    477   2   0.50000    -0.1150000   -0.5000000   1.177174e-03  1.365843e-06
    474    478   2   0.50000    -0.1150000   -0.5000000   1.401943e-03  2.153106e-06
    486    477   2   0.50000    -0.1150000   -0.5000000   1.177174e-03  1.365843e-06
    486    478   2   0.50000    -0.1150000   -0.5000000   1.401943e-03  2.153106e-06
    474    504   2   0.50000    -0.1150000    0.1150000   2.431434e-04  1.541678e-07
    476    487   2   0.50000     0.6150000   -0.1150000   1.692561e-03  3.993218e-06
    476    504   2   0.50000     0.6150000    0.1150000   3.510079e-04  2.623353e-07
    475    479   2   0.50000    -0.1150000    0.0800000   1.091018e-03  2.092768e-06
    475    490   2   0.50000    -0.1150000    0.3000000   2.144502e-06  1.199282e-11
    477    479   2   0.50000    -0.5000000    0.0800000   1.095425e-03  1.218041e-06
    477    490   2   0.50000    -0.5000000    0.3000000   2.153164e-06  6.980110e-12
    476    480   2   0.50000     0.6150000   -0.1200000   1.575021e-03  3.561100e-06
    476    491   2   0.50000     0.6150000    0.0600000   3.869820e-04  3.188634e-07
    476    492   2   0.50000     0.6150000    0.0600000   3.869820e-04  3.188634e-07
    490    480   2   0.50000     0.3000000   -0.1200000   1.995577e-06  1.069504e-11
    490    491   2   0.50000     0.3000000    0.0600000   4.903125e-07  9.576416e-13
    490    492   2   0.50000     0.3000000    0.0600000   4.903125e-07  9.576416e-13
    478    481   2   0.50000    -0.5000000   -0.1200000   1.304585e-03  1.920112e-06
    478    493   2   0.50000    -0.5000000    0.0600000   3.205360e-04  1.719281e-07
    478    494   2   0.50000    -0.5000000    0.0600000   3.205360e-04  1.719281e-07
    491    481   2   0.50000     0.0600000   -0.1200000   2.494471e-04  1.671101e-07
    491    493   2   0.50000     0.0600000    0.0600000   6.128906e-05  1.496315e-08
    491    494   2   0.50000     0.0600000    0.0600000   6.128906e-05  1.496315e-08
    492    481   2   0.50000     0.0600000   -0.1200000   2.494471e-04  1.671101e-07
    492    493   2   0.50000     0.0600000    0.0600000   6.128906e-05  1.496315e-08
    492    494   2   0.50000     0.0600000    0.0600000   6.128906e-05  1.496315e-08
    479    482   2   0.50000     0.0800000   -0.1200000   1.015252e-03  1.866303e-06
    479    495   2   0.50000     0.0800000    0.0600000   2.494471e-04  1.671101e-07
    479    496   2   0.50000     0.0800000    0.0600000   2.494471e-04  1.671101e-07
    493    482   2   0.50000     0.0600000   -0.1200000   2.494471e-04  1.671101e-07
    493    495   2   0.50000     0.0600000    0.0600000   6.128906e-05  1.496315e-08
    493    496   2   0.50000     0.0600000    0.0600000   6.128906e-05  1.496315e-08
    494    482   2   0.50000     0.0600000   -0.1200000   2.494471e-04  1.671101e-07
    494    495   2   0.50000     0.0600000    0.0600000   6.128906e-05  1.496315e-08
    494    496   2   0.50000     0.0600000    0.0600000   6.128906e-05  1.496315e-08
    480    483   2   0.50000    -0.1200000   -0.1200000   1.015252e-03  1.866303e-06
    480    497   2   0.50000    -0.1200000    0.0600000   2.494471e-04  1.671101e-07
    480    498   2   0.50000    -0.1200000    0.0600000   2.494471e-04  1.671101e-07
    495    483   2   0.50000     0.0600000   -0.1200000   2.494471e-04  1.671101e-07
    495    497   2   0.50000     0.0600000    0.0600000   6.128906e-05  1.496315e-08
    495    498   2   0.50000     0.0600000    0.0600000   6.128906e-05  1.496315e-08
    496    483   2   0.50000     0.0600000   -0.1200000   2.494471e-04  1.671101e-07
    496    497   2   0.50000     0.0600000    0.0600000   6.128906e-05  1.496315e-08
    496    498   2   0.50000     0.0600000    0.0600000   6.128906e-05  1.496315e-08
    481    484   2   0.50000    -0.1200000    0.0800000   1.015252e-03  1.866303e-06
    481    499   2   0.50000    -0.1200000    0.0600000   2.494471e-04  1.671101e-07
    481    500   2   0.50000    -0.1200000    0.0600000   2.494471e-04  1.671101e-07
    497    484   2   0.50000     0.0600000    0.0800000   2.494471e-04  1.671101e-07
    497    499   2   0.50000     0.0600000    0.0600000   6.128906e-05  1.496315e-08
    497    500   2   0.50000     0.0600000    0.0600000   6.128906e-05  1.496315e-08
    498    484   2   0.50000     0.0600000    0.0800000   2.494471e-04  1.671101e-07
    498    499   2   0.50000     0.0600000    0.0600000   6.128906e-05  1.496315e-08
    498    500   2   0.50000     0.0600000    0.0600000   6.128906e-05  1.496315e-08
    482    485   2   0.50000    -0.1200000   -0.5000000   1.304585e-03  1.920112e-06
    482    501   2   0.50000    -0.1200000    0.0600000   2.494471e-04  1.671101e-07
    482    502   2   0.50000    -0.1200000    0.0600000   2.494471e-04  1.671101e-07
    499    485   2   0.50000     0.0600000   -0.5000000   3.205360e-04  1.719281e-07
    499    501   2   0.50000     0.0600000    0.0600000   6.128906e-05  1.496315e-08
    499    502   2   0.50000     0.0600000    0.0600000   6.128906e-05  1.496315e-08
    500    485   2   0.50000     0.0600000   -0.5000000   3.205360e-04  1.719281e-07
    500    501   2   0.50000     0.0600000    0.0600000   6.128906e-05  1.496315e-08
    500    502   2   0.50000     0.0600000    0.0600000   6.128906e-05  1.496315e-08
    483    503   2   0.50000    -0.1200000    0.3000000   1.995577e-06  1.069504e-11
    483    506   2   0.50000    -0.1200000    0.6150000   1.575021e-03  3.561100e-06
    501    503   2   0.50000     0.0600000    0.3000000   4.903125e-07  9.576416e-13
    501    506   2   0.50000     0.0600000    0.6150000   3.869820e-04  3.188634e-07
    502    503   2   0.50000     0.0600000    0.3000000   4.903125e-07  9.576416e-13
    502    506   2   0.50000     0.0600000    0.6150000   3.869820e-04  3.188634e-07
    484    507   2   0.50000     0.0800000   -0.5000000   1.095425e-03  1.218041e-06
    484    508   2   0.50000     0.0800000   -0.1150000   1.091018e-03  2.092768e-06
    503    507   2   0.50000     0.3000000   -0.5000000   2.153164e-06  6.980110e-12
    503    508   2   0.50000     0.3000000   -0.1150000   2.144502e-06  1.199282e-11
    475    505   2   0.50000    -0.1150000    0.1150000   2.431434e-04  1.541678e-07
    504    472   2   0.50000     0.1150000   -0.1150000   2.431434e-04  1.541678e-07
    504    505   2   0.50000     0.1150000    0.1150000   5.042375e-05  1.012808e-08
    485    509   2   0.50000    -0.5000000   -0.1150000   1.401943e-03  2.153106e-06
    485    523   2   0.50000    -0.5000000   -0.1150000   1.401943e-03  2.153106e-06
    507    509   2   0.50000    -0.5000000   -0.1150000   1.177174e-03  1.365843e-06
    507    523   2   0.50000    -0.5000000   -0.1150000   1.177174e-03  1.365843e-06
    506    510   2   0.50000     0.6150000   -0.1150000   1.692561e-03  3.993218e-06
    506    524   2   0.50000     0.6150000    0.1150000   3.510079e-04  2.623353e-07
    523    510   2   0.50000    -0.1150000   -0.1150000   1.172438e-03  2.346713e-06
    523    524   2   0.50000    -0.1150000    0.1150000   2.431434e-04  1.541678e-07
    506    522   2   0.50000     0.6150000   -0.1150000   1.692561e-03  3.993218e-06
    506    541   2   0.50000     0.6150000    0.1150000   3.510079e-04  2.623353e-07
    509    522   2   0.50000    -0.1150000   -0.1150000   1.172438e-03  2.346713e-06
    509    541   2   0.50000    -0.1150000    0.1150000   2.431434e-04  1.541678e-07
    508    511   2   0.50000    -0.1150000   -0.1150000   1.172438e-03  2.346713e-06
    508    525   2   0.50000    -0.1150000    0.1150000   2.431434e-04  1.541678e-07
    524    511   2   0.50000     0.1150000   -0.1150000   2.431434e-04  1.541678e-07
    524    525   2   0.50000     0.1150000    0.1150000   5.042375e-05  1.012808e-08
    509    512   2   0.50000    -0.1150000    0.6150000   1.692561e-03  3.993218e-06
    525    512   2   0.50000     0.1150000    0.6150000   3.510079e-04  2.623353e-07
    525    522   2   0.50000     0.1150000   -0.1150000   2.431434e-04  1.541678e-07
    510    513   2   0.50000    -0.1150000   -0.5000000   1.177174e-03  1.365843e-06
    510    514   2   0.50000    -0.1150000   -0.5000000   1.401943e-03  2.153106e-06
    522    513   2   0.50000    -0.1150000   -0.5000000   1.177174e-03  1.365843e-06
    522    514   2   0.50000    -0.1150000   -0.5000000   1.401943e-03  2.153106e-06
    510    540   2   0.50000    -0.1150000    0.1150000   2.431434e-04  1.541678e-07
    512    523   2   0.50000     0.6150000   -0.1150000   1.692561e-03  3.993218e-06
    512    540   2   0.50000     0.6150000    0.1150000   3.510079e-04  2.623353e-07
    511    515   2   0.50000    -0.1150000    0.0800000   1.091018e-03  2.092768e-06
    511    526   2   0.50000    -0.1150000    0.3000000   2.144502e-06  1.199282e-11
    513    515   2   0.50000    -0.5000000    0.0800000   1.095425e-03  1.218041e-06
    513    526   2   0.50000    -0.5000000    0.3000000   2.153164e-06  6.980110e-12
    512    516   2   0.50000     0.6150000   -0.1200000   1.575021e-03  3.561100e-06
    512    527   2   0.50000     0.6150000    0.0600000   3.869820e-04  3.188634e-07
    512    528   2   0.50000     0.6150000    0.0600000   3.869820e-04  3.188634e-07
    526    516   2   0.50000     0.3000000   -0.1200000   1.995577e-06  1.069504e-11
    526    527   2   0.50000     0.3000000    0.0600000   4.903125e-07  9.576416e-13
    526    528   2   0.50000     0.3000000    0.0600000   4.903125e-07  9.576416e-13
    514    517   2   0.50000    -0.5000000   -0.1200000   1.304585e-03  1.920112e-06
    514    529   2   0.50000    -0.5000000    0.0600000   3.205360e-04  1.719281e-07
    514    530   2   0.50000    -0.5000000    0.0600000   3.205360e-04  1.719281e-07
    527    517   2   0.50000     0.0600000   -0.1200000   2.494471e-04  1.671101e-07
    527    529   2   0.50000     0.0600000    0.0600000   6.128906e-05  1.496315e-08
    527    530   2   0.50000     0.0600000    0.0600000   6.128906e-05  1.496315e-08
    528    517   2   0.50000     0.0600000   -0.1200000   2.494471e-04  1.671101e-07
    528    529   2   0.50000     0.0600000    0.0600000   6.128906e-05  1.496315e-08
    528    530   2   0.50000     0.0600000    0.0600000   6.128906e-05  1.496315e-08
    515    518   2   0.50000     0.0800000   -0.1200000   1.015252e-03  1.866303e-06
    515    531   2   0.50000     0.0800000    0.0600000   2.494471e-04  1.671101e-07
    515    532   2   0.50000     0.0800000    0.0600000   2.494471e-04  1.671101e-07
    529    518   2   0.50000     0.0600000   -0.1200000   2.494471e-04  1.671101e-07
    529    531   2   0.50000     0.0600000    0.0600000   6.128906e-05  1.496315e-08
    529    532   2   0.50000     0.0600000    0.0600000   6.128906e-05  1.496315e-08
    530    518   2   0.50000     0.0600000   -0.1200000   2.494471e-04  1.671101e-07
    530    531   2   0.50000     0.0600000    0.0600000   6.128906e-05  1.496315e-08
    530    532   2   0.50000     0.0600000    0.0600000   6.128906e-05  1.496315e-08
    516    519   2   0.50000    -0.1200000   -0.1200000   1.015252e-03  1.866303e-06
    516    533   2   0.50000    -0.1200000    0.0600000   2.494471e-04  1.671101e-07
    516    534   2   0.50000    -0.1200000    0.0600000   2.494471e-04  1.671101e-07
    531    519   2   0.50000     0.0600000   -0.1200000   2.494471e-04  1.671101e-07
    531    533   2   0.50000     0.0600000    0.0600000   6.128906e-05  1.496315e-08
    531    534   2   0.50000     0.0600000    0.0600000   6.128906e-05  1.496315e-08
    532    519   2   0.50000     0.0600000   -0.1200000   2.494471e-04  1.671101e-07
    532    533   2   0.50000     0.0600000    0.0600000   6.128906e-05  1.496315e-08
    532    534   2   0.50000     0.0600000    0.0600000   6.128906e-05  1.496315e-08
    517    520   2   0.50000    -0.1200000    0.0800000   1.015252e-03  1.866303e-06
    517    535   2   0.50000    -0.1200000    0.0600000   2.494471e-04  1.671101e-07
    517    536   2   0.50000    -0.1200000    0.0600000   2.494471e-04  1.671101e-07
    533    520   2   0.50000     0.0600000    0.0800000   2.494471e-04  1.671101e-07
    533    535   2   0.50000     0.0600000    0.0600000   6.128906e-05  1.496315e-08
    533    536   2   0.50000     0.0600000    0.0600000   6.128906e-05  1.496315e-08
    534    520   2   0.50000     0.0600000    0.0800000   2.494471e-04  1.671101e-07
    534    535   2   0.50000     0.0600000    0.0600000   6.128906e-05  1.496315e-08
    534    536   2   0.50000     0.0600000    0.0600000   6.128906e-05  1.496315e-08
    518    521   2   0.50000    -0.1200000   -0.5000000   1.304585e-03  1.920112e-06
    518    537   2   0.50000    -0.1200000    0.0600000   2.494471e-04  1.671101e-07
    518    538   2   0.50000    -0.1200000    0.0600000   2.494471e-04  1.671101e-07
    535    521   2   0.50000     0.0600000   -0.5000000   3.205360e-04  1.719281e-07
    535    537   2   0.50000     0.0600000    0.0600000   6.128906e-05  1.496315e-08
    535    538   2   0.50000     0.0600000    0.0600000   6.128906e-05  1.496315e-08
    536    521   2   0.50000     0.0600000   -0.5000000   3.205360e-04  1.719281e-07
    536    537   2   0.50000     0.0600000    0.0600000   6.128906e-05  1.496315e-08
    536    538   2   0.50000     0.0600000    0.0600000   6.128906e-05  1.496315e-08
    519    539   2   0.50000    -0.1200000    0.3000000   1.995577e-06  1.069504e-11
    519    542   2   0.50000    -0.1200000    0.6150000   1.575021e-03  3.561100e-06
    537    539   2   0.50000     0.0600000    0.3000000   4.903125e-07  9.576416e-13
    537    542   2   0.50000     0.0600000    0.6150000   3.869820e-04  3.188634e-07
    538    539   2   0.50000     0.0600000    0.3000000   4.903125e-07  9.576416e-13
    538    542   2   0.50000     0.0600000    0.6150000   3.869820e-04  3.188634e-07
    520    543   2   0.50000     0.0800000   -0.5000000   1.095425e-03  1.218041e-06
    520    544   2   0.50000     0.0800000   -0.1150000   1.091018e-03  2.092768e-06
    539    543   2   0.50000     0.3000000   -0.5000000   2.153164e-06  6.980110e-12
    539    544   2   0.50000     0.3000000   -0.1150000   2.144502e-06  1.199282e-11
    511    541   2   0.50000    -0.1150000    0.1150000   2.431434e-04  1.541678e-07
    540    508   2   0.50000     0.1150000   -0.1150000   2.431434e-04  1.541678e-07
    540    541   2   0.50000     0.1150000    0.1150000   5.042375e-05  1.012808e-08
    521    545   2   0.50000    -0.5000000   -0.1150000   1.401943e-03  2.153106e-06
    521    559   2   0.50000    -0.5000000   -0.1150000   1.401943e-03  2.153106e-06
    543    545   2   0.50000    -0.5000000   -0.1150000   1.177174e-03  1.365843e-06
    543    559   2   0.50000    -0.5000000   -0.1150000   1.177174e-03  1.365843e-06
    542    546   2   0.50000     0.6150000   -0.1150000   1.692561e-03  3.993218e-06
    542    560   2   0.50000     0.6150000    0.1150000   3.510079e-04  2.623353e-07
    559    546   2   0.50000    -0.1150000   -0.1150000   1.172438e-03  2.346713e-06
    559    560   2   0.50000    -0.1150000    0.1150000   2.431434e-04  1.541678e-07
    542    558   2   0.50000     0.6150000   -0.1150000   1.692561e-03  3.993218e-06
    542    577   2   0.50000     0.6150000    0.1150000   3.510079e-04  2.623353e-07
    545    558   2   0.50000    -0.1150000   -0.1150000   1.172438e-03  2.346713e-06
    545    577   2   0.50000    -0.1150000    0.1150000   2.431434e-04  1.541678e-07
    544    547   2   0.50000    -0.1150000   -0.1150000   1.172438e-03  2.346713e-06
    544    561   2   0.50000    -0.1150000    0.1150000   2.431434e-04  1.541678e-07
    560    547   2   0.50000     0.1150000   -0.1150000   2.431434e-04  1.541678e-07
    560    561   2   0.50000     0.1150000    0.1150000   5.042375e-05  1.012808e-08
    545    548   2   0.50000    -0.1150000    0.6150000   1.692561e-03  3.993218e-06
    561    548   2   0.50000     0.1150000    0.6150000   3.510079e-04  2.623353e-07
    561    558   2   0.50000     0.1150000   -0.1150000   2.431434e-04  1.541678e-07
    546    549   2   0.50000    -0.1150000   -0.5000000   1.177174e-03  1.365843e-06
    546    550   2   0.50000    -0.1150000   -0.5000000   1.401943e-03  2.153106e-06
    558    549   2   0.50000    -0.1150000   -0.5000000   1.177174e-03  1.365843e-06
    558    550   2   0.50000    -0.1150000   -0.5000000   1.401943e-03  2.153106e-06
    546    576   2   0.50000    -0.1150000    0.1150000   2.431434e-04  1.541678e-07
    548    559   2   0.50000     0.6150000   -0.1150000   1.692561e-03  3.993218e-06
    548    576   2   0.50000     0.6150000    0.1150000   3.510079e-04  2.623353e-07
    547    551   2   0.50000    -0.1150000    0.0800000   1.091018e-03  2.092768e-06
    547    562   2   0.50000    -0.1150000    0.3000000   2.144502e-06  1.199282e-11
    549    551   2   0.50000    -0.5000000    0.0800000   1.095425e-03  1.218041e-06
    549    562   2   0.50000    -0.5000000    0.3000000   2.153164e-06  6.980110e-12
    548    552   2   0.50000     0.6150000   -0.1200000   1.575021e-03  3.561100e-06
    548    563   2   0.50000     0.6150000    0.0600000   3.869820e-04  3.188634e-07
    548    564   2   0.50000     0.6150000    0.0600000   3.869820e-04  3.188634e-07
    562    552   2   0.50000     0.3000000   -0.1200000   1.995577e-06  1.069504e-11
    562    563   2   0.50000     0.3000000    0.0600000   4.903125e-07  9.576416e-13
    562    564   2   0.50000     0.3000000    0.0600000   4.903125e-07  9.576416e-13
    550    553   2   0.50000    -0.5000000   -0.1200000   1.304585e-03  1.920112e-06
    550    565   2   0.50000    -0.5000000    0.0600000   3.205360e-04  1.719281e-07
    550    566   2   0.50000    -0.5000000    0.0600000   3.205360e-04  1.719281e-07
    563    553   2   0.50000     0.0600000   -0.1200000   2.494471e-04  1.671101e-07
    563    565   2   0.50000     0.0600000    0.0600000   6.128906e-05  1.496315e-08
    563    566   2   0.50000     0.0600000    0.0600000   6.128906e-05  1.496315e-08
    564    553   2   0.50000     0.0600000   -0.1200000   2.494471e-04  1.671101e-07
    564    565   2   0.50000     0.0600000    0.0600000   6.128906e-05  1.496315e-08
    564    566   2   0.50000     0.0600000    0.0600000   6.128906e-05  1.496315e-08
    551    554   2   0.50000     0.0800000   -0.1200000   1.015252e-03  1.866303e-06
    551    567   2   0.50000     0.0800000    0.0600000   2.494471e-04  1.671101e-07
    551    568   2   0.50000     0.0800000    0.0600000   2.494471e-04  1.671101e-07
    565    554   2   0.50000     0.0600000   -0.1200000   2.494471e-04  1.671101e-07
    565    567   2   0.50000     0.0600000    0.0600000   6.128906e-05  1.496315e-08
    565    568   2   0.50000     0.0600000    0.0600000   6.128906e-05  1.496315e-08
    566    554   2   0.50000     0.0600000   -0.1200000   2.494471e-04  1.671101e-07
    566    567   2   0.50000     0.0600000    0.0600000   6.128906e-05  1.496315e-08
    566    568   2   0.50000     0.0600000    0.0600000   6.128906e-05  1.496315e-08
    552    555   2   0.50000    -0.1200000   -0.1200000   1.015252e-03  1.866303e-06
    552    569   2   0.50000    -0.1200000    0.0600000   2.494471e-04  1.671101e-07
    552    570   2   0.50000    -0.1200000    0.0600000   2.494471e-04  1.671101e-07
    567    555   2   0.50000     0.0600000   -0.1200000   2.494471e-04  1.671101e-07
    567    569   2   0.50000     0.0600000    0.0600000   6.128906e-05  1.496315e-08
    567    570   2   0.50000     0.0600000    0.0600000   6.128906e-05  1.496315e-08
    568    555   2   0.50000     0.0600000   -0.1200000   2.494471e-04  1.671101e-07
    568    569   2   0.50000     0.0600000    0.0600000   6.128906e-05  1.496315e-08
    568    570   2   0.50000     0.0600000    0.0600000   6.128906e-05  1.496315e-08
    553    556   2   0.50000    -0.1200000    0.0800000   1.015252e-03  1.866303e-06
    553    571   2   0.50000    -0.1200000    0.0600000   2.494471e-04  1.671101e-07
    553    572   2   0.50000    -0.1200000    0.0600000   2.494471e-04  1.671101e-07
    569    556   2   0.50000     0.0600000    0.0800000   2.494471e-04  1.671101e-07
    569    571   2   0.50000     0.0600000    0.0600000   6.128906e-05  1.496315e-08
    569    572   2   0.50000     0.0600000    0.0600000   6.128906e-05  1.496315e-08
    570    556   2   0.50000     0.0600000    0.0800000   2.494471e-04  1.671101e-07
    570    571   2   0.50000     0.0600000    0.0600000   6.128906e-05  1.496315e-08
    570    572   2   0.50000     0.0600000    0.0600000   6.128906e-05  1.496315e-08
    554    557   2   0.50000    -0.1200000   -0.5000000   1.304585e-03  1.920112e-06
    554    573   2   0.50000    -0.1200000    0.0600000   2.494471e-04  1.671101e-07
    554    574   2   0.50000    -0.1200000    0.0600000   2.494471e-04  1.671101e-07
    571    557   2   0.50000     0.0600000   -0.5000000   3.205360e-04  1.719281e-07
    571    573   2   0.50000     0.0600000    0.0600000   6.128906e-05  1.496315e-08
    571    574   2   0.50000     0.0600000    0.0600000   6.128906e-05  1.496315e-08
    572    557   2   0.50000     0.0600000   -0.5000000   3.205360e-04  1.719281e-07
    572    573   2   0.50000     0.0600000    0.0600000   6.128906e-05  1.496315e-08
    572    574   2   0.50000     0.0600000    0.0600000   6.128906e-05  1.496315e-08
    555    575   2   0.50000    -0.1200000    0.3000000   1.995577e-06  1.069504e-11
    555    578   2   0.50000    -0.1200000    0.6150000   1.575021e-03  3.561100e-06
    573    575   2   0.50000     0.0600000    0.3000000   4.903125e-07  9.576416e-13
    573    578   2   0.50000     0.0600000    0.6150000   3.869820e-04  3.188634e-07
    574    575   2   0.50000     0.0600000    0.3000000   4.903125e-07  9.576416e-13
    574    578   2   0.50000     0.0600000    0.6150000   3.869820e-04  3.188634e-07
    556    579   2   0.50000     0.0800000   -0.5000000   1.095425e-03  1.218041e-06
    556    580   2   0.50000     0.0800000   -0.1150000   1.091018e-03  2.092768e-06
    575    579   2   0.50000     0.3000000   -0.5000000   2.153164e-06  6.980110e-12
    575    580   2   0.50000     0.3000000   -0.1150000   2.144502e-06  1.199282e-11
    547    577   2   0.50000    -0.1150000    0.1150000   2.431434e-04  1.541678e-07
    576    544   2   0.50000     0.1150000   -0.1150000   2.431434e-04  1.541678e-07
    576    577   2   0.50000     0.1150000    0.1150000   5.042375e-05  1.012808e-08
    557    581   2   0.50000    -0.5000000   -0.1150000   1.401943e-03  2.153106e-06
    557    595   2   0.50000    -0.5000000   -0.1150000   1.401943e-03  2.153106e-06
    579    581   2   0.50000    -0.5000000   -0.1150000   1.177174e-03  1.365843e-06
    579    595   2   0.50000    -0.5000000   -0.1150000   1.177174e-03  1.365843e-06
    578    582   2   0.50000     0.6150000   -0.1150000   1.692561e-03  3.993218e-06
    578    596   2   0.50000     0.6150000    0.1150000   3.510079e-04  2.623353e-07
    595    582   2   0.50000    -0.1150000   -0.1150000   1.172438e-03  2.346713e-06
    595    596   2   0.50000    -0.1150000    0.1150000   2.431434e-04  1.541678e-07
    578    594   2   0.50000     0.6150000   -0.1150000   1.692561e-03  3.993218e-06
    578    613   2   0.50000     0.6150000    0.1150000   3.510079e-04  2.623353e-07
    581    594   2   0.50000    -0.1150000   -0.1150000   1.172438e-03  2.346713e-06
    581    613   2   0.50000    -0.1150000    0.1150000   2.431434e-04  1.541678e-07
    580    583   2   0.50000    -0.1150000   -0.1150000   1.172438e-03  2.346713e-06
    580    597   2   0.50000    -0.1150000    0.1150000   2.431434e-04  1.541678e-07
    596    583   2   0.50000     0.1150000   -0.1150000   2.431434e-04  1.541678e-07
    596    597   2   0.50000     0.1150000    0.1150000   5.042375e-05  1.012808e-08
    581    584   2   0.50000    -0.1150000    0.6150000   1.692561e-03  3.993218e-06
    597    584   2   0.50000     0.1150000    0.6150000   3.510079e-04  2.623353e-07
    597    594   2   0.50000     0.1150000   -0.1150000   2.431434e-04  1.541678e-07
    582    585   2   0.50000    -0.1150000   -0.5000000   1.177174e-03  1.365843e-06
    582    586   2   0.50000    -0.1150000   -0.5000000   1.401943e-03  2.153106e-06
    594    585   2   0.50000    -0.1150000   -0.5000000   1.177174e-03  1.365843e-06
    594    586   2   0.50000    -0.1150000   -0.5000000   1.401943e-03  2.153106e-06
    582    612   2   0.50000    -0.1150000    0.1150000   2.431434e-04  1.541678e-07
    584    595   2   0.50000     0.6150000   -0.1150000   1.692561e-03  3.993218e-06
    584    612   2   0.50000     0.6150000    0.1150000   3.510079e-04  2.623353e-07
    583    587   2   0.50000    -0.1150000    0.0800000   1.091018e-03  2.092768e-06
    583    598   2   0.50000    -0.1150000    0.3000000   2.144502e-06  1.199282e-11
    585    587   2   0.50000    -0.5000000    0.0800000   1.095425e-03  1.218041e-06
    585    598   2   0.50000    -0.5000000    0.3000000   2.153164e-06  6.980110e-12
    584    588   2   0.50000     0.6150000   -0.1200000   1.575021e-03  3.561100e-06
    584    599   2   0.50000     0.6150000    0.0600000   3.869820e-04  3.188634e-07
    584    600   2   0.50000     0.6150000    0.0600000   3.869820e-04  3.188634e-07
    598    588   2   0.50000     0.3000000   -0.1200000   1.995577e-06  1.069504e-11
    598    599   2   0.50000     0.3000000    0.0600000   4.903125e-07  9.576416e-13
    598    600   2   0.50000     0.3000000    0.0600000   4.903125e-07  9.576416e-13
    586    589   2   0.50000    -0.5000000   -0.1200000   1.304585e-03  1.920112e-06
    586    601   2   0.50000    -0.5000000    0.0600000   3.205360e-04  1.719281e-07
    586    602   2   0.50000    -0.5000000    0.0600000   3.205360e-04  1.719281e-07
    599    589   2   0.50000     0.0600000   -0.1200000   2.494471e-04  1.671101e-07
    599    601   2   0.50000     0.0600000    0.0600000   6.128906e-05  1.496315e-08
    599    602   2   0.50000     0.0600000    0.0600000   6.128906e-05  1.496315e-08
    600    589   2   0.50000     0.0600000   -0.1200000   2.494471e-04  1.671101e-07
    600    601   2   0.50000     0.0600000    0.0600000   6.128906e-05  1.496315e-08
    600    602   2   0.50000     0.0600000    0.0600000   6.128906e-05  1.496315e-08
    587    590   2   0.50000     0.0800000   -0.1200000   1.015252e-03  1.866303e-06
    587    603   2   0.50000     0.0800000    0.0600000   2.494471e-04  1.671101e-07
    587    604   2   0.50000     0.0800000    0.0600000   2.494471e-04  1.671101e-07
    601    590   2   0.50000     0.0600000   -0.1200000   2.494471e-04  1.671101e-07
    601    603   2   0.50000     0.0600000    0.0600000   6.128906e-05  1.496315e-08
    601    604   2   0.50000     0.0600000    0.0600000   6.128906e-05  1.496315e-08
    602    590   2   0.50000     0.0600000   -0.1200000   2.494471e-04  1.671101e-07
    602    603   2   0.50000     0.0600000    0.0600000   6.128906e-05  1.496315e-08
    602    604   2   0.50000     0.0600000    0.0600000   6.128906e-05  1.496315e-08
    588    591   2   0.50000    -0.1200000   -0.1200000   1.015252e-03  1.866303e-06
    588    605   2   0.50000    -0.1200000    0.0600000   2.494471e-04  1.671101e-07
    588    606   2   0.50000    -0.1200000    0.0600000   2.494471e-04  1.671101e-07
    603    591   2   0.50000     0.0600000   -0.1200000   2.494471e-04  1.671101e-07
    603    605   2   0.50000     0.0600000    0.0600000   6.128906e-05  1.496315e-08
    603    606   2   0.50000     0.0600000    0.0600000   6.128906e-05  1.496315e-08
    604    591   2   0.50000     0.0600000   -0.1200000   2.494471e-04  1.671101e-07
    604    605   2   0.50000     0.0600000    0.0600000   6.128906e-05  1.496315e-08
    604    606   2   0.50000     0.0600000    0.0600000   6.128906e-05  1.496315e-08
    589    592   2   0.50000    -0.1200000    0.0800000   1.015252e-03  1.866303e-06
    589    607   2   0.50000    -0.1200000    0.0600000   2.494471e-04  1.671101e-07
    589    608   2   0.50000    -0.1200000    0.0600000   2.494471e-04  1.671101e-07
    605    592   2   0.50000     0.0600000    0.0800000   2.494471e-04  1.671101e-07
    605    607   2   0.50000     0.0600000    0.0600000   6.128906e-05  1.496315e-08
    605    608   2   0.50000     0.0600000    0.0600000   6.128906e-05  1.496315e-08
    606    592   2   0.50000     0.0600000    0.0800000   2.494471e-04  1.671101e-07
    606    607   2   0.50000     0.0600000    0.0600000   6.128906e-05  1.496315e-08
    606    608   2   0.50000     0.0600000    0.0600000   6.128906e-05  1.496315e-08
    590    593   2   0.50000    -0.1200000   -0.5000000   1.304585e-03  1.920112e-06
    590    609   2   0.50000    -0.1200000    0.0600000   2.494471e-04  1.671101e-07
    590    610   2   0.50000    -0.1200000    0.0600000   2.494471e-04  1.671101e-07
    607    593   2   0.50000     0.0600000   -0.5000000   3.205360e-04  1.719281e-07
    607    609   2   0.50000     0.0600000    0.0600000   6.128906e-05  1.496315e-08
    607    610   2   0.50000     0.0600000    0.0600000   6.128906e-05  1.496315e-08
    608    593   2   0.50000     0.0600000   -0.5000000   3.205360e-04  1.719281e-07
    608    609   2   0.50000     0.0600000    0.0600000   6.128906e-05  1.496315e-08
    608    610   2   0.50000     0.0600000    0.0600000   6.128906e-05  1.496315e-08
    591    611   2   0.50000    -0.1200000    0.3000000   1.995577e-06  1.069504e-11
    591    614   2   0.50000    -0.1200000    0.6150000   1.575021e-03  3.561100e-06
    609    611   2   0.50000     0.0600000    0.3000000   4.903125e-07  9.576416e-13
    609    614   2   0.50000     0.0600000    0.6150000   3.869820e-04  3.188634e-07
    610    611   2   0.50000     0.0600000    0.3000000   4.903125e-07  9.576416e-13
    610    614   2   0.50000     0.0600000    0.6150000   3.869820e-04  3.188634e-07
    592    615   2   0.50000     0.0800000   -0.5000000   1.095425e-03  1.218041e-06
    592    616   2   0.50000     0.0800000   -0.1150000   1.091018e-03  2.092768e-06
    611    615   2   0.50000     0.3000000   -0.5000000   2.153164e-06  6.980110e-12
    611    616   2   0.50000     0.3000000   -0.1150000   2.144502e-06  1.199282e-11
    583    613   2   0.50000    -0.1150000    0.1150000   2.431434e-04  1.541678e-07
    612    580   2   0.50000     0.1150000   -0.1150000   2.431434e-04  1.541678e-07
    612    613   2   0.50000     0.1150000    0.1150000   5.042375e-05  1.012808e-08
    593    617   2   0.50000    -0.5000000   -0.1150000   1.401943e-03  2.153106e-06
    593    631   2   0.50000    -0.5000000   -0.1150000   1.401943e-03  2.153106e-06
    615    617   2   0.50000    -0.5000000   -0.1150000   1.177174e-03  1.365843e-06
    615    631   2   0.50000    -0.5000000   -0.1150000   1.177174e-03  1.365843e-06
    614    618   2   0.50000     0.6150000   -0.1150000   1.692561e-03  3.993218e-06
    614    632   2   0.50000     0.6150000    0.1150000   3.510079e-04  2.623353e-07
    631    618   2   0.50000    -0.1150000   -0.1150000   1.172438e-03  2.346713e-06
    631    632   2   0.50000    -0.1150000    0.1150000   2.431434e-04  1.541678e-07
    614    630   2   0.50000     0.6150000   -0.1150000   1.692561e-03  3.993218e-06
    614    649   2   0.50000     0.6150000    0.1150000   3.510079e-04  2.623353e-07
    617    630   2   0.50000    -0.1150000   -0.1150000   1.172438e-03  2.346713e-06
    617    649   2   0.50000    -0.1150000    0.1150000   2.431434e-04  1.541678e-07
    616    619   2   0.50000    -0.1150000   -0.1150000   1.172438e-03  2.346713e-06
    616    633   2   0.50000    -0.1150000    0.1150000   2.431434e-04  1.541678e-07
    632    619   2   0.50000     0.1150000   -0.1150000   2.431434e-04  1.541678e-07
    632    633   2   0.50000     0.1150000    0.1150000   5.042375e-05  1.012808e-08
    617    620   2   0.50000    -0.1150000    0.6150000   1.692561e-03  3.993218e-06
    633    620   2   0.50000     0.1150000    0.6150000   3.510079e-04  2.623353e-07
    633    630   2   0.50000     0.1150000   -0.1150000   2.431434e-04  1.541678e-07
    618    621   2   0.50000    -0.1150000   -0.5000000   1.177174e-03  1.365843e-06
    618    622   2   0.50000    -0.1150000   -0.5000000   1.401943e-03  2.153106e-06
    630    621   2   0.50000    -0.1150000   -0.5000000   1.177174e-03  1.365843e-06
    630    622   2   0.50000    -0.1150000   -0.5000000   1.401943e-03  2.153106e-06
    618    648   2   0.50000    -0.1150000    0.1150000   2.431434e-04  1.541678e-07
    620    631   2   0.50000     0.6150000   -0.1150000   1.692561e-03  3.993218e-06
    620    648   2   0.50000     0.6150000    0.1150000   3.510079e-04  2.623353e-07
    619    623   2   0.50000    -0.1150000    0.0800000   1.091018e-03  2.092768e-06
    619    634   2   0.50000    -0.1150000    0.3000000   2.144502e-06  1.199282e-11
    621    623   2   0.50000    -0.5000000    0.0800000   1.095425e-03  1.218041e-06
    621    634   2   0.50000    -0.5000000    0.3000000   2.153164e-06  6.980110e-12
    620    624   2   0.50000     0.6150000   -0.1200000   1.575021e-03  3.561100e-06
    620    635   2   0.50000     0.6150000    0.0600000   3.869820e-04  3.188634e-07
    620    636   2   0.50000     0.6150000    0.0600000   3.869820e-04  3.188634e-07
    634    624   2   0.50000     0.3000000   -0.1200000   1.995577e-06  1.069504e-11
    634    635   2   0.50000     0.3000000    0.0600000   4.903125e-07  9.576416e-13
    634    636   2   0.50000     0.3000000    0.0600000   4.903125e-07  9.576416e-13
    622    625   2   0.50000    -0.5000000   -0.1200000   1.304585e-03  1.920112e-06
    622    637   2   0.50000    -0.5000000    0.0600000   3.205360e-04  1.719281e-07
    622    638   2   0.50000    -0.5000000    0.0600000   3.205360e-04  1.719281e-07
    635    625   2   0.50000     0.0600000   -0.1200000   2.494471e-04  1.671101e-07
    635    637   2   0.50000     0.0600000    0.0600000   6.128906e-05  1.496315e-08
    635    638   2   0.50000     0.0600000    0.0600000   6.128906e-05  1.496315e-08
    636    625   2   0.50000     0.0600000   -0.1200000   2.494471e-04  1.671101e-07
    636    637   2   0.50000     0.0600000    0.0600000   6.128906e-05  1.496315e-08
    636    638   2   0.50000     0.0600000    0.0600000   6.128906e-05  1.496315e-08
    623    626   2   0.50000     0.0800000   -0.1200000   1.015252e-03  1.866303e-06
    623    639   2   0.50000     0.0800000    0.0600000   2.494471e-04  1.671101e-07
    623    640   2   0.50000     0.0800000    0.0600000   2.494471e-04  1.671101e-07
    637    626   2   0.50000     0.0600000   -0.1200000   2.494471e-04  1.671101e-07
    637    639   2   0.50000     0.0600000    0.0600000   6.128906e-05  1.496315e-08
    637    640   2   0.50000     0.0600000    0.0600000   6.128906e-05  1.496315e-08
    638    626   2   0.50000     0.0600000   -0.1200000   2.494471e-04  1.671101e-07
    638    639   2   0.50000     0.0600000    0.0600000   6.128906e-05  1.496315e-08
    638    640   2   0.50000     0.0600000    0.0600000   6.128906e-05  1.496315e-08
    624    627   2   0.50000    -0.1200000   -0.1200000   1.015252e-03  1.866303e-06
    624    641   2   0.50000    -0.1200000    0.0600000   2.494471e-04  1.671101e-07
    624    642   2   0.50000    -0.1200000    0.0600000   2.494471e-04  1.671101e-07
    639    627   2   0.50000     0.0600000   -0.1200000   2.494471e-04  1.671101e-07
    639    641   2   0.50000     0.0600000    0.0600000   6.128906e-05  1.496315e-08
    639    642   2   0.50000     0.0600000    0.0600000   6.128906e-05  1.496315e-08
    640    627   2   0.50000     0.0600000   -0.1200000   2.494471e-04  1.671101e-07
    640    641   2   0.50000     0.0600000    0.0600000   6.128906e-05  1.496315e-08
    640    642   2   0.50000     0.0600000    0.0600000   6.128906e-05  1.496315e-08
    625    628   2   0.50000    -0.1200000    0.0800000   1.015252e-03  1.866303e-06
    625    643   2   0.50000    -0.1200000    0.0600000   2.494471e-04  1.671101e-07
    625    644   2   0.50000    -0.1200000    0.0600000   2.494471e-04  1.671101e-07
    641    628   2   0.50000     0.0600000    0.0800000   2.494471e-04  1.671101e-07
    641    643   2   0.50000     0.0600000    0.0600000   6.128906e-05  1.496315e-08
    641    644   2   0.50000     0.0600000    0.0600000   6.128906e-05  1.496315e-08
    642    628   2   0.50000     0.0600000    0.0800000   2.494471e-04  1.671101e-07
    642    643   2   0.50000     0.0600000    0.0600000   6.128906e-05  1.496315e-08
    642    644   2   0.50000     0.0600000    0.0600000   6.128906e-05  1.496315e-08
    626    629   2   0.50000    -0.1200000   -0.5000000   1.304585e-03  1.920112e-06
    626    645   2   0.50000    -0.1200000    0.0600000   2.494471e-04  1.671101e-07
    626    646   2   0.50000    -0.1200000    0.0600000   2.494471e-04  1.671101e-07
    643    629   2   0.50000     0.0600000   -0.5000000   3.205360e-04  1.719281e-07
    643    645   2   0.50000     0.0600000    0.0600000   6.128906e-05  1.496315e-08
    643    646   2   0.50000     0.0600000    0.0600000   6.128906e-05  1.496315e-08
    644    629   2   0.50000     0.0600000   -0.5000000   3.205360e-04  1.719281e-07
    644    645   2   0.50000     0.0600000    0.0600000   6.128906e-05  1.496315e-08
    644    646   2   0.50000     0.0600000    0.0600000   6.128906e-05  1.496315e-08
    627    647   2   0.50000    -0.1200000    0.3000000   1.995577e-06  1.069504e-11
    627    650   2   0.50000    -0.1200000    0.6150000   1.575021e-03  3.561100e-06
    645    647   2   0.50000     0.0600000    0.3000000   4.903125e-07  9.576416e-13
    645    650   2   0.50000     0.0600000    0.6150000   3.869820e-04  3.188634e-07
    646    647   2   0.50000     0.0600000    0.3000000   4.903125e-07  9.576416e-13
    646    650   2   0.50000     0.0600000    0.6150000   3.869820e-04  3.188634e-07
    628    651   2   0.50000     0.0800000   -0.5000000   1.095425e-03  1.218041e-06
    628    652   2   0.50000     0.0800000   -0.1150000   1.091018e-03  2.092768e-06
    647    651   2   0.50000     0.3000000   -0.5000000   2.153164e-06  6.980110e-12
    647    652   2   0.50000     0.3000000   -0.1150000   2.144502e-06  1.199282e-11
    619    649   2   0.50000    -0.1150000    0.1150000   2.431434e-04  1.541678e-07
    648    616   2   0.50000     0.1150000   -0.1150000   2.431434e-04  1.541678e-07
    648    649   2   0.50000     0.1150000    0.1150000   5.042375e-05  1.012808e-08
    629    653   2   0.50000    -0.5000000   -0.1150000   1.401943e-03  2.153106e-06
    629    667   2   0.50000    -0.5000000   -0.1150000   1.401943e-03  2.153106e-06
    651    653   2   0.50000    -0.5000000   -0.1150000   1.177174e-03  1.365843e-06
    651    667   2   0.50000    -0.5000000   -0.1150000   1.177174e-03  1.365843e-06
    650    654   2   0.50000     0.6150000   -0.1150000   1.692561e-03  3.993218e-06
    650    668   2   0.50000     0.6150000    0.1150000   3.510079e-04  2.623353e-07
    667    654   2   0.50000    -0.1150000   -0.1150000   1.172438e-03  2.346713e-06
    667    668   2   0.50000    -0.1150000    0.1150000   2.431434e-04  1.541678e-07
    650    666   2   0.50000     0.6150000   -0.1150000   1.692561e-03  3.993218e-06
    650    685   2   0.50000     0.6150000    0.1150000   3.510079e-04  2.623353e-07
    653    666   2   0.50000    -0.1150000   -0.1150000   1.172438e-03  2.346713e-06
    653    685   2   0.50000    -0.1150000    0.1150000   2.431434e-04  1.541678e-07
    652    655   2   0.50000    -0.1150000   -0.1150000   1.172438e-03  2.346713e-06
    652    669   2   0.50000    -0.1150000    0.1150000   2.431434e-04  1.541678e-07
    668    655   2   0.50000     0.1150000   -0.1150000   2.431434e-04  1.541678e-07
    668    669   2   0.50000     0.1150000    0.1150000   5.042375e-05  1.012808e-08
    653    656   2   0.50000    -0.1150000    0.6150000   1.692561e-03  3.993218e-06
    669    656   2   0.50000     0.1150000    0.6150000   3.510079e-04  2.623353e-07
    669    666   2   0.50000     0.1150000   -0.1150000   2.431434e-04  1.541678e-07
    654    657   2   0.50000    -0.1150000   -0.5000000   1.177174e-03  1.365843e-06
    654    658   2   0.50000    -0.1150000   -0.5000000   1.401943e-03  2.153106e-06
    666    657   2   0.50000    -0.1150000   -0.5000000   1.177174e-03  1.365843e-06
    666    658   2   0.50000    -0.1150000   -0.5000000   1.401943e-03  2.153106e-06
    654    684   2   0.50000    -0.1150000    0.1150000   2.431434e-04  1.541678e-07
    656    667   2   0.50000     0.6150000   -0.1150000   1.692561e-03  3.993218e-06
    656    684   2   0.50000     0.6150000    0.1150000   3.510079e-04  2.623353e-07
    655    659   2   0.50000    -0.1150000    0.0800000   1.091018e-03  2.092768e-06
    655    670   2   0.50000    -0.1150000    0.3000000   2.144502e-06  1.199282e-11
    657    659   2   0.50000    -0.5000000    0.0800000   1.095425e-03  1.218041e-06
    657    670   2   0.50000    -0.5000000    0.3000000   2.153164e-06  6.980110e-12
    656    660   2   0.50000     0.6150000   -0.1200000   1.575021e-03  3.561100e-06
    656    671   2   0.50000     0.6150000    0.0600000   3.869820e-04  3.188634e-07
    656    672   2   0.50000     0.6150000    0.0600000   3.869820e-04  3.188634e-07
    670    660   2   0.50000     0.3000000   -0.1200000   1.995577e-06  1.069504e-11
    670    671   2   0.50000     0.3000000    0.0600000   4.903125e-07  9.576416e-13
    670    672   2   0.50000     0.3000000    0.0600000   4.903125e-07  9.576416e-13
    658    661   2   0.50000    -0.5000000   -0.1200000   1.304585e-03  1.920112e-06
    658    673   2   0.50000    -0.5000000    0.0600000   3.205360e-04  1.719281e-07
    658    674   2   0.50000    -0.5000000    0.0600000   3.205360e-04  1.719281e-07
    671    661   2   0.50000     0.0600000   -0.1200000   2.494471e-04  1.671101e-07
    671    673   2   0.50000     0.0600000    0.0600000   6.128906e-05  1.496315e-08
    671    674   2   0.50000     0.0600000    0.0600000   6.128906e-05  1.496315e-08
    672    661   2   0.50000     0.0600000   -0.1200000   2.494471e-04  1.671101e-07
    672    673   2   0.50000     0.0600000    0.0600000   6.128906e-05  1.496315e-08
    672    674   2   0.50000     0.0600000    0.0600000   6.128906e-05  1.496315e-08
    659    662   2   0.50000     0.0800000   -0.1200000   1.015252e-03  1.866303e-06
    659    675   2   0.50000     0.0800000    0.0600000   2.494471e-04  1.671101e-07
    659    676   2   0.50000     0.0800000    0.0600000   2.494471e-04  1.671101e-07
    673    662   2   0.50000     0.0600000   -0.1200000   2.494471e-04  1.671101e-07
    673    675   2   0.50000     0.0600000    0.0600000   6.128906e-05  1.496315e-08
    673    676   2   0.50000     0.0600000    0.0600000   6.128906e-05  1.496315e-08
    674    662   2   0.50000     0.0600000   -0.1200000   2.494471e-04  1.671101e-07
    674    675   2   0.50000     0.0600000    0.0600000   6.128906e-05  1.496315e-08
    674    676   2   0.50000     0.0600000    0.0600000   6.128906e-05  1.496315e-08
    660    663   2   0.50000    -0.1200000   -0.1200000   1.015252e-03  1.866303e-06
    660    677   2   0.50000    -0.1200000    0.0600000   2.494471e-04  1.671101e-07
    660    678   2   0.50000    -0.1200000    0.0600000   2.494471e-04  1.671101e-07
    675    663   2   0.50000     0.0600000   -0.1200000   2.494471e-04  1.671101e-07
    675    677   2   0.50000     0.0600000    0.0600000   6.128906e-05  1.496315e-08
    675    678   2   0.50000     0.0600000    0.0600000   6.128906e-05  1.496315e-08
    676    663   2   0.50000     0.0600000   -0.1200000   2.494471e-04  1.671101e-07
    676    677   2   0.50000     0.0600000    0.0600000   6.128906e-05  1.496315e-08
    676    678   2   0.50000     0.0600000    0.0600000   6.128906e-05  1.496315e-08
    661    664   2   0.50000    -0.1200000    0.0800000   1.015252e-03  1.866303e-06
    661    679   2   0.50000    -0.1200000    0.0600000   2.494471e-04  1.671101e-07
    661    680   2   0.50000    -0.1200000    0.0600000   2.494471e-04  1.671101e-07
    677    664   2   0.50000     0.0600000    0.0800000   2.494471e-04  1.671101e-07
    677    679   2   0.50000     0.0600000    0.0600000   6.128906e-05  1.496315e-08
    677    680   2   0.50000     0.0600000    0.0600000   6.128906e-05  1.496315e-08
    678    664   2   0.50000     0.0600000    0.0800000   2.494471e-04  1.671101e-07
    678    679   2   0.50000     0.0600000    0.0600000   6.128906e-05  1.496315e-08
    678    680   2   0.50000     0.0600000    0.0600000   6.128906e-05  1.496315e-08
    662    665   2   0.50000    -0.1200000   -0.5000000   1.304585e-03  1.920112e-06
    662    681   2   0.50000    -0.1200000    0.0600000   2.494471e-04  1.671101e-07
    662    682   2   0.50000    -0.1200000    0.0600000   2.494471e-04  1.671101e-07
    679    665   2   0.50000     0.0600000   -0.5000000   3.205360e-04  1.719281e-07
    679    681   2   0.50000     0.0600000    0.0600000   6.128906e-05  1.496315e-08
    679    682   2   0.50000     0.0600000    0.0600000   6.128906e-05  1.496315e-08
    680    665   2   0.50000     0.0600000   -0.5000000   3.205360e-04  1.719281e-07
    680    681   2   0.50000     0.0600000    0.0600000   6.128906e-05  1.496315e-08
    680    682   2   0.50000     0.0600000    0.0600000   6.128906e-05  1.496315e-08
    663    683   2   0.50000    -0.1200000    0.3000000   1.995577e-06  1.069504e-11
    663    686   2   0.50000    -0.1200000    0.6150000   1.575021e-03  3.561100e-06
    681    683   2   0.50000     0.0600000    0.3000000   4.903125e-07  9.576416e-13
    681    686   2   0.50000     0.0600000    0.6150000   3.869820e-04  3.188634e-07
    682    683   2   0.50000     0.0600000    0.3000000   4.903125e-07  9.576416e-13
    682    686   2   0.50000     0.0600000    0.6150000   3.869820e-04  3.188634e-07
    664    687   2   0.50000     0.0800000   -0.5000000   1.095425e-03  1.218041e-06
    664    688   2   0.50000     0.0800000   -0.1150000   1.091018e-03  2.092768e-06
    683    687   2   0.50000     0.3000000   -0.5000000   2.153164e-06  6.980110e-12
    683    688   2   0.50000     0.3000000   -0.1150000   2.144502e-06  1.199282e-11
    655    685   2   0.50000    -0.1150000    0.1150000   2.431434e-04  1.541678e-07
    684    652   2   0.50000     0.1150000   -0.1150000   2.431434e-04  1.541678e-07
    684    685   2   0.50000     0.1150000    0.1150000   5.042375e-05  1.012808e-08
    665    689   2   0.50000    -0.5000000   -0.1150000   1.401943e-03  2.153106e-06
    665    703   2   0.50000    -0.5000000   -0.1150000   1.401943e-03  2.153106e-06
    687    689   2   0.50000    -0.5000000   -0.1150000   1.177174e-03  1.365843e-06
    687    703   2   0.50000    -0.5000000   -0.1150000   1.177174e-03  1.365843e-06
    686    690   2   0.50000     0.6150000   -0.1150000   1.692561e-03  3.993218e-06
    686    704   2   0.50000     0.6150000    0.1150000   3.510079e-04  2.623353e-07
    703    690   2   0.50000    -0.1150000   -0.1150000   1.172438e-03  2.346713e-06
    703    704   2   0.50000    -0.1150000    0.1150000   2.431434e-04  1.541678e-07
    686    702   2   0.50000     0.6150000   -0.1150000   1.692561e-03  3.993218e-06
    686    721   2   0.50000     0.6150000    0.1150000   3.510079e-04  2.623353e-07
    689    702   2   0.50000    -0.1150000   -0.1150000   1.172438e-03  2.346713e-06
    689    721   2   0.50000    -0.1150000    0.1150000   2.431434e-04  1.541678e-07
    688    691   2   0.50000    -0.1150000   -0.1150000   1.172438e-03  2.346713e-06
    688    705   2   0.50000    -0.1150000    0.1150000   2.431434e-04  1.541678e-07
    704    691   2   0.50000     0.1150000   -0.1150000   2.431434e-04  1.541678e-07
    704    705   2   0.50000     0.1150000    0.1150000   5.042375e-05  1.012808e-08
    689    692   2   0.50000    -0.1150000    0.6150000   1.692561e-03  3.993218e-06
    705    692   2   0.50000     0.1150000    0.6150000   3.510079e-04  2.623353e-07
    705    702   2   0.50000     0.1150000   -0.1150000   2.431434e-04  1.541678e-07
    690    693   2   0.50000    -0.1150000   -0.5000000   1.177174e-03  1.365843e-06
    690    694   2   0.50000    -0.1150000   -0.5000000   1.401943e-03  2.153106e-06
    702    693   2   0.50000    -0.1150000   -0.5000000   1.177174e-03  1.365843e-06
    702    694   2   0.50000    -0.1150000   -0.5000000   1.401943e-03  2.153106e-06
    690    720   2   0.50000    -0.1150000    0.1150000   2.431434e-04  1.541678e-07
    692    703   2   0.50000     0.6150000   -0.1150000   1.692561e-03  3.993218e-06
    692    720   2   0.50000     0.6150000    0.1150000   3.510079e-04  2.623353e-07
    691    695   2   0.50000    -0.1150000    0.0800000   1.091018e-03  2.092768e-06
    691    706   2   0.50000    -0.1150000    0.3000000   2.144502e-06  1.199282e-11
    693    695   2   0.50000    -0.5000000    0.0800000   1.095425e-03  1.218041e-06
    693    706   2   0.50000    -0.5000000    0.3000000   2.153164e-06  6.980110e-12
    692    696   2   0.50000     0.6150000   -0.1200000   1.575021e-03  3.561100e-06
    692    707   2   0.50000     0.6150000    0.0600000   3.869820e-04  3.188634e-07
    692    708   2   0.50000     0.6150000    0.0600000   3.869820e-04  3.188634e-07
    706    696   2   0.50000     0.3000000   -0.1200000   1.995577e-06  1.069504e-11
    706    707   2   0.50000     0.3000000    0.0600000   4.903125e-07  9.576416e-13
    706    708   2   0.50000     0.3000000    0.0600000   4.903125e-07  9.576416e-13
    694    697   2   0.50000    -0.5000000   -0.1200000   1.304585e-03  1.920112e-06
    694    709   2   0.50000    -0.5000000    0.0600000   3.205360e-04  1.719281e-07
    694    710   2   0.50000    -0.5000000    0.0600000   3.205360e-04  1.719281e-07
    707    697   2   0.50000     0.0600000   -0.1200000   2.494471e-04  1.671101e-07
    707    709   2   0.50000     0.0600000    0.0600000   6.128906e-05  1.496315e-08
    707    710   2   0.50000     0.0600000    0.0600000   6.128906e-05  1.496315e-08
    708    697   2   0.50000     0.0600000   -0.1200000   2.494471e-04  1.671101e-07
    708    709   2   0.50000     0.0600000    0.0600000   6.128906e-05  1.496315e-08
    708    710   2   0.50000     0.0600000    0.0600000   6.128906e-05  1.496315e-08
    695    698   2   0.50000     0.0800000   -0.1200000   1.015252e-03  1.866303e-06
    695    711   2   0.50000     0.0800000    0.0600000   2.494471e-04  1.671101e-07
    695    712   2   0.50000     0.0800000    0.0600000   2.494471e-04  1.671101e-07
    709    698   2   0.50000     0.0600000   -0.1200000   2.494471e-04  1.671101e-07
    709    711   2   0.50000     0.0600000    0.0600000   6.128906e-05  1.496315e-08
    709    712   2   0.50000     0.0600000    0.0600000   6.128906e-05  1.496315e-08
    710    698   2   0.50000     0.0600000   -0.1200000   2.494471e-04  1.671101e-07
    710    711   2   0.50000     0.0600000    0.0600000   6.128906e-05  1.496315e-08
    710    712   2   0.50000     0.0600000    0.0600000   6.128906e-05  1.496315e-08
    696    699   2   0.50000    -0.1200000   -0.1200000   1.015252e-03  1.866303e-06
    696    713   2   0.50000    -0.1200000    0.0600000   2.494471e-04  1.671101e-07
    696    714   2   0.50000    -0.1200000    0.0600000   2.494471e-04  1.671101e-07
    711    699   2   0.50000     0.0600000   -0.1200000   2.494471e-04  1.671101e-07
    711    713   2   0.50000     0.0600000    0.0600000   6.128906e-05  1.496315e-08
    711    714   2   0.50000     0.0600000    0.0600000   6.128906e-05  1.496315e-08
    712    699   2   0.50000     0.0600000   -0.1200000   2.494471e-04  1.671101e-07
    712    713   2   0.50000     0.0600000    0.0600000   6.128906e-05  1.496315e-08
    712    714   2   0.50000     0.0600000    0.0600000   6.128906e-05  1.496315e-08
    697    700   2   0.50000    -0.1200000    0.0600000   1.015252e-03  1.866303e-06
    697    715   2   0.50000    -0.1200000    0.0600000   2.494471e-04  1.671101e-07
    697    716   2   0.50000    -0.1200000    0.0600000   2.494471e-04  1.671101e-07
    713    700   2   0.50000     0.0600000    0.0600000   2.494471e-04  1.671101e-07
    713    715   2   0.50000     0.0600000    0.0600000   6.128906e-05  1.496315e-08
    713    716   2   0.50000     0.0600000    0.0600000   6.128906e-05  1.496315e-08
    714    700   2   0.50000     0.0600000    0.0600000   2.494471e-04  1.671101e-07
    714    715   2   0.50000     0.0600000    0.0600000   6.128906e-05  1.496315e-08
    714    716   2   0.50000     0.0600000    0.0600000   6.128906e-05  1.496315e-08
    698    701   2   0.50000    -0.1200000   -0.9000000   1.365727e-03  2.104311e-06
    698    717   2   0.50000    -0.1200000    0.0600000   1.763857e-04  1.181647e-07
    698    718   2   0.50000    -0.1200000    0.0600000   1.763857e-04  1.181647e-07
    715    701   2   0.50000     0.0600000   -0.9000000   3.355588e-04  1.884215e-07
    715    717   2   0.50000     0.0600000    0.0600000   4.333791e-05  1.058054e-08
    715    718   2   0.50000     0.0600000    0.0600000   4.333791e-05  1.058054e-08
    716    701   2   0.50000     0.0600000   -0.9000000   3.355588e-04  1.884215e-07
    716    717   2   0.50000     0.0600000    0.0600000   4.333791e-05  1.058054e-08
    716    718   2   0.50000     0.0600000    0.0600000   4.333791e-05  1.058054e-08
    699    719   2   0.50000    -0.1200000    0.3600000   1.995577e-06  1.069504e-11
    699    722   2   0.50000    -0.1200000    0.3600000   1.995577e-06  1.069504e-11
    717    719   2   0.50000     0.0600000    0.3600000   3.467033e-07  6.771549e-13
    717    722   2   0.50000     0.0600000    0.3600000   3.467033e-07  6.771549e-13
    718    719   2   0.50000     0.0600000    0.3600000   3.467033e-07  6.771549e-13
    718    722   2   0.50000     0.0600000    0.3600000   3.467033e-07  6.771549e-13
    691    721   2   0.50000    -0.1150000    0.1150000   2.431434e-04  1.541678e-07
    720    688   2   0.50000     0.1150000   -0.1150000   2.431434e-04  1.541678e-07
    720    721   2   0.50000     0.1150000    0.1150000   5.042375e-05  1.012808e-08

[ angles ]
; ai  aj  ak
      2      1      3   1    123.7840    627.6000
      2      1     37   1    123.0000    292.8800
      3      1     37   1    115.0000    292.8800
      1      3      4   1    119.5260    502.0800
      1      3     18   1    119.5260    502.0800
      4      3     18   1    120.0000    527.1840
      3      4      5   1    120.0000    527.1840
      3      4     19   1    120.0000    292.8800
      5      4     19   1    120.0000    292.8800
      4      5      6   1    120.0000    527.1840
      4      5     20   1    120.0000    292.8800
      6      5     20   1    120.0000    292.8800
      5      6      7   1    120.0000    711.2800
      5      6     17   1    120.0000    527.1840
      7      6     17   1    120.0000    711.2800
      6      7      8   1    120.4000    669.4400
      6      7      9   1    113.9210    627.6000
      8      7      9   1    122.9000    669.4400
      7      9     10   1    121.9000    418.4000
      7      9     21   1    119.8000    292.8800
     10      9     21   1    118.4000    317.9840
      9     10     11   1    110.7230    585.7600
      9     10     22   1    109.5000    292.8800
      9     10     23   1    109.5000    292.8800
     11     10     22   1    110.7000    313.8000
     11     10     23   1    110.7000    313.8000
     22     10     23   1    107.8000    276.1440
     10     11     12   1    112.7000    488.2728
     10     11     24   1    110.7000    313.8000
     10     11     25   1    110.7000    313.8000
     12     11     24   1    110.7000    313.8000
     12     11     25   1    110.7000    313.8000
     24     11     25   1    107.8000    276.1440
     11     12     13   1    112.7000    488.2728
     11     12     26   1    110.7000    313.8000
     11     12     27   1    110.7000    313.8000
     13     12     26   1    110.7000    313.8000
     13     12     27   1    110.7000    313.8000
     26     12     27   1    107.8000    276.1440
     12     13     14   1    112.7000    488.2728
     12     13     28   1    110.7000    313.8000
     12     13     29   1    110.7000    313.8000
     14     13     28   1    110.7000    313.8000
     14     13     29   1    110.7000    313.8000
     28     13     29   1    107.8000    276.1440
     13     14     15   1    112.7000    488.2728
     13     14     30   1    110.7000    313.8000
     13     14     31   1    110.7000    313.8000
     15     14     30   1    110.7000    313.8000
     15     14     31   1    110.7000    313.8000
     30     14     31   1    107.8000    276.1440
     14     15     16   1    110.7230    585.7600
     14     15     32   1    110.7000    313.8000
     14     15     33   1    110.7000    313.8000
     16     15     32   1    109.5000    292.8800
     16     15     33   1    109.5000    292.8800
     32     15     33   1    107.8000    276.1440
     15     16     34   1    118.4000    317.9840
     15     16     38   1    121.9000    418.4000
     34     16     38   1    119.8000    292.8800
      6     17     18   1    120.0000    527.1840
      6     17     35   1    120.0000    292.8800
     18     17     35   1    120.0000    292.8800
      3     18     17   1    120.0000    527.1840
      3     18     36   1    120.0000    292.8800
     17     18     36   1    120.0000    292.8800
     16     38     39   1    122.9000    669.4400
     16     38     40   1    113.9210    627.6000
     39     38     40   1    120.4000    669.4400
     38     40     41   1    120.0000    711.2800
     38     40     55   1    120.0000    711.2800
     41     40     55   1    120.0000    527.1840
     40     41     42   1    120.0000    527.1840
     40     41     56   1    120.0000    292.8800
     42     41     56   1    120.0000    292.8800
     41     42     43   1    120.0000    527.1840
     41     42     57   1    120.0000    292.8800
     43     42     57   1    120.0000    292.8800
     42     43     44   1    120.0000    711.2800
     42     43     54   1    120.0000    527.1840
     44     43     54   1    120.0000    711.2800
     43     44     45   1    120.4000    669.4400
     43     44     46   1    113.9210    627.6000
     45     44     46   1    122.9000    669.4400
     44     46     47   1    121.9000    418.4000
     44     46     58   1    119.8000    292.8800
     47     46     58   1    118.4000    317.9840
     46     47     48   1    110.7230    585.7600
     46     47     59   1    109.5000    292.8800
     46     47     60   1    109.5000    292.8800
     48     47     59   1    110.7000    313.8000
     48     47     60   1    110.7000    313.8000
     59     47     60   1    107.8000    276.1440
     47     48     49   1    112.7000    488.2728
     47     48     61   1    110.7000    313.8000
     47     48     62   1    110.7000    313.8000
     49     48     61   1    110.7000    313.8000
     49     48     62   1    110.7000    313.8000
     61     48     62   1    107.8000    276.1440
     48     49     50   1    112.7000    488.2728
     48     49     63   1    110.7000    313.8000
     48     49     64   1    110.7000    313.8000
     50     49     63   1    110.7000    313.8000
     50     49     64   1    110.7000    313.8000
     63     49     64   1    107.8000    276.1440
     49     50     51   1    112.7000    488.2728
     49     50     65   1    110.7000    313.8000
     49     50     66   1    110.7000    313.8000
     51     50     65   1    110.7000    313.8000
     51     50     66   1    110.7000    313.8000
     65     50     66   1    107.8000    276.1440
     50     51     52   1    112.7000    488.2728
     50     51     67   1    110.7000    313.8000
     50     51     68   1    110.7000    313.8000
     52     51     67   1    110.7000    313.8000
     52     51     68   1    110.7000    313.8000
     67     51     68   1    107.8000    276.1440
     51     52     53   1    110.7230    585.7600
     51     52     69   1    110.7000    313.8000
     51     52     70   1    110.7000    313.8000
     53     52     69   1    109.5000    292.8800
     53     52     70   1    109.5000    292.8800
     69     52     70   1    107.8000    276.1440
     52     53     71   1    118.4000    317.9840
     52     53     74   1    121.9000    418.4000
     71     53     74   1    119.8000    292.8800
     43     54     55   1    120.0000    527.1840
     43     54     72   1    120.0000    292.8800
     55     54     72   1    120.0000    292.8800
     40     55     54   1    120.0000    527.1840
     40     55     73   1    120.0000    292.8800
     54     55     73   1    120.0000    292.8800
     53     74     75   1    122.9000    669.4400
     53     74     76   1    113.9210    627.6000
     75     74     76   1    120.4000    669.4400
     74     76     77   1    120.0000    711.2800
     74     76     91   1    120.0000    711.2800
     77     76     91   1    120.0000    527.1840
     76     77     78   1    120.0000    527.1840
     76     77     92   1    120.0000    292.8800
     78     77     92   1    120.0000    292.8800
     77     78     79   1    120.0000    527.1840
     77     78     93   1    120.0000    292.8800
     79     78     93   1    120.0000    292.8800
     78     79     80   1    120.0000    711.2800
     78     79     90   1    120.0000    527.1840
     80     79     90   1    120.0000    711.2800
     79     80     81   1    120.4000    669.4400
     79     80     82   1    113.9210    627.6000
     81     80     82   1    122.9000    669.4400
     80     82     83   1    121.9000    418.4000
     80     82     94   1    119.8000    292.8800
     83     82     94   1    118.4000    317.9840
     82     83     84   1    110.7230    585.7600
     82     83     95   1    109.5000    292.8800
     82     83     96   1    109.5000    292.8800
     84     83     95   1    110.7000    313.8000
     84     83     96   1    110.7000    313.8000
     95     83     96   1    107.8000    276.1440
     83     84     85   1    112.7000    488.2728
     83     84     97   1    110.7000    313.8000
     83     84     98   1    110.7000    313.8000
     85     84     97   1    110.7000    313.8000
     85     84     98   1    110.7000    313.8000
     97     84     98   1    107.8000    276.1440
     84     85     86   1    112.7000    488.2728
     84     85     99   1    110.7000    313.8000
     84     85    100   1    110.7000    313.8000
     86     85     99   1    110.7000    313.8000
     86     85    100   1    110.7000    313.8000
     99     85    100   1    107.8000    276.1440
     85     86     87   1    112.7000    488.2728
     85     86    101   1    110.7000    313.8000
     85     86    102   1    110.7000    313.8000
     87     86    101   1    110.7000    313.8000
     87     86    102   1    110.7000    313.8000
    101     86    102   1    107.8000    276.1440
     86     87     88   1    112.7000    488.2728
     86     87    103   1    110.7000    313.8000
     86     87    104   1    110.7000    313.8000
     88     87    103   1    110.7000    313.8000
     88     87    104   1    110.7000    313.8000
    103     87    104   1    107.8000    276.1440
     87     88     89   1    110.7230    585.7600
     87     88    105   1    110.7000    313.8000
     87     88    106   1    110.7000    313.8000
     89     88    105   1    109.5000    292.8800
     89     88    106   1    109.5000    292.8800
    105     88    106   1    107.8000    276.1440
     88     89    107   1    118.4000    317.9840
     88     89    110   1    121.9000    418.4000
    107     89    110   1    119.8000    292.8800
     79     90     91   1    120.0000    527.1840
     79     90    108   1    120.0000    292.8800
     91     90    108   1    120.0000    292.8800
     76     91     90   1    120.0000    527.1840
     76     91    109   1    120.0000    292.8800
     90     91    109   1    120.0000    292.8800
     89    110    111   1    122.9000    669.4400
     89    110    112   1    113.9210    627.6000
    111    110    112   1    120.4000    669.4400
    110    112    113   1    120.0000    711.2800
    110    112    127   1    120.0000    711.2800
    113    112    127   1    120.0000    527.1840
    112    113    114   1    120.0000    527.1840
    112    113    128   1    120.0000    292.8800
    114    113    128   1    120.0000    292.8800
    113    114    115   1    120.0000    527.1840
    113    114    129   1    120.0000    292.8800
    115    114    129   1    120.0000    292.8800
    114    115    116   1    120.0000    711.2800
    114    115    126   1    120.0000    527.1840
    116    115    126   1    120.0000    711.2800
    115    116    117   1    120.4000    669.4400
    115    116    118   1    113.9210    627.6000
    117    116    118   1    122.9000    669.4400
    116    118    119   1    121.9000    418.4000
    116    118    130   1    119.8000    292.8800
    119    118    130   1    118.4000    317.9840
    118    119    120   1    110.7230    585.7600
    118    119    131   1    109.5000    292.8800
    118    119    132   1    109.5000    292.8800
    120    119    131   1    110.7000    313.8000
    120    119    132   1    110.7000    313.8000
    131    119    132   1    107.8000    276.1440
    119    120    121   1    112.7000    488.2728
    119    120    133   1    110.7000    313.8000
    119    120    134   1    110.7000    313.8000
    121    120    133   1    110.7000    313.8000
    121    120    134   1    110.7000    313.8000
    133    120    134   1    107.8000    276.1440
    120    121    122   1    112.7000    488.2728
    120    121    135   1    110.7000    313.8000
    120    121    136   1    110.7000    313.8000
    122    121    135   1    110.7000    313.8000
    122    121    136   1    110.7000    313.8000
    135    121    136   1    107.8000    276.1440
    121    122    123   1    112.7000    488.2728
    121    122    137   1    110.7000    313.8000
    121    122    138   1    110.7000    313.8000
    123    122    137   1    110.7000    313.8000
    123    122    138   1    110.7000    313.8000
    137    122    138   1    107.8000    276.1440
    122    123    124   1    112.7000    488.2728
    122    123    139   1    110.7000    313.8000
    122    123    140   1    110.7000    313.8000
    124    123    139   1    110.7000    313.8000
    124    123    140   1    110.7000    313.8000
    139    123    140   1    107.8000    276.1440
    123    124    125   1    110.7230    585.7600
    123    124    141   1    110.7000    313.8000
    123    124    142   1    110.7000    313.8000
    125    124    141   1    109.5000    292.8800
    125    124    142   1    109.5000    292.8800
    141    124    142   1    107.8000    276.1440
    124    125    143   1    118.4000    317.9840
    124    125    146   1    121.9000    418.4000
    143    125    146   1    119.8000    292.8800
    115    126    127   1    120.0000    527.1840
    115    126    144   1    120.0000    292.8800
    127    126    144   1    120.0000    292.8800
    112    127    126   1    120.0000    527.1840
    112    127    145   1    120.0000    292.8800
    126    127    145   1    120.0000    292.8800
    125    146    147   1    122.9000    669.4400
    125    146    148   1    113.9210    627.6000
    147    146    148   1    120.4000    669.4400
    146    148    149   1    120.0000    711.2800
    146    148    163   1    120.0000    711.2800
    149    148    163   1    120.0000    527.1840
    148    149    150   1    120.0000    527.1840
    148    149    164   1    120.0000    292.8800
    150    149    164   1    120.0000    292.8800
    149    150    151   1    120.0000    527.1840
    149    150    165   1    120.0000    292.8800
    151    150    165   1    120.0000    292.8800
    150    151    152   1    120.0000    711.2800
    150    151    162   1    120.0000    527.1840
    152    151    162   1    120.0000    711.2800
    151    152    153   1    120.4000    669.4400
    151    152    154   1    113.9210    627.6000
    153    152    154   1    122.9000    669.4400
    152    154    155   1    121.9000    418.4000
    152    154    166   1    119.8000    292.8800
    155    154    166   1    118.4000    317.9840
    154    155    156   1    110.7230    585.7600
    154    155    167   1    109.5000    292.8800
    154    155    168   1    109.5000    292.8800
    156    155    167   1    110.7000    313.8000
    156    155    168   1    110.7000    313.8000
    167    155    168   1    107.8000    276.1440
    155    156    157   1    112.7000    488.2728
    155    156    169   1    110.7000    313.8000
    155    156    170   1    110.7000    313.8000
    157    156    169   1    110.7000    313.8000
    157    156    170   1    110.7000    313.8000
    169    156    170   1    107.8000    276.1440
    156    157    158   1    112.7000    488.2728
    156    157    171   1    110.7000    313.8000
    156    157    172   1    110.7000    313.8000
    158    157    171   1    110.7000    313.8000
    158    157    172   1    110.7000    313.8000
    171    157    172   1    107.8000    276.1440
    157    158    159   1    112.7000    488.2728
    157    158    173   1    110.7000    313.8000
    157    158    174   1    110.7000    313.8000
    159    158    173   1    110.7000    313.8000
    159    158    174   1    110.7000    313.8000
    173    158    174   1    107.8000    276.1440
    158    159    160   1    112.7000    488.2728
    158    159    175   1    110.7000    313.8000
    158    159    176   1    110.7000    313.8000
    160    159    175   1    110.7000    313.8000
    160    159    176   1    110.7000    313.8000
    175    159    176   1    107.8000    276.1440
    159    160    161   1    110.7230    585.7600
    159    160    177   1    110.7000    313.8000
    159    160    178   1    110.7000    313.8000
    161    160    177   1    109.5000    292.8800
    161    160    178   1    109.5000    292.8800
    177    160    178   1    107.8000    276.1440
    160    161    179   1    118.4000    317.9840
    160    161    182   1    121.9000    418.4000
    179    161    182   1    119.8000    292.8800
    151    162    163   1    120.0000    527.1840
    151    162    180   1    120.0000    292.8800
    163    162    180   1    120.0000    292.8800
    148    163    162   1    120.0000    527.1840
    148    163    181   1    120.0000    292.8800
    162    163    181   1    120.0000    292.8800
    161    182    183   1    122.9000    669.4400
    161    182    184   1    113.9210    627.6000
    183    182    184   1    120.4000    669.4400
    182    184    185   1    120.0000    711.2800
    182    184    199   1    120.0000    711.2800
    185    184    199   1    120.0000    527.1840
    184    185    186   1    120.0000    527.1840
    184    185    200   1    120.0000    292.8800
    186    185    200   1    120.0000    292.8800
    185    186    187   1    120.0000    527.1840
    185    186    201   1    120.0000    292.8800
    187    186    201   1    120.0000    292.8800
    186    187    188   1    120.0000    711.2800
    186    187    198   1    120.0000    527.1840
    188    187    198   1    120.0000    711.2800
    187    188    189   1    120.4000    669.4400
    187    188    190   1    113.9210    627.6000
    189    188    190   1    122.9000    669.4400
    188    190    191   1    121.9000    418.4000
    188    190    202   1    119.8000    292.8800
    191    190    202   1    118.4000    317.9840
    190    191    192   1    110.7230    585.7600
    190    191    203   1    109.5000    292.8800
    190    191    204   1    109.5000    292.8800
    192    191    203   1    110.7000    313.8000
    192    191    204   1    110.7000    313.8000
    203    191    204   1    107.8000    276.1440
    191    192    193   1    112.7000    488.2728
    191    192    205   1    110.7000    313.8000
    191    192    206   1    110.7000    313.8000
    193    192    205   1    110.7000    313.8000
    193    192    206   1    110.7000    313.8000
    205    192    206   1    107.8000    276.1440
    192    193    194   1    112.7000    488.2728
    192    193    207   1    110.7000    313.8000
    192    193    208   1    110.7000    313.8000
    194    193    207   1    110.7000    313.8000
    194    193    208   1    110.7000    313.8000
    207    193    208   1    107.8000    276.1440
    193    194    195   1    112.7000    488.2728
    193    194    209   1    110.7000    313.8000
    193    194    210   1    110.7000    313.8000
    195    194    209   1    110.7000    313.8000
    195    194    210   1    110.7000    313.8000
    209    194    210   1    107.8000    276.1440
    194    195    196   1    112.7000    488.2728
    194    195    211   1    110.7000    313.8000
    194    195    212   1    110.7000    313.8000
    196    195    211   1    110.7000    313.8000
    196    195    212   1    110.7000    313.8000
    211    195    212   1    107.8000    276.1440
    195    196    197   1    110.7230    585.7600
    195    196    213   1    110.7000    313.8000
    195    196    214   1    110.7000    313.8000
    197    196    213   1    109.5000    292.8800
    197    196    214   1    109.5000    292.8800
    213    196    214   1    107.8000    276.1440
    196    197    215   1    118.4000    317.9840
    196    197    218   1    121.9000    418.4000
    215    197    218   1    119.8000    292.8800
    187    198    199   1    120.0000    527.1840
    187    198    216   1    120.0000    292.8800
    199    198    216   1    120.0000    292.8800
    184    199    198   1    120.0000    527.1840
    184    199    217   1    120.0000    292.8800
    198    199    217   1    120.0000    292.8800
    197    218    219   1    122.9000    669.4400
    197    218    220   1    113.9210    627.6000
    219    218    220   1    120.4000    669.4400
    218    220    221   1    120.0000    711.2800
    218    220    235   1    120.0000    711.2800
    221    220    235   1    120.0000    527.1840
    220    221    222   1    120.0000    527.1840
    220    221    236   1    120.0000    292.8800
    222    221    236   1    120.0000    292.8800
    221    222    223   1    120.0000    527.1840
    221    222    237   1    120.0000    292.8800
    223    222    237   1    120.0000    292.8800
    222    223    224   1    120.0000    711.2800
    222    223    234   1    120.0000    527.1840
    224    223    234   1    120.0000    711.2800
    223    224    225   1    120.4000    669.4400
    223    224    226   1    113.9210    627.6000
    225    224    226   1    122.9000    669.4400
    224    226    227   1    121.9000    418.4000
    224    226    238   1    119.8000    292.8800
    227    226    238   1    118.4000    317.9840
    226    227    228   1    110.7230    585.7600
    226    227    239   1    109.5000    292.8800
    226    227    240   1    109.5000    292.8800
    228    227    239   1    110.7000    313.8000
    228    227    240   1    110.7000    313.8000
    239    227    240   1    107.8000    276.1440
    227    228    229   1    112.7000    488.2728
    227    228    241   1    110.7000    313.8000
    227    228    242   1    110.7000    313.8000
    229    228    241   1    110.7000    313.8000
    229    228    242   1    110.7000    313.8000
    241    228    242   1    107.8000    276.1440
    228    229    230   1    112.7000    488.2728
    228    229    243   1    110.7000    313.8000
    228    229    244   1    110.7000    313.8000
    230    229    243   1    110.7000    313.8000
    230    229    244   1    110.7000    313.8000
    243    229    244   1    107.8000    276.1440
    229    230    231   1    112.7000    488.2728
    229    230    245   1    110.7000    313.8000
    229    230    246   1    110.7000    313.8000
    231    230    245   1    110.7000    313.8000
    231    230    246   1    110.7000    313.8000
    245    230    246   1    107.8000    276.1440
    230    231    232   1    112.7000    488.2728
    230    231    247   1    110.7000    313.8000
    230    231    248   1    110.7000    313.8000
    232    231    247   1    110.7000    313.8000
    232    231    248   1    110.7000    313.8000
    247    231    248   1    107.8000    276.1440
    231    232    233   1    110.7230    585.7600
    231    232    249   1    110.7000    313.8000
    231    232    250   1    110.7000    313.8000
    233    232    249   1    109.5000    292.8800
    233    232    250   1    109.5000    292.8800
    249    232    250   1    107.8000    276.1440
    232    233    251   1    118.4000    317.9840
    232    233    254   1    121.9000    418.4000
    251    233    254   1    119.8000    292.8800
    223    234    235   1    120.0000    527.1840
    223    234    252   1    120.0000    292.8800
    235    234    252   1    120.0000    292.8800
    220    235    234   1    120.0000    527.1840
    220    235    253   1    120.0000    292.8800
    234    235    253   1    120.0000    292.8800
    233    254    255   1    122.9000    669.4400
    233    254    256   1    113.9210    627.6000
    255    254    256   1    120.4000    669.4400
    254    256    257   1    120.0000    711.2800
    254    256    271   1    120.0000    711.2800
    257    256    271   1    120.0000    527.1840
    256    257    258   1    120.0000    527.1840
    256    257    272   1    120.0000    292.8800
    258    257    272   1    120.0000    292.8800
    257    258    259   1    120.0000    527.1840
    257    258    273   1    120.0000    292.8800
    259    258    273   1    120.0000    292.8800
    258    259    260   1    120.0000    711.2800
    258    259    270   1    120.0000    527.1840
    260    259    270   1    120.0000    711.2800
    259    260    261   1    120.4000    669.4400
    259    260    262   1    113.9210    627.6000
    261    260    262   1    122.9000    669.4400
    260    262    263   1    121.9000    418.4000
    260    262    274   1    119.8000    292.8800
    263    262    274   1    118.4000    317.9840
    262    263    264   1    110.7230    585.7600
    262    263    275   1    109.5000    292.8800
    262    263    276   1    109.5000    292.8800
    264    263    275   1    110.7000    313.8000
    264    263    276   1    110.7000    313.8000
    275    263    276   1    107.8000    276.1440
    263    264    265   1    112.7000    488.2728
    263    264    277   1    110.7000    313.8000
    263    264    278   1    110.7000    313.8000
    265    264    277   1    110.7000    313.8000
    265    264    278   1    110.7000    313.8000
    277    264    278   1    107.8000    276.1440
    264    265    266   1    112.7000    488.2728
    264    265    279   1    110.7000    313.8000
    264    265    280   1    110.7000    313.8000
    266    265    279   1    110.7000    313.8000
    266    265    280   1    110.7000    313.8000
    279    265    280   1    107.8000    276.1440
    265    266    267   1    112.7000    488.2728
    265    266    281   1    110.7000    313.8000
    265    266    282   1    110.7000    313.8000
    267    266    281   1    110.7000    313.8000
    267    266    282   1    110.7000    313.8000
    281    266    282   1    107.8000    276.1440
    266    267    268   1    112.7000    488.2728
    266    267    283   1    110.7000    313.8000
    266    267    284   1    110.7000    313.8000
    268    267    283   1    110.7000    313.8000
    268    267    284   1    110.7000    313.8000
    283    267    284   1    107.8000    276.1440
    267    268    269   1    110.7230    585.7600
    267    268    285   1    110.7000    313.8000
    267    268    286   1    110.7000    313.8000
    269    268    285   1    109.5000    292.8800
    269    268    286   1    109.5000    292.8800
    285    268    286   1    107.8000    276.1440
    268    269    287   1    118.4000    317.9840
    268    269    290   1    121.9000    418.4000
    287    269    290   1    119.8000    292.8800
    259    270    271   1    120.0000    527.1840
    259    270    288   1    120.0000    292.8800
    271    270    288   1    120.0000    292.8800
    256    271    270   1    120.0000    527.1840
    256    271    289   1    120.0000    292.8800
    270    271    289   1    120.0000    292.8800
    269    290    291   1    122.9000    669.4400
    269    290    292   1    113.9210    627.6000
    291    290    292   1    120.4000    669.4400
    290    292    293   1    120.0000    711.2800
    290    292    307   1    120.0000    711.2800
    293    292    307   1    120.0000    527.1840
    292    293    294   1    120.0000    527.1840
    292    293    308   1    120.0000    292.8800
    294    293    308   1    120.0000    292.8800
    293    294    295   1    120.0000    527.1840
    293    294    309   1    120.0000    292.8800
    295    294    309   1    120.0000    292.8800
    294    295    296   1    120.0000    711.2800
    294    295    306   1    120.0000    527.1840
    296    295    306   1    120.0000    711.2800
    295    296    297   1    120.4000    669.4400
    295    296    298   1    113.9210    627.6000
    297    296    298   1    122.9000    669.4400
    296    298    299   1    121.9000    418.4000
    296    298    310   1    119.8000    292.8800
    299    298    310   1    118.4000    317.9840
    298    299    300   1    110.7230    585.7600
    298    299    311   1    109.5000    292.8800
    298    299    312   1    109.5000    292.8800
    300    299    311   1    110.7000    313.8000
    300    299    312   1    110.7000    313.8000
    311    299    312   1    107.8000    276.1440
    299    300    301   1    112.7000    488.2728
    299    300    313   1    110.7000    313.8000
    299    300    314   1    110.7000    313.8000
    301    300    313   1    110.7000    313.8000
    301    300    314   1    110.7000    313.8000
    313    300    314   1    107.8000    276.1440
    300    301    302   1    112.7000    488.2728
    300    301    315   1    110.7000    313.8000
    300    301    316   1    110.7000    313.8000
    302    301    315   1    110.7000    313.8000
    302    301    316   1    110.7000    313.8000
    315    301    316   1    107.8000    276.1440
    301    302    303   1    112.7000    488.2728
    301    302    317   1    110.7000    313.8000
    301    302    318   1    110.7000    313.8000
    303    302    317   1    110.7000    313.8000
    303    302    318   1    110.7000    313.8000
    317    302    318   1    107.8000    276.1440
    302    303    304   1    112.7000    488.2728
    302    303    319   1    110.7000    313.8000
    302    303    320   1    110.7000    313.8000
    304    303    319   1    110.7000    313.8000
    304    303    320   1    110.7000    313.8000
    319    303    320   1    107.8000    276.1440
    303    304    305   1    110.7230    585.7600
    303    304    321   1    110.7000    313.8000
    303    304    322   1    110.7000    313.8000
    305    304    321   1    109.5000    292.8800
    305    304    322   1    109.5000    292.8800
    321    304    322   1    107.8000    276.1440
    304    305    323   1    118.4000    317.9840
    304    305    326   1    121.9000    418.4000
    323    305    326   1    119.8000    292.8800
    295    306    307   1    120.0000    527.1840
    295    306    324   1    120.0000    292.8800
    307    306    324   1    120.0000    292.8800
    292    307    306   1    120.0000    527.1840
    292    307    325   1    120.0000    292.8800
    306    307    325   1    120.0000    292.8800
    305    326    327   1    122.9000    669.4400
    305    326    328   1    113.9210    627.6000
    327    326    328   1    120.4000    669.4400
    326    328    329   1    120.0000    711.2800
    326    328    343   1    120.0000    711.2800
    329    328    343   1    120.0000    527.1840
    328    329    330   1    120.0000    527.1840
    328    329    344   1    120.0000    292.8800
    330    329    344   1    120.0000    292.8800
    329    330    331   1    120.0000    527.1840
    329    330    345   1    120.0000    292.8800
    331    330    345   1    120.0000    292.8800
    330    331    332   1    120.0000    711.2800
    330    331    342   1    120.0000    527.1840
    332    331    342   1    120.0000    711.2800
    331    332    333   1    120.4000    669.4400
    331    332    334   1    113.9210    627.6000
    333    332    334   1    122.9000    669.4400
    332    334    335   1    121.9000    418.4000
    332    334    346   1    119.8000    292.8800
    335    334    346   1    118.4000    317.9840
    334    335    336   1    110.7230    585.7600
    334    335    347   1    109.5000    292.8800
    334    335    348   1    109.5000    292.8800
    336    335    347   1    110.7000    313.8000
    336    335    348   1    110.7000    313.8000
    347    335    348   1    107.8000    276.1440
    335    336    337   1    112.7000    488.2728
    335    336    349   1    110.7000    313.8000
    335    336    350   1    110.7000    313.8000
    337    336    349   1    110.7000    313.8000
    337    336    350   1    110.7000    313.8000
    349    336    350   1    107.8000    276.1440
    336    337    338   1    112.7000    488.2728
    336    337    351   1    110.7000    313.8000
    336    337    352   1    110.7000    313.8000
    338    337    351   1    110.7000    313.8000
    338    337    352   1    110.7000    313.8000
    351    337    352   1    107.8000    276.1440
    337    338    339   1    112.7000    488.2728
    337    338    353   1    110.7000    313.8000
    337    338    354   1    110.7000    313.8000
    339    338    353   1    110.7000    313.8000
    339    338    354   1    110.7000    313.8000
    353    338    354   1    107.8000    276.1440
    338    339    340   1    112.7000    488.2728
    338    339    355   1    110.7000    313.8000
    338    339    356   1    110.7000    313.8000
    340    339    355   1    110.7000    313.8000
    340    339    356   1    110.7000    313.8000
    355    339    356   1    107.8000    276.1440
    339    340    341   1    110.7230    585.7600
    339    340    357   1    110.7000    313.8000
    339    340    358   1    110.7000    313.8000
    341    340    357   1    109.5000    292.8800
    341    340    358   1    109.5000    292.8800
    357    340    358   1    107.8000    276.1440
    340    341    359   1    118.4000    317.9840
    340    341    362   1    121.9000    418.4000
    359    341    362   1    119.8000    292.8800
    331    342    343   1    120.0000    527.1840
    331    342    360   1    120.0000    292.8800
    343    342    360   1    120.0000    292.8800
    328    343    342   1    120.0000    527.1840
    328    343    361   1    120.0000    292.8800
    342    343    361   1    120.0000    292.8800
    341    362    363   1    122.9000    669.4400
    341    362    364   1    113.9210    627.6000
    363    362    364   1    120.4000    669.4400
    362    364    365   1    120.0000    711.2800
    362    364    379   1    120.0000    711.2800
    365    364    379   1    120.0000    527.1840
    364    365    366   1    120.0000    527.1840
    364    365    380   1    120.0000    292.8800
    366    365    380   1    120.0000    292.8800
    365    366    367   1    120.0000    527.1840
    365    366    381   1    120.0000    292.8800
    367    366    381   1    120.0000    292.8800
    366    367    368   1    120.0000    711.2800
    366    367    378   1    120.0000    527.1840
    368    367    378   1    120.0000    711.2800
    367    368    369   1    120.4000    669.4400
    367    368    370   1    113.9210    627.6000
    369    368    370   1    122.9000    669.4400
    368    370    371   1    121.9000    418.4000
    368    370    382   1    119.8000    292.8800
    371    370    382   1    118.4000    317.9840
    370    371    372   1    110.7230    585.7600
    370    371    383   1    109.5000    292.8800
    370    371    384   1    109.5000    292.8800
    372    371    383   1    110.7000    313.8000
    372    371    384   1    110.7000    313.8000
    383    371    384   1    107.8000    276.1440
    371    372    373   1    112.7000    488.2728
    371    372    385   1    110.7000    313.8000
    371    372    386   1    110.7000    313.8000
    373    372    385   1    110.7000    313.8000
    373    372    386   1    110.7000    313.8000
    385    372    386   1    107.8000    276.1440
    372    373    374   1    112.7000    488.2728
    372    373    387   1    110.7000    313.8000
    372    373    388   1    110.7000    313.8000
    374    373    387   1    110.7000    313.8000
    374    373    388   1    110.7000    313.8000
    387    373    388   1    107.8000    276.1440
    373    374    375   1    112.7000    488.2728
    373    374    389   1    110.7000    313.8000
    373    374    390   1    110.7000    313.8000
    375    374    389   1    110.7000    313.8000
    375    374    390   1    110.7000    313.8000
    389    374    390   1    107.8000    276.1440
    374    375    376   1    112.7000    488.2728
    374    375    391   1    110.7000    313.8000
    374    375    392   1    110.7000    313.8000
    376    375    391   1    110.7000    313.8000
    376    375    392   1    110.7000    313.8000
    391    375    392   1    107.8000    276.1440
    375    376    377   1    110.7230    585.7600
    375    376    393   1    110.7000    313.8000
    375    376    394   1    110.7000    313.8000
    377    376    393   1    109.5000    292.8800
    377    376    394   1    109.5000    292.8800
    393    376    394   1    107.8000    276.1440
    376    377    395   1    118.4000    317.9840
    376    377    398   1    121.9000    418.4000
    395    377    398   1    119.8000    292.8800
    367    378    379   1    120.0000    527.1840
    367    378    396   1    120.0000    292.8800
    379    378    396   1    120.0000    292.8800
    364    379    378   1    120.0000    527.1840
    364    379    397   1    120.0000    292.8800
    378    379    397   1    120.0000    292.8800
    377    398    399   1    122.9000    669.4400
    377    398    400   1    113.9210    627.6000
    399    398    400   1    120.4000    669.4400
    398    400    401   1    120.0000    711.2800
    398    400    415   1    120.0000    711.2800
    401    400    415   1    120.0000    527.1840
    400    401    402   1    120.0000    527.1840
    400    401    416   1    120.0000    292.8800
    402    401    416   1    120.0000    292.8800
    401    402    403   1    120.0000    527.1840
    401    402    417   1    120.0000    292.8800
    403    402    417   1    120.0000    292.8800
    402    403    404   1    120.0000    711.2800
    402    403    414   1    120.0000    527.1840
    404    403    414   1    120.0000    711.2800
    403    404    405   1    120.4000    669.4400
    403    404    406   1    113.9210    627.6000
    405    404    406   1    122.9000    669.4400
    404    406    407   1    121.9000    418.4000
    404    406    418   1    119.8000    292.8800
    407    406    418   1    118.4000    317.9840
    406    407    408   1    110.7230    585.7600
    406    407    419   1    109.5000    292.8800
    406    407    420   1    109.5000    292.8800
    408    407    419   1    110.7000    313.8000
    408    407    420   1    110.7000    313.8000
    419    407    420   1    107.8000    276.1440
    407    408    409   1    112.7000    488.2728
    407    408    421   1    110.7000    313.8000
    407    408    422   1    110.7000    313.8000
    409    408    421   1    110.7000    313.8000
    409    408    422   1    110.7000    313.8000
    421    408    422   1    107.8000    276.1440
    408    409    410   1    112.7000    488.2728
    408    409    423   1    110.7000    313.8000
    408    409    424   1    110.7000    313.8000
    410    409    423   1    110.7000    313.8000
    410    409    424   1    110.7000    313.8000
    423    409    424   1    107.8000    276.1440
    409    410    411   1    112.7000    488.2728
    409    410    425   1    110.7000    313.8000
    409    410    426   1    110.7000    313.8000
    411    410    425   1    110.7000    313.8000
    411    410    426   1    110.7000    313.8000
    425    410    426   1    107.8000    276.1440
    410    411    412   1    112.7000    488.2728
    410    411    427   1    110.7000    313.8000
    410    411    428   1    110.7000    313.8000
    412    411    427   1    110.7000    313.8000
    412    411    428   1    110.7000    313.8000
    427    411    428   1    107.8000    276.1440
    411    412    413   1    110.7230    585.7600
    411    412    429   1    110.7000    313.8000
    411    412    430   1    110.7000    313.8000
    413    412    429   1    109.5000    292.8800
    413    412    430   1    109.5000    292.8800
    429    412    430   1    107.8000    276.1440
    412    413    431   1    118.4000    317.9840
    412    413    434   1    121.9000    418.4000
    431    413    434   1    119.8000    292.8800
    403    414    415   1    120.0000    527.1840
    403    414    432   1    120.0000    292.8800
    415    414    432   1    120.0000    292.8800
    400    415    414   1    120.0000    527.1840
    400    415    433   1    120.0000    292.8800
    414    415    433   1    120.0000    292.8800
    413    434    435   1    122.9000    669.4400
    413    434    436   1    113.9210    627.6000
    435    434    436   1    120.4000    669.4400
    434    436    437   1    120.0000    711.2800
    434    436    451   1    120.0000    711.2800
    437    436    451   1    120.0000    527.1840
    436    437    438   1    120.0000    527.1840
    436    437    452   1    120.0000    292.8800
    438    437    452   1    120.0000    292.8800
    437    438    439   1    120.0000    527.1840
    437    438    453   1    120.0000    292.8800
    439    438    453   1    120.0000    292.8800
    438    439    440   1    120.0000    711.2800
    438    439    450   1    120.0000    527.1840
    440    439    450   1    120.0000    711.2800
    439    440    441   1    120.4000    669.4400
    439    440    442   1    113.9210    627.6000
    441    440    442   1    122.9000    669.4400
    440    442    443   1    121.9000    418.4000
    440    442    454   1    119.8000    292.8800
    443    442    454   1    118.4000    317.9840
    442    443    444   1    110.7230    585.7600
    442    443    455   1    109.5000    292.8800
    442    443    456   1    109.5000    292.8800
    444    443    455   1    110.7000    313.8000
    444    443    456   1    110.7000    313.8000
    455    443    456   1    107.8000    276.1440
    443    444    445   1    112.7000    488.2728
    443    444    457   1    110.7000    313.8000
    443    444    458   1    110.7000    313.8000
    445    444    457   1    110.7000    313.8000
    445    444    458   1    110.7000    313.8000
    457    444    458   1    107.8000    276.1440
    444    445    446   1    112.7000    488.2728
    444    445    459   1    110.7000    313.8000
    444    445    460   1    110.7000    313.8000
    446    445    459   1    110.7000    313.8000
    446    445    460   1    110.7000    313.8000
    459    445    460   1    107.8000    276.1440
    445    446    447   1    112.7000    488.2728
    445    446    461   1    110.7000    313.8000
    445    446    462   1    110.7000    313.8000
    447    446    461   1    110.7000    313.8000
    447    446    462   1    110.7000    313.8000
    461    446    462   1    107.8000    276.1440
    446    447    448   1    112.7000    488.2728
    446    447    463   1    110.7000    313.8000
    446    447    464   1    110.7000    313.8000
    448    447    463   1    110.7000    313.8000
    448    447    464   1    110.7000    313.8000
    463    447    464   1    107.8000    276.1440
    447    448    449   1    110.7230    585.7600
    447    448    465   1    110.7000    313.8000
    447    448    466   1    110.7000    313.8000
    449    448    465   1    109.5000    292.8800
    449    448    466   1    109.5000    292.8800
    465    448    466   1    107.8000    276.1440
    448    449    467   1    118.4000    317.9840
    448    449    470   1    121.9000    418.4000
    467    449    470   1    119.8000    292.8800
    439    450    451   1    120.0000    527.1840
    439    450    468   1    120.0000    292.8800
    451    450    468   1    120.0000    292.8800
    436    451    450   1    120.0000    527.1840
    436    451    469   1    120.0000    292.8800
    450    451    469   1    120.0000    292.8800
    449    470    471   1    122.9000    669.4400
    449    470    472   1    113.9210    627.6000
    471    470    472   1    120.4000    669.4400
    470    472    473   1    120.0000    711.2800
    470    472    487   1    120.0000    711.2800
    473    472    487   1    120.0000    527.1840
    472    473    474   1    120.0000    527.1840
    472    473    488   1    120.0000    292.8800
    474    473    488   1    120.0000    292.8800
    473    474    475   1    120.0000    527.1840
    473    474    489   1    120.0000    292.8800
    475    474    489   1    120.0000    292.8800
    474    475    476   1    120.0000    711.2800
    474    475    486   1    120.0000    527.1840
    476    475    486   1    120.0000    711.2800
    475    476    477   1    120.4000    669.4400
    475    476    478   1    113.9210    627.6000
    477    476    478   1    122.9000    669.4400
    476    478    479   1    121.9000    418.4000
    476    478    490   1    119.8000    292.8800
    479    478    490   1    118.4000    317.9840
    478    479    480   1    110.7230    585.7600
    478    479    491   1    109.5000    292.8800
    478    479    492   1    109.5000    292.8800
    480    479    491   1    110.7000    313.8000
    480    479    492   1    110.7000    313.8000
    491    479    492   1    107.8000    276.1440
    479    480    481   1    112.7000    488.2728
    479    480    493   1    110.7000    313.8000
    479    480    494   1    110.7000    313.8000
    481    480    493   1    110.7000    313.8000
    481    480    494   1    110.7000    313.8000
    493    480    494   1    107.8000    276.1440
    480    481    482   1    112.7000    488.2728
    480    481    495   1    110.7000    313.8000
    480    481    496   1    110.7000    313.8000
    482    481    495   1    110.7000    313.8000
    482    481    496   1    110.7000    313.8000
    495    481    496   1    107.8000    276.1440
    481    482    483   1    112.7000    488.2728
    481    482    497   1    110.7000    313.8000
    481    482    498   1    110.7000    313.8000
    483    482    497   1    110.7000    313.8000
    483    482    498   1    110.7000    313.8000
    497    482    498   1    107.8000    276.1440
    482    483    484   1    112.7000    488.2728
    482    483    499   1    110.7000    313.8000
    482    483    500   1    110.7000    313.8000
    484    483    499   1    110.7000    313.8000
    484    483    500   1    110.7000    313.8000
    499    483    500   1    107.8000    276.1440
    483    484    485   1    110.7230    585.7600
    483    484    501   1    110.7000    313.8000
    483    484    502   1    110.7000    313.8000
    485    484    501   1    109.5000    292.8800
    485    484    502   1    109.5000    292.8800
    501    484    502   1    107.8000    276.1440
    484    485    503   1    118.4000    317.9840
    484    485    506   1    121.9000    418.4000
    503    485    506   1    119.8000    292.8800
    475    486    487   1    120.0000    527.1840
    475    486    504   1    120.0000    292.8800
    487    486    504   1    120.0000    292.8800
    472    487    486   1    120.0000    527.1840
    472    487    505   1    120.0000    292.8800
    486    487    505   1    120.0000    292.8800
    485    506    507   1    122.9000    669.4400
    485    506    508   1    113.9210    627.6000
    507    506    508   1    120.4000    669.4400
    506    508    509   1    120.0000    711.2800
    506    508    523   1    120.0000    711.2800
    509    508    523   1    120.0000    527.1840
    508    509    510   1    120.0000    527.1840
    508    509    524   1    120.0000    292.8800
    510    509    524   1    120.0000    292.8800
    509    510    511   1    120.0000    527.1840
    509    510    525   1    120.0000    292.8800
    511    510    525   1    120.0000    292.8800
    510    511    512   1    120.0000    711.2800
    510    511    522   1    120.0000    527.1840
    512    511    522   1    120.0000    711.2800
    511    512    513   1    120.4000    669.4400
    511    512    514   1    113.9210    627.6000
    513    512    514   1    122.9000    669.4400
    512    514    515   1    121.9000    418.4000
    512    514    526   1    119.8000    292.8800
    515    514    526   1    118.4000    317.9840
    514    515    516   1    110.7230    585.7600
    514    515    527   1    109.5000    292.8800
    514    515    528   1    109.5000    292.8800
    516    515    527   1    110.7000    313.8000
    516    515    528   1    110.7000    313.8000
    527    515    528   1    107.8000    276.1440
    515    516    517   1    112.7000    488.2728
    515    516    529   1    110.7000    313.8000
    515    516    530   1    110.7000    313.8000
    517    516    529   1    110.7000    313.8000
    517    516    530   1    110.7000    313.8000
    529    516    530   1    107.8000    276.1440
    516    517    518   1    112.7000    488.2728
    516    517    531   1    110.7000    313.8000
    516    517    532   1    110.7000    313.8000
    518    517    531   1    110.7000    313.8000
    518    517    532   1    110.7000    313.8000
    531    517    532   1    107.8000    276.1440
    517    518    519   1    112.7000    488.2728
    517    518    533   1    110.7000    313.8000
    517    518    534   1    110.7000    313.8000
    519    518    533   1    110.7000    313.8000
    519    518    534   1    110.7000    313.8000
    533    518    534   1    107.8000    276.1440
    518    519    520   1    112.7000    488.2728
    518    519    535   1    110.7000    313.8000
    518    519    536   1    110.7000    313.8000
    520    519    535   1    110.7000    313.8000
    520    519    536   1    110.7000    313.8000
    535    519    536   1    107.8000    276.1440
    519    520    521   1    110.7230    585.7600
    519    520    537   1    110.7000    313.8000
    519    520    538   1    110.7000    313.8000
    521    520    537   1    109.5000    292.8800
    521    520    538   1    109.5000    292.8800
    537    520    538   1    107.8000    276.1440
    520    521    539   1    118.4000    317.9840
    520    521    542   1    121.9000    418.4000
    539    521    542   1    119.8000    292.8800
    511    522    523   1    120.0000    527.1840
    511    522    540   1    120.0000    292.8800
    523    522    540   1    120.0000    292.8800
    508    523    522   1    120.0000    527.1840
    508    523    541   1    120.0000    292.8800
    522    523    541   1    120.0000    292.8800
    521    542    543   1    122.9000    669.4400
    521    542    544   1    113.9210    627.6000
    543    542    544   1    120.4000    669.4400
    542    544    545   1    120.0000    711.2800
    542    544    559   1    120.0000    711.2800
    545    544    559   1    120.0000    527.1840
    544    545    546   1    120.0000    527.1840
    544    545    560   1    120.0000    292.8800
    546    545    560   1    120.0000    292.8800
    545    546    547   1    120.0000    527.1840
    545    546    561   1    120.0000    292.8800
    547    546    561   1    120.0000    292.8800
    546    547    548   1    120.0000    711.2800
    546    547    558   1    120.0000    527.1840
    548    547    558   1    120.0000    711.2800
    547    548    549   1    120.4000    669.4400
    547    548    550   1    113.9210    627.6000
    549    548    550   1    122.9000    669.4400
    548    550    551   1    121.9000    418.4000
    548    550    562   1    119.8000    292.8800
    551    550    562   1    118.4000    317.9840
    550    551    552   1    110.7230    585.7600
    550    551    563   1    109.5000    292.8800
    550    551    564   1    109.5000    292.8800
    552    551    563   1    110.7000    313.8000
    552    551    564   1    110.7000    313.8000
    563    551    564   1    107.8000    276.1440
    551    552    553   1    112.7000    488.2728
    551    552    565   1    110.7000    313.8000
    551    552    566   1    110.7000    313.8000
    553    552    565   1    110.7000    313.8000
    553    552    566   1    110.7000    313.8000
    565    552    566   1    107.8000    276.1440
    552    553    554   1    112.7000    488.2728
    552    553    567   1    110.7000    313.8000
    552    553    568   1    110.7000    313.8000
    554    553    567   1    110.7000    313.8000
    554    553    568   1    110.7000    313.8000
    567    553    568   1    107.8000    276.1440
    553    554    555   1    112.7000    488.2728
    553    554    569   1    110.7000    313.8000
    553    554    570   1    110.7000    313.8000
    555    554    569   1    110.7000    313.8000
    555    554    570   1    110.7000    313.8000
    569    554    570   1    107.8000    276.1440
    554    555    556   1    112.7000    488.2728
    554    555    571   1    110.7000    313.8000
    554    555    572   1    110.7000    313.8000
    556    555    571   1    110.7000    313.8000
    556    555    572   1    110.7000    313.8000
    571    555    572   1    107.8000    276.1440
    555    556    557   1    110.7230    585.7600
    555    556    573   1    110.7000    313.8000
    555    556    574   1    110.7000    313.8000
    557    556    573   1    109.5000    292.8800
    557    556    574   1    109.5000    292.8800
    573    556    574   1    107.8000    276.1440
    556    557    575   1    118.4000    317.9840
    556    557    578   1    121.9000    418.4000
    575    557    578   1    119.8000    292.8800
    547    558    559   1    120.0000    527.1840
    547    558    576   1    120.0000    292.8800
    559    558    576   1    120.0000    292.8800
    544    559    558   1    120.0000    527.1840
    544    559    577   1    120.0000    292.8800
    558    559    577   1    120.0000    292.8800
    557    578    579   1    122.9000    669.4400
    557    578    580   1    113.9210    627.6000
    579    578    580   1    120.4000    669.4400
    578    580    581   1    120.0000    711.2800
    578    580    595   1    120.0000    711.2800
    581    580    595   1    120.0000    527.1840
    580    581    582   1    120.0000    527.1840
    580    581    596   1    120.0000    292.8800
    582    581    596   1    120.0000    292.8800
    581    582    583   1    120.0000    527.1840
    581    582    597   1    120.0000    292.8800
    583    582    597   1    120.0000    292.8800
    582    583    584   1    120.0000    711.2800
    582    583    594   1    120.0000    527.1840
    584    583    594   1    120.0000    711.2800
    583    584    585   1    120.4000    669.4400
    583    584    586   1    113.9210    627.6000
    585    584    586   1    122.9000    669.4400
    584    586    587   1    121.9000    418.4000
    584    586    598   1    119.8000    292.8800
    587    586    598   1    118.4000    317.9840
    586    587    588   1    110.7230    585.7600
    586    587    599   1    109.5000    292.8800
    586    587    600   1    109.5000    292.8800
    588    587    599   1    110.7000    313.8000
    588    587    600   1    110.7000    313.8000
    599    587    600   1    107.8000    276.1440
    587    588    589   1    112.7000    488.2728
    587    588    601   1    110.7000    313.8000
    587    588    602   1    110.7000    313.8000
    589    588    601   1    110.7000    313.8000
    589    588    602   1    110.7000    313.8000
    601    588    602   1    107.8000    276.1440
    588    589    590   1    112.7000    488.2728
    588    589    603   1    110.7000    313.8000
    588    589    604   1    110.7000    313.8000
    590    589    603   1    110.7000    313.8000
    590    589    604   1    110.7000    313.8000
    603    589    604   1    107.8000    276.1440
    589    590    591   1    112.7000    488.2728
    589    590    605   1    110.7000    313.8000
    589    590    606   1    110.7000    313.8000
    591    590    605   1    110.7000    313.8000
    591    590    606   1    110.7000    313.8000
    605    590    606   1    107.8000    276.1440
    590    591    592   1    112.7000    488.2728
    590    591    607   1    110.7000    313.8000
    590    591    608   1    110.7000    313.8000
    592    591    607   1    110.7000    313.8000
    592    591    608   1    110.7000    313.8000
    607    591    608   1    107.8000    276.1440
    591    592    593   1    110.7230    585.7600
    591    592    609   1    110.7000    313.8000
    591    592    610   1    110.7000    313.8000
    593    592    609   1    109.5000    292.8800
    593    592    610   1    109.5000    292.8800
    609    592    610   1    107.8000    276.1440
    592    593    611   1    118.4000    317.9840
    592    593    614   1    121.9000    418.4000
    611    593    614   1    119.8000    292.8800
    583    594    595   1    120.0000    527.1840
    583    594    612   1    120.0000    292.8800
    595    594    612   1    120.0000    292.8800
    580    595    594   1    120.0000    527.1840
    580    595    613   1    120.0000    292.8800
    594    595    613   1    120.0000    292.8800
    593    614    615   1    122.9000    669.4400
    593    614    616   1    113.9210    627.6000
    615    614    616   1    120.4000    669.4400
    614    616    617   1    120.0000    711.2800
    614    616    631   1    120.0000    711.2800
    617    616    631   1    120.0000    527.1840
    616    617    618   1    120.0000    527.1840
    616    617    632   1    120.0000    292.8800
    618    617    632   1    120.0000    292.8800
    617    618    619   1    120.0000    527.1840
    617    618    633   1    120.0000    292.8800
    619    618    633   1    120.0000    292.8800
    618    619    620   1    120.0000    711.2800
    618    619    630   1    120.0000    527.1840
    620    619    630   1    120.0000    711.2800
    619    620    621   1    120.4000    669.4400
    619    620    622   1    113.9210    627.6000
    621    620    622   1    122.9000    669.4400
    620    622    623   1    121.9000    418.4000
    620    622    634   1    119.8000    292.8800
    623    622    634   1    118.4000    317.9840
    622    623    624   1    110.7230    585.7600
    622    623    635   1    109.5000    292.8800
    622    623    636   1    109.5000    292.8800
    624    623    635   1    110.7000    313.8000
    624    623    636   1    110.7000    313.8000
    635    623    636   1    107.8000    276.1440
    623    624    625   1    112.7000    488.2728
    623    624    637   1    110.7000    313.8000
    623    624    638   1    110.7000    313.8000
    625    624    637   1    110.7000    313.8000
    625    624    638   1    110.7000    313.8000
    637    624    638   1    107.8000    276.1440
    624    625    626   1    112.7000    488.2728
    624    625    639   1    110.7000    313.8000
    624    625    640   1    110.7000    313.8000
    626    625    639   1    110.7000    313.8000
    626    625    640   1    110.7000    313.8000
    639    625    640   1    107.8000    276.1440
    625    626    627   1    112.7000    488.2728
    625    626    641   1    110.7000    313.8000
    625    626    642   1    110.7000    313.8000
    627    626    641   1    110.7000    313.8000
    627    626    642   1    110.7000    313.8000
    641    626    642   1    107.8000    276.1440
    626    627    628   1    112.7000    488.2728
    626    627    643   1    110.7000    313.8000
    626    627    644   1    110.7000    313.8000
    628    627    643   1    110.7000    313.8000
    628    627    644   1    110.7000    313.8000
    643    627    644   1    107.8000    276.1440
    627    628    629   1    110.7230    585.7600
    627    628    645   1    110.7000    313.8000
    627    628    646   1    110.7000    313.8000
    629    628    645   1    109.5000    292.8800
    629    628    646   1    109.5000    292.8800
    645    628    646   1    107.8000    276.1440
    628    629    647   1    118.4000    317.9840
    628    629    650   1    121.9000    418.4000
    647    629    650   1    119.8000    292.8800
    619    630    631   1    120.0000    527.1840
    619    630    648   1    120.0000    292.8800
    631    630    648   1    120.0000    292.8800
    616    631    630   1    120.0000    527.1840
    616    631    649   1    120.0000    292.8800
    630    631    649   1    120.0000    292.8800
    629    650    651   1    122.9000    669.4400
    629    650    652   1    113.9210    627.6000
    651    650    652   1    120.4000    669.4400
    650    652    653   1    120.0000    711.2800
    650    652    667   1    120.0000    711.2800
    653    652    667   1    120.0000    527.1840
    652    653    654   1    120.0000    527.1840
    652    653    668   1    120.0000    292.8800
    654    653    668   1    120.0000    292.8800
    653    654    655   1    120.0000    527.1840
    653    654    669   1    120.0000    292.8800
    655    654    669   1    120.0000    292.8800
    654    655    656   1    120.0000    711.2800
    654    655    666   1    120.0000    527.1840
    656    655    666   1    120.0000    711.2800
    655    656    657   1    120.4000    669.4400
    655    656    658   1    113.9210    627.6000
    657    656    658   1    122.9000    669.4400
    656    658    659   1    121.9000    418.4000
    656    658    670   1    119.8000    292.8800
    659    658    670   1    118.4000    317.9840
    658    659    660   1    110.7230    585.7600
    658    659    671   1    109.5000    292.8800
    658    659    672   1    109.5000    292.8800
    660    659    671   1    110.7000    313.8000
    660    659    672   1    110.7000    313.8000
    671    659    672   1    107.8000    276.1440
    659    660    661   1    112.7000    488.2728
    659    660    673   1    110.7000    313.8000
    659    660    674   1    110.7000    313.8000
    661    660    673   1    110.7000    313.8000
    661    660    674   1    110.7000    313.8000
    673    660    674   1    107.8000    276.1440
    660    661    662   1    112.7000    488.2728
    660    661    675   1    110.7000    313.8000
    660    661    676   1    110.7000    313.8000
    662    661    675   1    110.7000    313.8000
    662    661    676   1    110.7000    313.8000
    675    661    676   1    107.8000    276.1440
    661    662    663   1    112.7000    488.2728
    661    662    677   1    110.7000    313.8000
    661    662    678   1    110.7000    313.8000
    663    662    677   1    110.7000    313.8000
    663    662    678   1    110.7000    313.8000
    677    662    678   1    107.8000    276.1440
    662    663    664   1    112.7000    488.2728
    662    663    679   1    110.7000    313.8000
    662    663    680   1    110.7000    313.8000
    664    663    679   1    110.7000    313.8000
    664    663    680   1    110.7000    313.8000
    679    663    680   1    107.8000    276.1440
    663    664    665   1    110.7230    585.7600
    663    664    681   1    110.7000    313.8000
    663    664    682   1    110.7000    313.8000
    665    664    681   1    109.5000    292.8800
    665    664    682   1    109.5000    292.8800
    681    664    682   1    107.8000    276.1440
    664    665    683   1    118.4000    317.9840
    664    665    686   1    121.9000    418.4000
    683    665    686   1    119.8000    292.8800
    655    666    667   1    120.0000    527.1840
    655    666    684   1    120.0000    292.8800
    667    666    684   1    120.0000    292.8800
    652    667    666   1    120.0000    527.1840
    652    667    685   1    120.0000    292.8800
    666    667    685   1    120.0000    292.8800
    665    686    687   1    122.9000    669.4400
    665    686    688   1    113.9210    627.6000
    687    686    688   1    120.4000    669.4400
    686    688    689   1    120.0000    711.2800
    686    688    703   1    120.0000    711.2800
    689    688    703   1    120.0000    527.1840
    688    689    690   1    120.0000    527.1840
    688    689    704   1    120.0000    292.8800
    690    689    704   1    120.0000    292.8800
    689    690    691   1    120.0000    527.1840
    689    690    705   1    120.0000    292.8800
    691    690    705   1    120.0000    292.8800
    690    691    692   1    120.0000    711.2800
    690    691    702   1    120.0000    527.1840
    692    691    702   1    120.0000    711.2800
    691    692    693   1    120.4000    669.4400
    691    692    694   1    113.9210    627.6000
    693    692    694   1    122.9000    669.4400
    692    694    695   1    121.9000    418.4000
    692    694    706   1    119.8000    292.8800
    695    694    706   1    118.4000    317.9840
    694    695    696   1    110.7230    585.7600
    694    695    707   1    109.5000    292.8800
    694    695    708   1    109.5000    292.8800
    696    695    707   1    110.7000    313.8000
    696    695    708   1    110.7000    313.8000
    707    695    708   1    107.8000    276.1440
    695    696    697   1    112.7000    488.2728
    695    696    709   1    110.7000    313.8000
    695    696    710   1    110.7000    313.8000
    697    696    709   1    110.7000    313.8000
    697    696    710   1    110.7000    313.8000
    709    696    710   1    107.8000    276.1440
    696    697    698   1    112.7000    488.2728
    696    697    711   1    110.7000    313.8000
    696    697    712   1    110.7000    313.8000
    698    697    711   1    110.7000    313.8000
    698    697    712   1    110.7000    313.8000
    711    697    712   1    107.8000    276.1440
    697    698    699   1    112.7000    488.2728
    697    698    713   1    110.7000    313.8000
    697    698    714   1    110.7000    313.8000
    699    698    713   1    110.7000    313.8000
    699    698    714   1    110.7000    313.8000
    713    698    714   1    107.8000    276.1440
    698    699    700   1    112.7000    488.2728
    698    699    715   1    110.7000    313.8000
    698    699    716   1    110.7000    313.8000
    700    699    715   1    110.7000    313.8000
    700    699    716   1    110.7000    313.8000
    715    699    716   1    107.8000    276.1440
    699    700    701   1    109.4700    470.2816
    699    700    717   1    110.7000    313.8000
    699    700    718   1    110.7000    313.8000
    701    700    717   1    109.5000    292.8800
    701    700    718   1    109.5000    292.8800
    717    700    718   1    107.8000    276.1440
    700    701    719   1    109.5000    292.8800
    700    701    722   1    109.5000    292.8800
    719    701    722   1    106.4000    364.8448
    691    702    703   1    120.0000    527.1840
    691    702    720   1    120.0000    292.8800
    703    702    720   1    120.0000    292.8800
    688    703    702   1    120.0000    527.1840
    688    703    721   1    120.0000    292.8800
    702    703    721   1    120.0000    292.8800

[ dihedrals ]
; Proper dihedrals
      2      1      3      4   5     0.00000     8.78640     0.00000  0.0
      2      1      3     18   5     0.00000     8.78640     0.00000  0.0
     37      1      3      4   5     0.00000     4.73629     0.00000  0.0
     37      1      3     18   5     0.00000     4.73629     0.00000  0.0
      1      3      4      5   5     0.00000    30.33400     0.00000  0.0
      1      3      4     19   5     0.00000    30.33400     0.00000  0.0
     18      3      4      5   5     0.00000    30.33400     0.00000  0.0
     18      3      4     19   5     0.00000    30.33400     0.00000  0.0
      1      3     18     17   5     0.00000    30.33400     0.00000  0.0
      1      3     18     36   5     0.00000    30.33400     0.00000  0.0
      4      3     18     17   5     0.00000    30.33400     0.00000  0.0
      4      3     18     36   5     0.00000    30.33400     0.00000  0.0
      3      4      5      6   5     0.00000    30.33400     0.00000  0.0
      3      4      5     20   5     0.00000    30.33400     0.00000  0.0
     19      4      5      6   5     0.00000    30.33400     0.00000  0.0
     19      4      5     20   5     0.00000    30.33400     0.00000  0.0
      4      5      6      7   5     0.00000    30.33400     0.00000  0.0
      4      5      6     17   5     0.00000    30.33400     0.00000  0.0
     20      5      6      7   5     0.00000    30.33400     0.00000  0.0
     20      5      6     17   5     0.00000    30.33400     0.00000  0.0
      5      6      7      8   5     0.00000     8.78640     0.00000  0.0
      5      6      7      9   5     6.33458     2.89951     2.76144  0.0
     17      6      7      8   5     0.00000     8.78640     0.00000  0.0
     17      6      7      9   5     6.33458     2.89951     2.76144  0.0
      5      6     17     18   5     0.00000    30.33400     0.00000  0.0
      5      6     17     35   5     0.00000    30.33400     0.00000  0.0
      7      6     17     18   5     0.00000    30.33400     0.00000  0.0
      7      6     17     35   5     0.00000    30.33400     0.00000  0.0
      6      7      9     10   5    12.53945    12.88254     0.00000  0.0
      6      7      9     21   5     0.00000    21.48066     0.00000  0.0
      8      7      9     10   5     0.00000    25.47638     0.00000  0.0
      8      7      9     21   5     0.00000    20.50160     0.00000  0.0
      7      9     10     11   5    -3.67774    -0.67781     0.28033  0.0
      7      9     10     22   5     0.00000     0.00000     0.00000  0.0
      7      9     10     23   5     0.00000     0.00000     0.00000  0.0
     21      9     10     11   5     0.00000     0.00000     0.00000  0.0
     21      9     10     22   5     0.00000     0.00000     0.00000  0.0
     21      9     10     23   5     0.00000     0.00000     0.00000  0.0
      9     10     11     12   5     3.67355     4.10869     2.37651  0.0
      9     10     11     24   5     0.00000     0.00000     1.25520  0.0
      9     10     11     25   5     0.00000     0.00000     1.25520  0.0
     22     10     11     12   5     0.00000     0.00000     1.25520  0.0
     22     10     11     24   5     0.00000     0.00000     1.25520  0.0
     22     10     11     25   5     0.00000     0.00000     1.25520  0.0
     23     10     11     12   5     0.00000     0.00000     1.25520  0.0
     23     10     11     24   5     0.00000     0.00000     1.25520  0.0
     23     10     11     25   5     0.00000     0.00000     1.25520  0.0
     10     11     12     13   5     4.74884    -0.63178     1.67360  0.0
     10     11     12     26   5     0.00000     0.00000     1.25520  0.0
     10     11     12     27   5     0.00000     0.00000     1.25520  0.0
     24     11     12     13   5     0.00000     0.00000     1.25520  0.0
     24     11     12     26   5     0.00000     0.00000     1.25520  0.0
     24     11     12     27   5     0.00000     0.00000     1.25520  0.0
     25     11     12     13   5     0.00000     0.00000     1.25520  0.0
     25     11     12     26   5     0.00000     0.00000     1.25520  0.0
     25     11     12     27   5     0.00000     0.00000     1.25520  0.0
     11     12     13     14   5     4.74884    -0.63178     1.67360  0.0
     11     12     13     28   5     0.00000     0.00000     1.25520  0.0
     11     12     13     29   5     0.00000     0.00000     1.25520  0.0
     26     12     13     14   5     0.00000     0.00000     1.25520  0.0
     26     12     13     28   5     0.00000     0.00000     1.25520  0.0
     26     12     13     29   5     0.00000     0.00000     1.25520  0.0
     27     12     13     14   5     0.00000     0.00000     1.25520  0.0
     27     12     13     28   5     0.00000     0.00000     1.25520  0.0
     27     12     13     29   5     0.00000     0.00000     1.25520  0.0
     12     13     14     15   5     4.74884    -0.63178     1.67360  0.0
     12     13     14     30   5     0.00000     0.00000     1.25520  0.0
     12     13     14     31   5     0.00000     0.00000     1.25520  0.0
     28     13     14     15   5     0.00000     0.00000     1.25520  0.0
     28     13     14     30   5     0.00000     0.00000     1.25520  0.0
     28     13     14     31   5     0.00000     0.00000     1.25520  0.0
     29     13     14     15   5     0.00000     0.00000     1.25520  0.0
     29     13     14     30   5     0.00000     0.00000     1.25520  0.0
     29     13     14     31   5     0.00000     0.00000     1.25520  0.0
     13     14     15     16   5     3.67355     4.10869     2.37651  0.0
     13     14     15     32   5     0.00000     0.00000     1.25520  0.0
     13     14     15     33   5     0.00000     0.00000     1.25520  0.0
     30     14     15     16   5     0.00000     0.00000     1.25520  0.0
     30     14     15     32   5     0.00000     0.00000     1.25520  0.0
     30     14     15     33   5     0.00000     0.00000     1.25520  0.0
     31     14     15     16   5     0.00000     0.00000     1.25520  0.0
     31     14     15     32   5     0.00000     0.00000     1.25520  0.0
     31     14     15     33   5     0.00000     0.00000     1.25520  0.0
     14     15     16     34   5     0.00000     0.00000     0.00000  0.0
     14     15     16     38   5    -3.67774    -0.67781     0.28033  0.0
     32     15     16     34   5     0.00000     0.00000     0.00000  0.0
     32     15     16     38   5     0.00000     0.00000     0.00000  0.0
     33     15     16     34   5     0.00000     0.00000     0.00000  0.0
     33     15     16     38   5     0.00000     0.00000     0.00000  0.0
     15     16     38     39   5     0.00000    25.47638     0.00000  0.0
     15     16     38     40   5    12.53945    12.88254     0.00000  0.0
     34     16     38     39   5     0.00000    20.50160     0.00000  0.0
     34     16     38     40   5     0.00000    21.48066     0.00000  0.0
      6     17     18      3   5     0.00000    30.33400     0.00000  0.0
      6     17     18     36   5     0.00000    30.33400     0.00000  0.0
     35     17     18      3   5     0.00000    30.33400     0.00000  0.0
     35     17     18     36   5     0.00000    30.33400     0.00000  0.0
     16     38     40     41   5     6.33458     2.89951     2.76144  0.0
     16     38     40     55   5     6.33458     2.89951     2.76144  0.0
     39     38     40     41   5     0.00000     8.78640     0.00000  0.0
     39     38     40     55   5     0.00000     8.78640     0.00000  0.0
     38     40     41     42   5     0.00000    30.33400     0.00000  0.0
     38     40     41     56   5     0.00000    30.33400     0.00000  0.0
     55     40     41     42   5     0.00000    30.33400     0.00000  0.0
     55     40     41     56   5     0.00000    30.33400     0.00000  0.0
     38     40     55     54   5     0.00000    30.33400     0.00000  0.0
     38     40     55     73   5     0.00000    30.33400     0.00000  0.0
     41     40     55     54   5     0.00000    30.33400     0.00000  0.0
     41     40     55     73   5     0.00000    30.33400     0.00000  0.0
     40     41     42     43   5     0.00000    30.33400     0.00000  0.0
     40     41     42     57   5     0.00000    30.33400     0.00000  0.0
     56     41     42     43   5     0.00000    30.33400     0.00000  0.0
     56     41     42     57   5     0.00000    30.33400     0.00000  0.0
     41     42     43     44   5     0.00000    30.33400     0.00000  0.0
     41     42     43     54   5     0.00000    30.33400     0.00000  0.0
     57     42     43     44   5     0.00000    30.33400     0.00000  0.0
     57     42     43     54   5     0.00000    30.33400     0.00000  0.0
     42     43     44     45   5     0.00000     8.78640     0.00000  0.0
     42     43     44     46   5     6.33458     2.89951     2.76144  0.0
     54     43     44     45   5     0.00000     8.78640     0.00000  0.0
     54     43     44     46   5     6.33458     2.89951     2.76144  0.0
     42     43     54     55   5     0.00000    30.33400     0.00000  0.0
     42     43     54     72   5     0.00000    30.33400     0.00000  0.0
     44     43     54     55   5     0.00000    30.33400     0.00000  0.0
     44     43     54     72   5     0.00000    30.33400     0.00000  0.0
     43     44     46     47   5    12.53945    12.88254     0.00000  0.0
     43     44     46     58   5     0.00000    21.48066     0.00000  0.0
     45     44     46     47   5     0.00000    25.47638     0.00000  0.0
     45     44     46     58   5     0.00000    20.50160     0.00000  0.0
     44     46     47     48   5    -3.67774    -0.67781     0.28033  0.0
     44     46     47     59   5     0.00000     0.00000     0.00000  0.0
     44     46     47     60   5     0.00000     0.00000     0.00000  0.0
     58     46     47     48   5     0.00000     0.00000     0.00000  0.0
     58     46     47     59   5     0.00000     0.00000     0.00000  0.0
     58     46     47     60   5     0.00000     0.00000     0.00000  0.0
     46     47     48     49   5     3.67355     4.10869     2.37651  0.0
     46     47     48     61   5     0.00000     0.00000     1.25520  0.0
     46     47     48     62   5     0.00000     0.00000     1.25520  0.0
     59     47     48     49   5     0.00000     0.00000     1.25520  0.0
     59     47     48     61   5     0.00000     0.00000     1.25520  0.0
     59     47     48     62   5     0.00000     0.00000     1.25520  0.0
     60     47     48     49   5     0.00000     0.00000     1.25520  0.0
     60     47     48     61   5     0.00000     0.00000     1.25520  0.0
     60     47     48     62   5     0.00000     0.00000     1.25520  0.0
     47     48     49     50   5     4.74884    -0.63178     1.67360  0.0
     47     48     49     63   5     0.00000     0.00000     1.25520  0.0
     47     48     49     64   5     0.00000     0.00000     1.25520  0.0
     61     48     49     50   5     0.00000     0.00000     1.25520  0.0
     61     48     49     63   5     0.00000     0.00000     1.25520  0.0
     61     48     49     64   5     0.00000     0.00000     1.25520  0.0
     62     48     49     50   5     0.00000     0.00000     1.25520  0.0
     62     48     49     63   5     0.00000     0.00000     1.25520  0.0
     62     48     49     64   5     0.00000     0.00000     1.25520  0.0
     48     49     50     51   5     4.74884    -0.63178     1.67360  0.0
     48     49     50     65   5     0.00000     0.00000     1.25520  0.0
     48     49     50     66   5     0.00000     0.00000     1.25520  0.0
     63     49     50     51   5     0.00000     0.00000     1.25520  0.0
     63     49     50     65   5     0.00000     0.00000     1.25520  0.0
     63     49     50     66   5     0.00000     0.00000     1.25520  0.0
     64     49     50     51   5     0.00000     0.00000     1.25520  0.0
     64     49     50     65   5     0.00000     0.00000     1.25520  0.0
     64     49     50     66   5     0.00000     0.00000     1.25520  0.0
     49     50     51     52   5     4.74884    -0.63178     1.67360  0.0
     49     50     51     67   5     0.00000     0.00000     1.25520  0.0
     49     50     51     68   5     0.00000     0.00000     1.25520  0.0
     65     50     51     52   5     0.00000     0.00000     1.25520  0.0
     65     50     51     67   5     0.00000     0.00000     1.25520  0.0
     65     50     51     68   5     0.00000     0.00000     1.25520  0.0
     66     50     51     52   5     0.00000     0.00000     1.25520  0.0
     66     50     51     67   5     0.00000     0.00000     1.25520  0.0
     66     50     51     68   5     0.00000     0.00000     1.25520  0.0
     50     51     52     53   5     3.67355     4.10869     2.37651  0.0
     50     51     52     69   5     0.00000     0.00000     1.25520  0.0
     50     51     52     70   5     0.00000     0.00000     1.25520  0.0
     67     51     52     53   5     0.00000     0.00000     1.25520  0.0
     67     51     52     69   5     0.00000     0.00000     1.25520  0.0
     67     51     52     70   5     0.00000     0.00000     1.25520  0.0
     68     51     52     53   5     0.00000     0.00000     1.25520  0.0
     68     51     52     69   5     0.00000     0.00000     1.25520  0.0
     68     51     52     70   5     0.00000     0.00000     1.25520  0.0
     51     52     53     71   5     0.00000     0.00000     0.00000  0.0
     51     52     53     74   5    -3.67774    -0.67781     0.28033  0.0
     69     52     53     71   5     0.00000     0.00000     0.00000  0.0
     69     52     53     74   5     0.00000     0.00000     0.00000  0.0
     70     52     53     71   5     0.00000     0.00000     0.00000  0.0
     70     52     53     74   5     0.00000     0.00000     0.00000  0.0
     52     53     74     75   5     0.00000    25.47638     0.00000  0.0
     52     53     74     76   5    12.53945    12.88254     0.00000  0.0
     71     53     74     75   5     0.00000    20.50160     0.00000  0.0
     71     53     74     76   5     0.00000    21.48066     0.00000  0.0
     43     54     55     40   5     0.00000    30.33400     0.00000  0.0
     43     54     55     73   5     0.00000    30.33400     0.00000  0.0
     72     54     55     40   5     0.00000    30.33400     0.00000  0.0
     72     54     55     73   5     0.00000    30.33400     0.00000  0.0
     53     74     76     77   5     6.33458     2.89951     2.76144  0.0
     53     74     76     91   5     6.33458     2.89951     2.76144  0.0
     75     74     76     77   5     0.00000     8.78640     0.00000  0.0
     75     74     76     91   5     0.00000     8.78640     0.00000  0.0
     74     76     77     78   5     0.00000    30.33400     0.00000  0.0
     74     76     77     92   5     0.00000    30.33400     0.00000  0.0
     91     76     77     78   5     0.00000    30.33400     0.00000  0.0
     91     76     77     92   5     0.00000    30.33400     0.00000  0.0
     74     76     91     90   5     0.00000    30.33400     0.00000  0.0
     74     76     91    109   5     0.00000    30.33400     0.00000  0.0
     77     76     91     90   5     0.00000    30.33400     0.00000  0.0
     77     76     91    109   5     0.00000    30.33400     0.00000  0.0
     76     77     78     79   5     0.00000    30.33400     0.00000  0.0
     76     77     78     93   5     0.00000    30.33400     0.00000  0.0
     92     77     78     79   5     0.00000    30.33400     0.00000  0.0
     92     77     78     93   5     0.00000    30.33400     0.00000  0.0
     77     78     79     80   5     0.00000    30.33400     0.00000  0.0
     77     78     79     90   5     0.00000    30.33400     0.00000  0.0
     93     78     79     80   5     0.00000    30.33400     0.00000  0.0
     93     78     79     90   5     0.00000    30.33400     0.00000  0.0
     78     79     80     81   5     0.00000     8.78640     0.00000  0.0
     78     79     80     82   5     6.33458     2.89951     2.76144  0.0
     90     79     80     81   5     0.00000     8.78640     0.00000  0.0
     90     79     80     82   5     6.33458     2.89951     2.76144  0.0
     78     79     90     91   5     0.00000    30.33400     0.00000  0.0
     78     79     90    108   5     0.00000    30.33400     0.00000  0.0
     80     79     90     91   5     0.00000    30.33400     0.00000  0.0
     80     79     90    108   5     0.00000    30.33400     0.00000  0.0
     79     80     82     83   5    12.53945    12.88254     0.00000  0.0
     79     80     82     94   5     0.00000    21.48066     0.00000  0.0
     81     80     82     83   5     0.00000    25.47638     0.00000  0.0
     81     80     82     94   5     0.00000    20.50160     0.00000  0.0
     80     82     83     84   5    -3.67774    -0.67781     0.28033  0.0
     80     82     83     95   5     0.00000     0.00000     0.00000  0.0
     80     82     83     96   5     0.00000     0.00000     0.00000  0.0
     94     82     83     84   5     0.00000     0.00000     0.00000  0.0
     94     82     83     95   5     0.00000     0.00000     0.00000  0.0
     94     82     83     96   5     0.00000     0.00000     0.00000  0.0
     82     83     84     85   5     3.67355     4.10869     2.37651  0.0
     82     83     84     97   5     0.00000     0.00000     1.25520  0.0
     82     83     84     98   5     0.00000     0.00000     1.25520  0.0
     95     83     84     85   5     0.00000     0.00000     1.25520  0.0
     95     83     84     97   5     0.00000     0.00000     1.25520  0.0
     95     83     84     98   5     0.00000     0.00000     1.25520  0.0
     96     83     84     85   5     0.00000     0.00000     1.25520  0.0
     96     83     84     97   5     0.00000     0.00000     1.25520  0.0
     96     83     84     98   5     0.00000     0.00000     1.25520  0.0
     83     84     85     86   5     4.74884    -0.63178     1.67360  0.0
     83     84     85     99   5     0.00000     0.00000     1.25520  0.0
     83     84     85    100   5     0.00000     0.00000     1.25520  0.0
     97     84     85     86   5     0.00000     0.00000     1.25520  0.0
     97     84     85     99   5     0.00000     0.00000     1.25520  0.0
     97     84     85    100   5     0.00000     0.00000     1.25520  0.0
     98     84     85     86   5     0.00000     0.00000     1.25520  0.0
     98     84     85     99   5     0.00000     0.00000     1.25520  0.0
     98     84     85    100   5     0.00000     0.00000     1.25520  0.0
     84     85     86     87   5     4.74884    -0.63178     1.67360  0.0
     84     85     86    101   5     0.00000     0.00000     1.25520  0.0
     84     85     86    102   5     0.00000     0.00000     1.25520  0.0
     99     85     86     87   5     0.00000     0.00000     1.25520  0.0
     99     85     86    101   5     0.00000     0.00000     1.25520  0.0
     99     85     86    102   5     0.00000     0.00000     1.25520  0.0
    100     85     86     87   5     0.00000     0.00000     1.25520  0.0
    100     85     86    101   5     0.00000     0.00000     1.25520  0.0
    100     85     86    102   5     0.00000     0.00000     1.25520  0.0
     85     86     87     88   5     4.74884    -0.63178     1.67360  0.0
     85     86     87    103   5     0.00000     0.00000     1.25520  0.0
     85     86     87    104   5     0.00000     0.00000     1.25520  0.0
    101     86     87     88   5     0.00000     0.00000     1.25520  0.0
    101     86     87    103   5     0.00000     0.00000     1.25520  0.0
    101     86     87    104   5     0.00000     0.00000     1.25520  0.0
    102     86     87     88   5     0.00000     0.00000     1.25520  0.0
    102     86     87    103   5     0.00000     0.00000     1.25520  0.0
    102     86     87    104   5     0.00000     0.00000     1.25520  0.0
     86     87     88     89   5     3.67355     4.10869     2.37651  0.0
     86     87     88    105   5     0.00000     0.00000     1.25520  0.0
     86     87     88    106   5     0.00000     0.00000     1.25520  0.0
    103     87     88     89   5     0.00000     0.00000     1.25520  0.0
    103     87     88    105   5     0.00000     0.00000     1.25520  0.0
    103     87     88    106   5     0.00000     0.00000     1.25520  0.0
    104     87     88     89   5     0.00000     0.00000     1.25520  0.0
    104     87     88    105   5     0.00000     0.00000     1.25520  0.0
    104     87     88    106   5     0.00000     0.00000     1.25520  0.0
     87     88     89    107   5     0.00000     0.00000     0.00000  0.0
     87     88     89    110   5    -3.67774    -0.67781     0.28033  0.0
    105     88     89    107   5     0.00000     0.00000     0.00000  0.0
    105     88     89    110   5     0.00000     0.00000     0.00000  0.0
    106     88     89    107   5     0.00000     0.00000     0.00000  0.0
    106     88     89    110   5     0.00000     0.00000     0.00000  0.0
     88     89    110    111   5     0.00000    25.47638     0.00000  0.0
     88     89    110    112   5    12.53945    12.88254     0.00000  0.0
    107     89    110    111   5     0.00000    20.50160     0.00000  0.0
    107     89    110    112   5     0.00000    21.48066     0.00000  0.0
     79     90     91     76   5     0.00000    30.33400     0.00000  0.0
     79     90     91    109   5     0.00000    30.33400     0.00000  0.0
    108     90     91     76   5     0.00000    30.33400     0.00000  0.0
    108     90     91    109   5     0.00000    30.33400     0.00000  0.0
     89    110    112    113   5     6.33458     2.89951     2.76144  0.0
     89    110    112    127   5     6.33458     2.89951     2.76144  0.0
    111    110    112    113   5     0.00000     8.78640     0.00000  0.0
    111    110    112    127   5     0.00000     8.78640     0.00000  0.0
    110    112    113    114   5     0.00000    30.33400     0.00000  0.0
    110    112    113    128   5     0.00000    30.33400     0.00000  0.0
    127    112    113    114   5     0.00000    30.33400     0.00000  0.0
    127    112    113    128   5     0.00000    30.33400     0.00000  0.0
    110    112    127    126   5     0.00000    30.33400     0.00000  0.0
    110    112    127    145   5     0.00000    30.33400     0.00000  0.0
    113    112    127    126   5     0.00000    30.33400     0.00000  0.0
    113    112    127    145   5     0.00000    30.33400     0.00000  0.0
    112    113    114    115   5     0.00000    30.33400     0.00000  0.0
    112    113    114    129   5     0.00000    30.33400     0.00000  0.0
    128    113    114    115   5     0.00000    30.33400     0.00000  0.0
    128    113    114    129   5     0.00000    30.33400     0.00000  0.0
    113    114    115    116   5     0.00000    30.33400     0.00000  0.0
    113    114    115    126   5     0.00000    30.33400     0.00000  0.0
    129    114    115    116   5     0.00000    30.33400     0.00000  0.0
    129    114    115    126   5     0.00000    30.33400     0.00000  0.0
    114    115    116    117   5     0.00000     8.78640     0.00000  0.0
    114    115    116    118   5     6.33458     2.89951     2.76144  0.0
    126    115    116    117   5     0.00000     8.78640     0.00000  0.0
    126    115    116    118   5     6.33458     2.89951     2.76144  0.0
    114    115    126    127   5     0.00000    30.33400     0.00000  0.0
    114    115    126    144   5     0.00000    30.33400     0.00000  0.0
    116    115    126    127   5     0.00000    30.33400     0.00000  0.0
    116    115    126    144   5     0.00000    30.33400     0.00000  0.0
    115    116    118    119   5    12.53945    12.88254     0.00000  0.0
    115    116    118    130   5     0.00000    21.48066     0.00000  0.0
    117    116    118    119   5     0.00000    25.47638     0.00000  0.0
    117    116    118    130   5     0.00000    20.50160     0.00000  0.0
    116    118    119    120   5    -3.67774    -0.67781     0.28033  0.0
    116    118    119    131   5     0.00000     0.00000     0.00000  0.0
    116    118    119    132   5     0.00000     0.00000     0.00000  0.0
    130    118    119    120   5     0.00000     0.00000     0.00000  0.0
    130    118    119    131   5     0.00000     0.00000     0.00000  0.0
    130    118    119    132   5     0.00000     0.00000     0.00000  0.0
    118    119    120    121   5     3.67355     4.10869     2.37651  0.0
    118    119    120    133   5     0.00000     0.00000     1.25520  0.0
    118    119    120    134   5     0.00000     0.00000     1.25520  0.0
    131    119    120    121   5     0.00000     0.00000     1.25520  0.0
    131    119    120    133   5     0.00000     0.00000     1.25520  0.0
    131    119    120    134   5     0.00000     0.00000     1.25520  0.0
    132    119    120    121   5     0.00000     0.00000     1.25520  0.0
    132    119    120    133   5     0.00000     0.00000     1.25520  0.0
    132    119    120    134   5     0.00000     0.00000     1.25520  0.0
    119    120    121    122   5     4.74884    -0.63178     1.67360  0.0
    119    120    121    135   5     0.00000     0.00000     1.25520  0.0
    119    120    121    136   5     0.00000     0.00000     1.25520  0.0
    133    120    121    122   5     0.00000     0.00000     1.25520  0.0
    133    120    121    135   5     0.00000     0.00000     1.25520  0.0
    133    120    121    136   5     0.00000     0.00000     1.25520  0.0
    134    120    121    122   5     0.00000     0.00000     1.25520  0.0
    134    120    121    135   5     0.00000     0.00000     1.25520  0.0
    134    120    121    136   5     0.00000     0.00000     1.25520  0.0
    120    121    122    123   5     4.74884    -0.63178     1.67360  0.0
    120    121    122    137   5     0.00000     0.00000     1.25520  0.0
    120    121    122    138   5     0.00000     0.00000     1.25520  0.0
    135    121    122    123   5     0.00000     0.00000     1.25520  0.0
    135    121    122    137   5     0.00000     0.00000     1.25520  0.0
    135    121    122    138   5     0.00000     0.00000     1.25520  0.0
    136    121    122    123   5     0.00000     0.00000     1.25520  0.0
    136    121    122    137   5     0.00000     0.00000     1.25520  0.0
    136    121    122    138   5     0.00000     0.00000     1.25520  0.0
    121    122    123    124   5     4.74884    -0.63178     1.67360  0.0
    121    122    123    139   5     0.00000     0.00000     1.25520  0.0
    121    122    123    140   5     0.00000     0.00000     1.25520  0.0
    137    122    123    124   5     0.00000     0.00000     1.25520  0.0
    137    122    123    139   5     0.00000     0.00000     1.25520  0.0
    137    122    123    140   5     0.00000     0.00000     1.25520  0.0
    138    122    123    124   5     0.00000     0.00000     1.25520  0.0
    138    122    123    139   5     0.00000     0.00000     1.25520  0.0
    138    122    123    140   5     0.00000     0.00000     1.25520  0.0
    122    123    124    125   5     3.67355     4.10869     2.37651  0.0
    122    123    124    141   5     0.00000     0.00000     1.25520  0.0
    122    123    124    142   5     0.00000     0.00000     1.25520  0.0
    139    123    124    125   5     0.00000     0.00000     1.25520  0.0
    139    123    124    141   5     0.00000     0.00000     1.25520  0.0
    139    123    124    142   5     0.00000     0.00000     1.25520  0.0
    140    123    124    125   5     0.00000     0.00000     1.25520  0.0
    140    123    124    141   5     0.00000     0.00000     1.25520  0.0
    140    123    124    142   5     0.00000     0.00000     1.25520  0.0
    123    124    125    143   5     0.00000     0.00000     0.00000  0.0
    123    124    125    146   5    -3.67774    -0.67781     0.28033  0.0
    141    124    125    143   5     0.00000     0.00000     0.00000  0.0
    141    124    125    146   5     0.00000     0.00000     0.00000  0.0
    142    124    125    143   5     0.00000     0.00000     0.00000  0.0
    142    124    125    146   5     0.00000     0.00000     0.00000  0.0
    124    125    146    147   5     0.00000    25.47638     0.00000  0.0
    124    125    146    148   5    12.53945    12.88254     0.00000  0.0
    143    125    146    147   5     0.00000    20.50160     0.00000  0.0
    143    125    146    148   5     0.00000    21.48066     0.00000  0.0
    115    126    127    112   5     0.00000    30.33400     0.00000  0.0
    115    126    127    145   5     0.00000    30.33400     0.00000  0.0
    144    126    127    112   5     0.00000    30.33400     0.00000  0.0
    144    126    127    145   5     0.00000    30.33400     0.00000  0.0
    125    146    148    149   5     6.33458     2.89951     2.76144  0.0
    125    146    148    163   5     6.33458     2.89951     2.76144  0.0
    147    146    148    149   5     0.00000     8.78640     0.00000  0.0
    147    146    148    163   5     0.00000     8.78640     0.00000  0.0
    146    148    149    150   5     0.00000    30.33400     0.00000  0.0
    146    148    149    164   5     0.00000    30.33400     0.00000  0.0
    163    148    149    150   5     0.00000    30.33400     0.00000  0.0
    163    148    149    164   5     0.00000    30.33400     0.00000  0.0
    146    148    163    162   5     0.00000    30.33400     0.00000  0.0
    146    148    163    181   5     0.00000    30.33400     0.00000  0.0
    149    148    163    162   5     0.00000    30.33400     0.00000  0.0
    149    148    163    181   5     0.00000    30.33400     0.00000  0.0
    148    149    150    151   5     0.00000    30.33400     0.00000  0.0
    148    149    150    165   5     0.00000    30.33400     0.00000  0.0
    164    149    150    151   5     0.00000    30.33400     0.00000  0.0
    164    149    150    165   5     0.00000    30.33400     0.00000  0.0
    149    150    151    152   5     0.00000    30.33400     0.00000  0.0
    149    150    151    162   5     0.00000    30.33400     0.00000  0.0
    165    150    151    152   5     0.00000    30.33400     0.00000  0.0
    165    150    151    162   5     0.00000    30.33400     0.00000  0.0
    150    151    152    153   5     0.00000     8.78640     0.00000  0.0
    150    151    152    154   5     6.33458     2.89951     2.76144  0.0
    162    151    152    153   5     0.00000     8.78640     0.00000  0.0
    162    151    152    154   5     6.33458     2.89951     2.76144  0.0
    150    151    162    163   5     0.00000    30.33400     0.00000  0.0
    150    151    162    180   5     0.00000    30.33400     0.00000  0.0
    152    151    162    163   5     0.00000    30.33400     0.00000  0.0
    152    151    162    180   5     0.00000    30.33400     0.00000  0.0
    151    152    154    155   5    12.53945    12.88254     0.00000  0.0
    151    152    154    166   5     0.00000    21.48066     0.00000  0.0
    153    152    154    155   5     0.00000    25.47638     0.00000  0.0
    153    152    154    166   5     0.00000    20.50160     0.00000  0.0
    152    154    155    156   5    -3.67774    -0.67781     0.28033  0.0
    152    154    155    167   5     0.00000     0.00000     0.00000  0.0
    152    154    155    168   5     0.00000     0.00000     0.00000  0.0
    166    154    155    156   5     0.00000     0.00000     0.00000  0.0
    166    154    155    167   5     0.00000     0.00000     0.00000  0.0
    166    154    155    168   5     0.00000     0.00000     0.00000  0.0
    154    155    156    157   5     3.67355     4.10869     2.37651  0.0
    154    155    156    169   5     0.00000     0.00000     1.25520  0.0
    154    155    156    170   5     0.00000     0.00000     1.25520  0.0
    167    155    156    157   5     0.00000     0.00000     1.25520  0.0
    167    155    156    169   5     0.00000     0.00000     1.25520  0.0
    167    155    156    170   5     0.00000     0.00000     1.25520  0.0
    168    155    156    157   5     0.00000     0.00000     1.25520  0.0
    168    155    156    169   5     0.00000     0.00000     1.25520  0.0
    168    155    156    170   5     0.00000     0.00000     1.25520  0.0
    155    156    157    158   5     4.74884    -0.63178     1.67360  0.0
    155    156    157    171   5     0.00000     0.00000     1.25520  0.0
    155    156    157    172   5     0.00000     0.00000     1.25520  0.0
    169    156    157    158   5     0.00000     0.00000     1.25520  0.0
    169    156    157    171   5     0.00000     0.00000     1.25520  0.0
    169    156    157    172   5     0.00000     0.00000     1.25520  0.0
    170    156    157    158   5     0.00000     0.00000     1.25520  0.0
    170    156    157    171   5     0.00000     0.00000     1.25520  0.0
    170    156    157    172   5     0.00000     0.00000     1.25520  0.0
    156    157    158    159   5     4.74884    -0.63178     1.67360  0.0
    156    157    158    173   5     0.00000     0.00000     1.25520  0.0
    156    157    158    174   5     0.00000     0.00000     1.25520  0.0
    171    157    158    159   5     0.00000     0.00000     1.25520  0.0
    171    157    158    173   5     0.00000     0.00000     1.25520  0.0
    171    157    158    174   5     0.00000     0.00000     1.25520  0.0
    172    157    158    159   5     0.00000     0.00000     1.25520  0.0
    172    157    158    173   5     0.00000     0.00000     1.25520  0.0
    172    157    158    174   5     0.00000     0.00000     1.25520  0.0
    157    158    159    160   5     4.74884    -0.63178     1.67360  0.0
    157    158    159    175   5     0.00000     0.00000     1.25520  0.0
    157    158    159    176   5     0.00000     0.00000     1.25520  0.0
    173    158    159    160   5     0.00000     0.00000     1.25520  0.0
    173    158    159    175   5     0.00000     0.00000     1.25520  0.0
    173    158    159    176   5     0.00000     0.00000     1.25520  0.0
    174    158    159    160   5     0.00000     0.00000     1.25520  0.0
    174    158    159    175   5     0.00000     0.00000     1.25520  0.0
    174    158    159    176   5     0.00000     0.00000     1.25520  0.0
    158    159    160    161   5     3.67355     4.10869     2.37651  0.0
    158    159    160    177   5     0.00000     0.00000     1.25520  0.0
    158    159    160    178   5     0.00000     0.00000     1.25520  0.0
    175    159    160    161   5     0.00000     0.00000     1.25520  0.0
    175    159    160    177   5     0.00000     0.00000     1.25520  0.0
    175    159    160    178   5     0.00000     0.00000     1.25520  0.0
    176    159    160    161   5     0.00000     0.00000     1.25520  0.0
    176    159    160    177   5     0.00000     0.00000     1.25520  0.0
    176    159    160    178   5     0.00000     0.00000     1.25520  0.0
    159    160    161    179   5     0.00000     0.00000     0.00000  0.0
    159    160    161    182   5    -3.67774    -0.67781     0.28033  0.0
    177    160    161    179   5     0.00000     0.00000     0.00000  0.0
    177    160    161    182   5     0.00000     0.00000     0.00000  0.0
    178    160    161    179   5     0.00000     0.00000     0.00000  0.0
    178    160    161    182   5     0.00000     0.00000     0.00000  0.0
    160    161    182    183   5     0.00000    25.47638     0.00000  0.0
    160    161    182    184   5    12.53945    12.88254     0.00000  0.0
    179    161    182    183   5     0.00000    20.50160     0.00000  0.0
    179    161    182    184   5     0.00000    21.48066     0.00000  0.0
    151    162    163    148   5     0.00000    30.33400     0.00000  0.0
    151    162    163    181   5     0.00000    30.33400     0.00000  0.0
    180    162    163    148   5     0.00000    30.33400     0.00000  0.0
    180    162    163    181   5     0.00000    30.33400     0.00000  0.0
    161    182    184    185   5     6.33458     2.89951     2.76144  0.0
    161    182    184    199   5     6.33458     2.89951     2.76144  0.0
    183    182    184    185   5     0.00000     8.78640     0.00000  0.0
    183    182    184    199   5     0.00000     8.78640     0.00000  0.0
    182    184    185    186   5     0.00000    30.33400     0.00000  0.0
    182    184    185    200   5     0.00000    30.33400     0.00000  0.0
    199    184    185    186   5     0.00000    30.33400     0.00000  0.0
    199    184    185    200   5     0.00000    30.33400     0.00000  0.0
    182    184    199    198   5     0.00000    30.33400     0.00000  0.0
    182    184    199    217   5     0.00000    30.33400     0.00000  0.0
    185    184    199    198   5     0.00000    30.33400     0.00000  0.0
    185    184    199    217   5     0.00000    30.33400     0.00000  0.0
    184    185    186    187   5     0.00000    30.33400     0.00000  0.0
    184    185    186    201   5     0.00000    30.33400     0.00000  0.0
    200    185    186    187   5     0.00000    30.33400     0.00000  0.0
    200    185    186    201   5     0.00000    30.33400     0.00000  0.0
    185    186    187    188   5     0.00000    30.33400     0.00000  0.0
    185    186    187    198   5     0.00000    30.33400     0.00000  0.0
    201    186    187    188   5     0.00000    30.33400     0.00000  0.0
    201    186    187    198   5     0.00000    30.33400     0.00000  0.0
    186    187    188    189   5     0.00000     8.78640     0.00000  0.0
    186    187    188    190   5     6.33458     2.89951     2.76144  0.0
    198    187    188    189   5     0.00000     8.78640     0.00000  0.0
    198    187    188    190   5     6.33458     2.89951     2.76144  0.0
    186    187    198    199   5     0.00000    30.33400     0.00000  0.0
    186    187    198    216   5     0.00000    30.33400     0.00000  0.0
    188    187    198    199   5     0.00000    30.33400     0.00000  0.0
    188    187    198    216   5     0.00000    30.33400     0.00000  0.0
    187    188    190    191   5    12.53945    12.88254     0.00000  0.0
    187    188    190    202   5     0.00000    21.48066     0.00000  0.0
    189    188    190    191   5     0.00000    25.47638     0.00000  0.0
    189    188    190    202   5     0.00000    20.50160     0.00000  0.0
    188    190    191    192   5    -3.67774    -0.67781     0.28033  0.0
    188    190    191    203   5     0.00000     0.00000     0.00000  0.0
    188    190    191    204   5     0.00000     0.00000     0.00000  0.0
    202    190    191    192   5     0.00000     0.00000     0.00000  0.0
    202    190    191    203   5     0.00000     0.00000     0.00000  0.0
    202    190    191    204   5     0.00000     0.00000     0.00000  0.0
    190    191    192    193   5     3.67355     4.10869     2.37651  0.0
    190    191    192    205   5     0.00000     0.00000     1.25520  0.0
    190    191    192    206   5     0.00000     0.00000     1.25520  0.0
    203    191    192    193   5     0.00000     0.00000     1.25520  0.0
    203    191    192    205   5     0.00000     0.00000     1.25520  0.0
    203    191    192    206   5     0.00000     0.00000     1.25520  0.0
    204    191    192    193   5     0.00000     0.00000     1.25520  0.0
    204    191    192    205   5     0.00000     0.00000     1.25520  0.0
    204    191    192    206   5     0.00000     0.00000     1.25520  0.0
    191    192    193    194   5     4.74884    -0.63178     1.67360  0.0
    191    192    193    207   5     0.00000     0.00000     1.25520  0.0
    191    192    193    208   5     0.00000     0.00000     1.25520  0.0
    205    192    193    194   5     0.00000     0.00000     1.25520  0.0
    205    192    193    207   5     0.00000     0.00000     1.25520  0.0
    205    192    193    208   5     0.00000     0.00000     1.25520  0.0
    206    192    193    194   5     0.00000     0.00000     1.25520  0.0
    206    192    193    207   5     0.00000     0.00000     1.25520  0.0
    206    192    193    208   5     0.00000     0.00000     1.25520  0.0
    192    193    194    195   5     4.74884    -0.63178     1.67360  0.0
    192    193    194    209   5     0.00000     0.00000     1.25520  0.0
    192    193    194    210   5     0.00000     0.00000     1.25520  0.0
    207    193    194    195   5     0.00000     0.00000     1.25520  0.0
    207    193    194    209   5     0.00000     0.00000     1.25520  0.0
    207    193    194    210   5     0.00000     0.00000     1.25520  0.0
    208    193    194    195   5     0.00000     0.00000     1.25520  0.0
    208    193    194    209   5     0.00000     0.00000     1.25520  0.0
    208    193    194    210   5     0.00000     0.00000     1.25520  0.0
    193    194    195    196   5     4.74884    -0.63178     1.67360  0.0
    193    194    195    211   5     0.00000     0.00000     1.25520  0.0
    193    194    195    212   5     0.00000     0.00000     1.25520  0.0
    209    194    195    196   5     0.00000     0.00000     1.25520  0.0
    209    194    195    211   5     0.00000     0.00000     1.25520  0.0
    209    194    195    212   5     0.00000     0.00000     1.25520  0.0
    210    194    195    196   5     0.00000     0.00000     1.25520  0.0
    210    194    195    211   5     0.00000     0.00000     1.25520  0.0
    210    194    195    212   5     0.00000     0.00000     1.25520  0.0
    194    195    196    197   5     3.67355     4.10869     2.37651  0.0
    194    195    196    213   5     0.00000     0.00000     1.25520  0.0
    194    195    196    214   5     0.00000     0.00000     1.25520  0.0
    211    195    196    197   5     0.00000     0.00000     1.25520  0.0
    211    195    196    213   5     0.00000     0.00000     1.25520  0.0
    211    195    196    214   5     0.00000     0.00000     1.25520  0.0
    212    195    196    197   5     0.00000     0.00000     1.25520  0.0
    212    195    196    213   5     0.00000     0.00000     1.25520  0.0
    212    195    196    214   5     0.00000     0.00000     1.25520  0.0
    195    196    197    215   5     0.00000     0.00000     0.00000  0.0
    195    196    197    218   5    -3.67774    -0.67781     0.28033  0.0
    213    196    197    215   5     0.00000     0.00000     0.00000  0.0
    213    196    197    218   5     0.00000     0.00000     0.00000  0.0
    214    196    197    215   5     0.00000     0.00000     0.00000  0.0
    214    196    197    218   5     0.00000     0.00000     0.00000  0.0
    196    197    218    219   5     0.00000    25.47638     0.00000  0.0
    196    197    218    220   5    12.53945    12.88254     0.00000  0.0
    215    197    218    219   5     0.00000    20.50160     0.00000  0.0
    215    197    218    220   5     0.00000    21.48066     0.00000  0.0
    187    198    199    184   5     0.00000    30.33400     0.00000  0.0
    187    198    199    217   5     0.00000    30.33400     0.00000  0.0
    216    198    199    184   5     0.00000    30.33400     0.00000  0.0
    216    198    199    217   5     0.00000    30.33400     0.00000  0.0
    197    218    220    221   5     6.33458     2.89951     2.76144  0.0
    197    218    220    235   5     6.33458     2.89951     2.76144  0.0
    219    218    220    221   5     0.00000     8.78640     0.00000  0.0
    219    218    220    235   5     0.00000     8.78640     0.00000  0.0
    218    220    221    222   5     0.00000    30.33400     0.00000  0.0
    218    220    221    236   5     0.00000    30.33400     0.00000  0.0
    235    220    221    222   5     0.00000    30.33400     0.00000  0.0
    235    220    221    236   5     0.00000    30.33400     0.00000  0.0
    218    220    235    234   5     0.00000    30.33400     0.00000  0.0
    218    220    235    253   5     0.00000    30.33400     0.00000  0.0
    221    220    235    234   5     0.00000    30.33400     0.00000  0.0
    221    220    235    253   5     0.00000    30.33400     0.00000  0.0
    220    221    222    223   5     0.00000    30.33400     0.00000  0.0
    220    221    222    237   5     0.00000    30.33400     0.00000  0.0
    236    221    222    223   5     0.00000    30.33400     0.00000  0.0
    236    221    222    237   5     0.00000    30.33400     0.00000  0.0
    221    222    223    224   5     0.00000    30.33400     0.00000  0.0
    221    222    223    234   5     0.00000    30.33400     0.00000  0.0
    237    222    223    224   5     0.00000    30.33400     0.00000  0.0
    237    222    223    234   5     0.00000    30.33400     0.00000  0.0
    222    223    224    225   5     0.00000     8.78640     0.00000  0.0
    222    223    224    226   5     6.33458     2.89951     2.76144  0.0
    234    223    224    225   5     0.00000     8.78640     0.00000  0.0
    234    223    224    226   5     6.33458     2.89951     2.76144  0.0
    222    223    234    235   5     0.00000    30.33400     0.00000  0.0
    222    223    234    252   5     0.00000    30.33400     0.00000  0.0
    224    223    234    235   5     0.00000    30.33400     0.00000  0.0
    224    223    234    252   5     0.00000    30.33400     0.00000  0.0
    223    224    226    227   5    12.53945    12.88254     0.00000  0.0
    223    224    226    238   5     0.00000    21.48066     0.00000  0.0
    225    224    226    227   5     0.00000    25.47638     0.00000  0.0
    225    224    226    238   5     0.00000    20.50160     0.00000  0.0
    224    226    227    228   5    -3.67774    -0.67781     0.28033  0.0
    224    226    227    239   5     0.00000     0.00000     0.00000  0.0
    224    226    227    240   5     0.00000     0.00000     0.00000  0.0
    238    226    227    228   5     0.00000     0.00000     0.00000  0.0
    238    226    227    239   5     0.00000     0.00000     0.00000  0.0
    238    226    227    240   5     0.00000     0.00000     0.00000  0.0
    226    227    228    229   5     3.67355     4.10869     2.37651  0.0
    226    227    228    241   5     0.00000     0.00000     1.25520  0.0
    226    227    228    242   5     0.00000     0.00000     1.25520  0.0
    239    227    228    229   5     0.00000     0.00000     1.25520  0.0
    239    227    228    241   5     0.00000     0.00000     1.25520  0.0
    239    227    228    242   5     0.00000     0.00000     1.25520  0.0
    240    227    228    229   5     0.00000     0.00000     1.25520  0.0
    240    227    228    241   5     0.00000     0.00000     1.25520  0.0
    240    227    228    242   5     0.00000     0.00000     1.25520  0.0
    227    228    229    230   5     4.74884    -0.63178     1.67360  0.0
    227    228    229    243   5     0.00000     0.00000     1.25520  0.0
    227    228    229    244   5     0.00000     0.00000     1.25520  0.0
    241    228    229    230   5     0.00000     0.00000     1.25520  0.0
    241    228    229    243   5     0.00000     0.00000     1.25520  0.0
    241    228    229    244   5     0.00000     0.00000     1.25520  0.0
    242    228    229    230   5     0.00000     0.00000     1.25520  0.0
    242    228    229    243   5     0.00000     0.00000     1.25520  0.0
    242    228    229    244   5     0.00000     0.00000     1.25520  0.0
    228    229    230    231   5     4.74884    -0.63178     1.67360  0.0
    228    229    230    245   5     0.00000     0.00000     1.25520  0.0
    228    229    230    246   5     0.00000     0.00000     1.25520  0.0
    243    229    230    231   5     0.00000     0.00000     1.25520  0.0
    243    229    230    245   5     0.00000     0.00000     1.25520  0.0
    243    229    230    246   5     0.00000     0.00000     1.25520  0.0
    244    229    230    231   5     0.00000     0.00000     1.25520  0.0
    244    229    230    245   5     0.00000     0.00000     1.25520  0.0
    244    229    230    246   5     0.00000     0.00000     1.25520  0.0
    229    230    231    232   5     4.74884    -0.63178     1.67360  0.0
    229    230    231    247   5     0.00000     0.00000     1.25520  0.0
    229    230    231    248   5     0.00000     0.00000     1.25520  0.0
    245    230    231    232   5     0.00000     0.00000     1.25520  0.0
    245    230    231    247   5     0.00000     0.00000     1.25520  0.0
    245    230    231    248   5     0.00000     0.00000     1.25520  0.0
    246    230    231    232   5     0.00000     0.00000     1.25520  0.0
    246    230    231    247   5     0.00000     0.00000     1.25520  0.0
    246    230    231    248   5     0.00000     0.00000     1.25520  0.0
    230    231    232    233   5     3.67355     4.10869     2.37651  0.0
    230    231    232    249   5     0.00000     0.00000     1.25520  0.0
    230    231    232    250   5     0.00000     0.00000     1.25520  0.0
    247    231    232    233   5     0.00000     0.00000     1.25520  0.0
    247    231    232    249   5     0.00000     0.00000     1.25520  0.0
    247    231    232    250   5     0.00000     0.00000     1.25520  0.0
    248    231    232    233   5     0.00000     0.00000     1.25520  0.0
    248    231    232    249   5     0.00000     0.00000     1.25520  0.0
    248    231    232    250   5     0.00000     0.00000     1.25520  0.0
    231    232    233    251   5     0.00000     0.00000     0.00000  0.0
    231    232    233    254   5    -3.67774    -0.67781     0.28033  0.0
    249    232    233    251   5     0.00000     0.00000     0.00000  0.0
    249    232    233    254   5     0.00000     0.00000     0.00000  0.0
    250    232    233    251   5     0.00000     0.00000     0.00000  0.0
    250    232    233    254   5     0.00000     0.00000     0.00000  0.0
    232    233    254    255   5     0.00000    25.47638     0.00000  0.0
    232    233    254    256   5    12.53945    12.88254     0.00000  0.0
    251    233    254    255   5     0.00000    20.50160     0.00000  0.0
    251    233    254    256   5     0.00000    21.48066     0.00000  0.0
    223    234    235    220   5     0.00000    30.33400     0.00000  0.0
    223    234    235    253   5     0.00000    30.33400     0.00000  0.0
    252    234    235    220   5     0.00000    30.33400     0.00000  0.0
    252    234    235    253   5     0.00000    30.33400     0.00000  0.0
    233    254    256    257   5     6.33458     2.89951     2.76144  0.0
    233    254    256    271   5     6.33458     2.89951     2.76144  0.0
    255    254    256    257   5     0.00000     8.78640     0.00000  0.0
    255    254    256    271   5     0.00000     8.78640     0.00000  0.0
    254    256    257    258   5     0.00000    30.33400     0.00000  0.0
    254    256    257    272   5     0.00000    30.33400     0.00000  0.0
    271    256    257    258   5     0.00000    30.33400     0.00000  0.0
    271    256    257    272   5     0.00000    30.33400     0.00000  0.0
    254    256    271    270   5     0.00000    30.33400     0.00000  0.0
    254    256    271    289   5     0.00000    30.33400     0.00000  0.0
    257    256    271    270   5     0.00000    30.33400     0.00000  0.0
    257    256    271    289   5     0.00000    30.33400     0.00000  0.0
    256    257    258    259   5     0.00000    30.33400     0.00000  0.0
    256    257    258    273   5     0.00000    30.33400     0.00000  0.0
    272    257    258    259   5     0.00000    30.33400     0.00000  0.0
    272    257    258    273   5     0.00000    30.33400     0.00000  0.0
    257    258    259    260   5     0.00000    30.33400     0.00000  0.0
    257    258    259    270   5     0.00000    30.33400     0.00000  0.0
    273    258    259    260   5     0.00000    30.33400     0.00000  0.0
    273    258    259    270   5     0.00000    30.33400     0.00000  0.0
    258    259    260    261   5     0.00000     8.78640     0.00000  0.0
    258    259    260    262   5     6.33458     2.89951     2.76144  0.0
    270    259    260    261   5     0.00000     8.78640     0.00000  0.0
    270    259    260    262   5     6.33458     2.89951     2.76144  0.0
    258    259    270    271   5     0.00000    30.33400     0.00000  0.0
    258    259    270    288   5     0.00000    30.33400     0.00000  0.0
    260    259    270    271   5     0.00000    30.33400     0.00000  0.0
    260    259    270    288   5     0.00000    30.33400     0.00000  0.0
    259    260    262    263   5    12.53945    12.88254     0.00000  0.0
    259    260    262    274   5     0.00000    21.48066     0.00000  0.0
    261    260    262    263   5     0.00000    25.47638     0.00000  0.0
    261    260    262    274   5     0.00000    20.50160     0.00000  0.0
    260    262    263    264   5    -3.67774    -0.67781     0.28033  0.0
    260    262    263    275   5     0.00000     0.00000     0.00000  0.0
    260    262    263    276   5     0.00000     0.00000     0.00000  0.0
    274    262    263    264   5     0.00000     0.00000     0.00000  0.0
    274    262    263    275   5     0.00000     0.00000     0.00000  0.0
    274    262    263    276   5     0.00000     0.00000     0.00000  0.0
    262    263    264    265   5     3.67355     4.10869     2.37651  0.0
    262    263    264    277   5     0.00000     0.00000     1.25520  0.0
    262    263    264    278   5     0.00000     0.00000     1.25520  0.0
    275    263    264    265   5     0.00000     0.00000     1.25520  0.0
    275    263    264    277   5     0.00000     0.00000     1.25520  0.0
    275    263    264    278   5     0.00000     0.00000     1.25520  0.0
    276    263    264    265   5     0.00000     0.00000     1.25520  0.0
    276    263    264    277   5     0.00000     0.00000     1.25520  0.0
    276    263    264    278   5     0.00000     0.00000     1.25520  0.0
    263    264    265    266   5     4.74884    -0.63178     1.67360  0.0
    263    264    265    279   5     0.00000     0.00000     1.25520  0.0
    263    264    265    280   5     0.00000     0.00000     1.25520  0.0
    277    264    265    266   5     0.00000     0.00000     1.25520  0.0
    277    264    265    279   5     0.00000     0.00000     1.25520  0.0
    277    264    265    280   5     0.00000     0.00000     1.25520  0.0
    278    264    265    266   5     0.00000     0.00000     1.25520  0.0
    278    264    265    279   5     0.00000     0.00000     1.25520  0.0
    278    264    265    280   5     0.00000     0.00000     1.25520  0.0
    264    265    266    267   5     4.74884    -0.63178     1.67360  0.0
    264    265    266    281   5     0.00000     0.00000     1.25520  0.0
    264    265    266    282   5     0.00000     0.00000     1.25520  0.0
    279    265    266    267   5     0.00000     0.00000     1.25520  0.0
    279    265    266    281   5     0.00000     0.00000     1.25520  0.0
    279    265    266    282   5     0.00000     0.00000     1.25520  0.0
    280    265    266    267   5     0.00000     0.00000     1.25520  0.0
    280    265    266    281   5     0.00000     0.00000     1.25520  0.0
    280    265    266    282   5     0.00000     0.00000     1.25520  0.0
    265    266    267    268   5     4.74884    -0.63178     1.67360  0.0
    265    266    267    283   5     0.00000     0.00000     1.25520  0.0
    265    266    267    284   5     0.00000     0.00000     1.25520  0.0
    281    266    267    268   5     0.00000     0.00000     1.25520  0.0
    281    266    267    283   5     0.00000     0.00000     1.25520  0.0
    281    266    267    284   5     0.00000     0.00000     1.25520  0.0
    282    266    267    268   5     0.00000     0.00000     1.25520  0.0
    282    266    267    283   5     0.00000     0.00000     1.25520  0.0
    282    266    267    284   5     0.00000     0.00000     1.25520  0.0
    266    267    268    269   5     3.67355     4.10869     2.37651  0.0
    266    267    268    285   5     0.00000     0.00000     1.25520  0.0
    266    267    268    286   5     0.00000     0.00000     1.25520  0.0
    283    267    268    269   5     0.00000     0.00000     1.25520  0.0
    283    267    268    285   5     0.00000     0.00000     1.25520  0.0
    283    267    268    286   5     0.00000     0.00000     1.25520  0.0
    284    267    268    269   5     0.00000     0.00000     1.25520  0.0
    284    267    268    285   5     0.00000     0.00000     1.25520  0.0
    284    267    268    286   5     0.00000     0.00000     1.25520  0.0
    267    268    269    287   5     0.00000     0.00000     0.00000  0.0
    267    268    269    290   5    -3.67774    -0.67781     0.28033  0.0
    285    268    269    287   5     0.00000     0.00000     0.00000  0.0
    285    268    269    290   5     0.00000     0.00000     0.00000  0.0
    286    268    269    287   5     0.00000     0.00000     0.00000  0.0
    286    268    269    290   5     0.00000     0.00000     0.00000  0.0
    268    269    290    291   5     0.00000    25.47638     0.00000  0.0
    268    269    290    292   5    12.53945    12.88254     0.00000  0.0
    287    269    290    291   5     0.00000    20.50160     0.00000  0.0
    287    269    290    292   5     0.00000    21.48066     0.00000  0.0
    259    270    271    256   5     0.00000    30.33400     0.00000  0.0
    259    270    271    289   5     0.00000    30.33400     0.00000  0.0
    288    270    271    256   5     0.00000    30.33400     0.00000  0.0
    288    270    271    289   5     0.00000    30.33400     0.00000  0.0
    269    290    292    293   5     6.33458     2.89951     2.76144  0.0
    269    290    292    307   5     6.33458     2.89951     2.76144  0.0
    291    290    292    293   5     0.00000     8.78640     0.00000  0.0
    291    290    292    307   5     0.00000     8.78640     0.00000  0.0
    290    292    293    294   5     0.00000    30.33400     0.00000  0.0
    290    292    293    308   5     0.00000    30.33400     0.00000  0.0
    307    292    293    294   5     0.00000    30.33400     0.00000  0.0
    307    292    293    308   5     0.00000    30.33400     0.00000  0.0
    290    292    307    306   5     0.00000    30.33400     0.00000  0.0
    290    292    307    325   5     0.00000    30.33400     0.00000  0.0
    293    292    307    306   5     0.00000    30.33400     0.00000  0.0
    293    292    307    325   5     0.00000    30.33400     0.00000  0.0
    292    293    294    295   5     0.00000    30.33400     0.00000  0.0
    292    293    294    309   5     0.00000    30.33400     0.00000  0.0
    308    293    294    295   5     0.00000    30.33400     0.00000  0.0
    308    293    294    309   5     0.00000    30.33400     0.00000  0.0
    293    294    295    296   5     0.00000    30.33400     0.00000  0.0
    293    294    295    306   5     0.00000    30.33400     0.00000  0.0
    309    294    295    296   5     0.00000    30.33400     0.00000  0.0
    309    294    295    306   5     0.00000    30.33400     0.00000  0.0
    294    295    296    297   5     0.00000     8.78640     0.00000  0.0
    294    295    296    298   5     6.33458     2.89951     2.76144  0.0
    306    295    296    297   5     0.00000     8.78640     0.00000  0.0
    306    295    296    298   5     6.33458     2.89951     2.76144  0.0
    294    295    306    307   5     0.00000    30.33400     0.00000  0.0
    294    295    306    324   5     0.00000    30.33400     0.00000  0.0
    296    295    306    307   5     0.00000    30.33400     0.00000  0.0
    296    295    306    324   5     0.00000    30.33400     0.00000  0.0
    295    296    298    299   5    12.53945    12.88254     0.00000  0.0
    295    296    298    310   5     0.00000    21.48066     0.00000  0.0
    297    296    298    299   5     0.00000    25.47638     0.00000  0.0
    297    296    298    310   5     0.00000    20.50160     0.00000  0.0
    296    298    299    300   5    -3.67774    -0.67781     0.28033  0.0
    296    298    299    311   5     0.00000     0.00000     0.00000  0.0
    296    298    299    312   5     0.00000     0.00000     0.00000  0.0
    310    298    299    300   5     0.00000     0.00000     0.00000  0.0
    310    298    299    311   5     0.00000     0.00000     0.00000  0.0
    310    298    299    312   5     0.00000     0.00000     0.00000  0.0
    298    299    300    301   5     3.67355     4.10869     2.37651  0.0
    298    299    300    313   5     0.00000     0.00000     1.25520  0.0
    298    299    300    314   5     0.00000     0.00000     1.25520  0.0
    311    299    300    301   5     0.00000     0.00000     1.25520  0.0
    311    299    300    313   5     0.00000     0.00000     1.25520  0.0
    311    299    300    314   5     0.00000     0.00000     1.25520  0.0
    312    299    300    301   5     0.00000     0.00000     1.25520  0.0
    312    299    300    313   5     0.00000     0.00000     1.25520  0.0
    312    299    300    314   5     0.00000     0.00000     1.25520  0.0
    299    300    301    302   5     4.74884    -0.63178     1.67360  0.0
    299    300    301    315   5     0.00000     0.00000     1.25520  0.0
    299    300    301    316   5     0.00000     0.00000     1.25520  0.0
    313    300    301    302   5     0.00000     0.00000     1.25520  0.0
    313    300    301    315   5     0.00000     0.00000     1.25520  0.0
    313    300    301    316   5     0.00000     0.00000     1.25520  0.0
    314    300    301    302   5     0.00000     0.00000     1.25520  0.0
    314    300    301    315   5     0.00000     0.00000     1.25520  0.0
    314    300    301    316   5     0.00000     0.00000     1.25520  0.0
    300    301    302    303   5     4.74884    -0.63178     1.67360  0.0
    300    301    302    317   5     0.00000     0.00000     1.25520  0.0
    300    301    302    318   5     0.00000     0.00000     1.25520  0.0
    315    301    302    303   5     0.00000     0.00000     1.25520  0.0
    315    301    302    317   5     0.00000     0.00000     1.25520  0.0
    315    301    302    318   5     0.00000     0.00000     1.25520  0.0
    316    301    302    303   5     0.00000     0.00000     1.25520  0.0
    316    301    302    317   5     0.00000     0.00000     1.25520  0.0
    316    301    302    318   5     0.00000     0.00000     1.25520  0.0
    301    302    303    304   5     4.74884    -0.63178     1.67360  0.0
    301    302    303    319   5     0.00000     0.00000     1.25520  0.0
    301    302    303    320   5     0.00000     0.00000     1.25520  0.0
    317    302    303    304   5     0.00000     0.00000     1.25520  0.0
    317    302    303    319   5     0.00000     0.00000     1.25520  0.0
    317    302    303    320   5     0.00000     0.00000     1.25520  0.0
    318    302    303    304   5     0.00000     0.00000     1.25520  0.0
    318    302    303    319   5     0.00000     0.00000     1.25520  0.0
    318    302    303    320   5     0.00000     0.00000     1.25520  0.0
    302    303    304    305   5     3.67355     4.10869     2.37651  0.0
    302    303    304    321   5     0.00000     0.00000     1.25520  0.0
    302    303    304    322   5     0.00000     0.00000     1.25520  0.0
    319    303    304    305   5     0.00000     0.00000     1.25520  0.0
    319    303    304    321   5     0.00000     0.00000     1.25520  0.0
    319    303    304    322   5     0.00000     0.00000     1.25520  0.0
    320    303    304    305   5     0.00000     0.00000     1.25520  0.0
    320    303    304    321   5     0.00000     0.00000     1.25520  0.0
    320    303    304    322   5     0.00000     0.00000     1.25520  0.0
    303    304    305    323   5     0.00000     0.00000     0.00000  0.0
    303    304    305    326   5    -3.67774    -0.67781     0.28033  0.0
    321    304    305    323   5     0.00000     0.00000     0.00000  0.0
    321    304    305    326   5     0.00000     0.00000     0.00000  0.0
    322    304    305    323   5     0.00000     0.00000     0.00000  0.0
    322    304    305    326   5     0.00000     0.00000     0.00000  0.0
    304    305    326    327   5     0.00000    25.47638     0.00000  0.0
    304    305    326    328   5    12.53945    12.88254     0.00000  0.0
    323    305    326    327   5     0.00000    20.50160     0.00000  0.0
    323    305    326    328   5     0.00000    21.48066     0.00000  0.0
    295    306    307    292   5     0.00000    30.33400     0.00000  0.0
    295    306    307    325   5     0.00000    30.33400     0.00000  0.0
    324    306    307    292   5     0.00000    30.33400     0.00000  0.0
    324    306    307    325   5     0.00000    30.33400     0.00000  0.0
    305    326    328    329   5     6.33458     2.89951     2.76144  0.0
    305    326    328    343   5     6.33458     2.89951     2.76144  0.0
    327    326    328    329   5     0.00000     8.78640     0.00000  0.0
    327    326    328    343   5     0.00000     8.78640     0.00000  0.0
    326    328    329    330   5     0.00000    30.33400     0.00000  0.0
    326    328    329    344   5     0.00000    30.33400     0.00000  0.0
    343    328    329    330   5     0.00000    30.33400     0.00000  0.0
    343    328    329    344   5     0.00000    30.33400     0.00000  0.0
    326    328    343    342   5     0.00000    30.33400     0.00000  0.0
    326    328    343    361   5     0.00000    30.33400     0.00000  0.0
    329    328    343    342   5     0.00000    30.33400     0.00000  0.0
    329    328    343    361   5     0.00000    30.33400     0.00000  0.0
    328    329    330    331   5     0.00000    30.33400     0.00000  0.0
    328    329    330    345   5     0.00000    30.33400     0.00000  0.0
    344    329    330    331   5     0.00000    30.33400     0.00000  0.0
    344    329    330    345   5     0.00000    30.33400     0.00000  0.0
    329    330    331    332   5     0.00000    30.33400     0.00000  0.0
    329    330    331    342   5     0.00000    30.33400     0.00000  0.0
    345    330    331    332   5     0.00000    30.33400     0.00000  0.0
    345    330    331    342   5     0.00000    30.33400     0.00000  0.0
    330    331    332    333   5     0.00000     8.78640     0.00000  0.0
    330    331    332    334   5     6.33458     2.89951     2.76144  0.0
    342    331    332    333   5     0.00000     8.78640     0.00000  0.0
    342    331    332    334   5     6.33458     2.89951     2.76144  0.0
    330    331    342    343   5     0.00000    30.33400     0.00000  0.0
    330    331    342    360   5     0.00000    30.33400     0.00000  0.0
    332    331    342    343   5     0.00000    30.33400     0.00000  0.0
    332    331    342    360   5     0.00000    30.33400     0.00000  0.0
    331    332    334    335   5    12.53945    12.88254     0.00000  0.0
    331    332    334    346   5     0.00000    21.48066     0.00000  0.0
    333    332    334    335   5     0.00000    25.47638     0.00000  0.0
    333    332    334    346   5     0.00000    20.50160     0.00000  0.0
    332    334    335    336   5    -3.67774    -0.67781     0.28033  0.0
    332    334    335    347   5     0.00000     0.00000     0.00000  0.0
    332    334    335    348   5     0.00000     0.00000     0.00000  0.0
    346    334    335    336   5     0.00000     0.00000     0.00000  0.0
    346    334    335    347   5     0.00000     0.00000     0.00000  0.0
    346    334    335    348   5     0.00000     0.00000     0.00000  0.0
    334    335    336    337   5     3.67355     4.10869     2.37651  0.0
    334    335    336    349   5     0.00000     0.00000     1.25520  0.0
    334    335    336    350   5     0.00000     0.00000     1.25520  0.0
    347    335    336    337   5     0.00000     0.00000     1.25520  0.0
    347    335    336    349   5     0.00000     0.00000     1.25520  0.0
    347    335    336    350   5     0.00000     0.00000     1.25520  0.0
    348    335    336    337   5     0.00000     0.00000     1.25520  0.0
    348    335    336    349   5     0.00000     0.00000     1.25520  0.0
    348    335    336    350   5     0.00000     0.00000     1.25520  0.0
    335    336    337    338   5     4.74884    -0.63178     1.67360  0.0
    335    336    337    351   5     0.00000     0.00000     1.25520  0.0
    335    336    337    352   5     0.00000     0.00000     1.25520  0.0
    349    336    337    338   5     0.00000     0.00000     1.25520  0.0
    349    336    337    351   5     0.00000     0.00000     1.25520  0.0
    349    336    337    352   5     0.00000     0.00000     1.25520  0.0
    350    336    337    338   5     0.00000     0.00000     1.25520  0.0
    350    336    337    351   5     0.00000     0.00000     1.25520  0.0
    350    336    337    352   5     0.00000     0.00000     1.25520  0.0
    336    337    338    339   5     4.74884    -0.63178     1.67360  0.0
    336    337    338    353   5     0.00000     0.00000     1.25520  0.0
    336    337    338    354   5     0.00000     0.00000     1.25520  0.0
    351    337    338    339   5     0.00000     0.00000     1.25520  0.0
    351    337    338    353   5     0.00000     0.00000     1.25520  0.0
    351    337    338    354   5     0.00000     0.00000     1.25520  0.0
    352    337    338    339   5     0.00000     0.00000     1.25520  0.0
    352    337    338    353   5     0.00000     0.00000     1.25520  0.0
    352    337    338    354   5     0.00000     0.00000     1.25520  0.0
    337    338    339    340   5     4.74884    -0.63178     1.67360  0.0
    337    338    339    355   5     0.00000     0.00000     1.25520  0.0
    337    338    339    356   5     0.00000     0.00000     1.25520  0.0
    353    338    339    340   5     0.00000     0.00000     1.25520  0.0
    353    338    339    355   5     0.00000     0.00000     1.25520  0.0
    353    338    339    356   5     0.00000     0.00000     1.25520  0.0
    354    338    339    340   5     0.00000     0.00000     1.25520  0.0
    354    338    339    355   5     0.00000     0.00000     1.25520  0.0
    354    338    339    356   5     0.00000     0.00000     1.25520  0.0
    338    339    340    341   5     3.67355     4.10869     2.37651  0.0
    338    339    340    357   5     0.00000     0.00000     1.25520  0.0
    338    339    340    358   5     0.00000     0.00000     1.25520  0.0
    355    339    340    341   5     0.00000     0.00000     1.25520  0.0
    355    339    340    357   5     0.00000     0.00000     1.25520  0.0
    355    339    340    358   5     0.00000     0.00000     1.25520  0.0
    356    339    340    341   5     0.00000     0.00000     1.25520  0.0
    356    339    340    357   5     0.00000     0.00000     1.25520  0.0
    356    339    340    358   5     0.00000     0.00000     1.25520  0.0
    339    340    341    359   5     0.00000     0.00000     0.00000  0.0
    339    340    341    362   5    -3.67774    -0.67781     0.28033  0.0
    357    340    341    359   5     0.00000     0.00000     0.00000  0.0
    357    340    341    362   5     0.00000     0.00000     0.00000  0.0
    358    340    341    359   5     0.00000     0.00000     0.00000  0.0
    358    340    341    362   5     0.00000     0.00000     0.00000  0.0
    340    341    362    363   5     0.00000    25.47638     0.00000  0.0
    340    341    362    364   5    12.53945    12.88254     0.00000  0.0
    359    341    362    363   5     0.00000    20.50160     0.00000  0.0
    359    341    362    364   5     0.00000    21.48066     0.00000  0.0
    331    342    343    328   5     0.00000    30.33400     0.00000  0.0
    331    342    343    361   5     0.00000    30.33400     0.00000  0.0
    360    342    343    328   5     0.00000    30.33400     0.00000  0.0
    360    342    343    361   5     0.00000    30.33400     0.00000  0.0
    341    362    364    365   5     6.33458     2.89951     2.76144  0.0
    341    362    364    379   5     6.33458     2.89951     2.76144  0.0
    363    362    364    365   5     0.00000     8.78640     0.00000  0.0
    363    362    364    379   5     0.00000     8.78640     0.00000  0.0
    362    364    365    366   5     0.00000    30.33400     0.00000  0.0
    362    364    365    380   5     0.00000    30.33400     0.00000  0.0
    379    364    365    366   5     0.00000    30.33400     0.00000  0.0
    379    364    365    380   5     0.00000    30.33400     0.00000  0.0
    362    364    379    378   5     0.00000    30.33400     0.00000  0.0
    362    364    379    397   5     0.00000    30.33400     0.00000  0.0
    365    364    379    378   5     0.00000    30.33400     0.00000  0.0
    365    364    379    397   5     0.00000    30.33400     0.00000  0.0
    364    365    366    367   5     0.00000    30.33400     0.00000  0.0
    364    365    366    381   5     0.00000    30.33400     0.00000  0.0
    380    365    366    367   5     0.00000    30.33400     0.00000  0.0
    380    365    366    381   5     0.00000    30.33400     0.00000  0.0
    365    366    367    368   5     0.00000    30.33400     0.00000  0.0
    365    366    367    378   5     0.00000    30.33400     0.00000  0.0
    381    366    367    368   5     0.00000    30.33400     0.00000  0.0
    381    366    367    378   5     0.00000    30.33400     0.00000  0.0
    366    367    368    369   5     0.00000     8.78640     0.00000  0.0
    366    367    368    370   5     6.33458     2.89951     2.76144  0.0
    378    367    368    369   5     0.00000     8.78640     0.00000  0.0
    378    367    368    370   5     6.33458     2.89951     2.76144  0.0
    366    367    378    379   5     0.00000    30.33400     0.00000  0.0
    366    367    378    396   5     0.00000    30.33400     0.00000  0.0
    368    367    378    379   5     0.00000    30.33400     0.00000  0.0
    368    367    378    396   5     0.00000    30.33400     0.00000  0.0
    367    368    370    371   5    12.53945    12.88254     0.00000  0.0
    367    368    370    382   5     0.00000    21.48066     0.00000  0.0
    369    368    370    371   5     0.00000    25.47638     0.00000  0.0
    369    368    370    382   5     0.00000    20.50160     0.00000  0.0
    368    370    371    372   5    -3.67774    -0.67781     0.28033  0.0
    368    370    371    383   5     0.00000     0.00000     0.00000  0.0
    368    370    371    384   5     0.00000     0.00000     0.00000  0.0
    382    370    371    372   5     0.00000     0.00000     0.00000  0.0
    382    370    371    383   5     0.00000     0.00000     0.00000  0.0
    382    370    371    384   5     0.00000     0.00000     0.00000  0.0
    370    371    372    373   5     3.67355     4.10869     2.37651  0.0
    370    371    372    385   5     0.00000     0.00000     1.25520  0.0
    370    371    372    386   5     0.00000     0.00000     1.25520  0.0
    383    371    372    373   5     0.00000     0.00000     1.25520  0.0
    383    371    372    385   5     0.00000     0.00000     1.25520  0.0
    383    371    372    386   5     0.00000     0.00000     1.25520  0.0
    384    371    372    373   5     0.00000     0.00000     1.25520  0.0
    384    371    372    385   5     0.00000     0.00000     1.25520  0.0
    384    371    372    386   5     0.00000     0.00000     1.25520  0.0
    371    372    373    374   5     4.74884    -0.63178     1.67360  0.0
    371    372    373    387   5     0.00000     0.00000     1.25520  0.0
    371    372    373    388   5     0.00000     0.00000     1.25520  0.0
    385    372    373    374   5     0.00000     0.00000     1.25520  0.0
    385    372    373    387   5     0.00000     0.00000     1.25520  0.0
    385    372    373    388   5     0.00000     0.00000     1.25520  0.0
    386    372    373    374   5     0.00000     0.00000     1.25520  0.0
    386    372    373    387   5     0.00000     0.00000     1.25520  0.0
    386    372    373    388   5     0.00000     0.00000     1.25520  0.0
    372    373    374    375   5     4.74884    -0.63178     1.67360  0.0
    372    373    374    389   5     0.00000     0.00000     1.25520  0.0
    372    373    374    390   5     0.00000     0.00000     1.25520  0.0
    387    373    374    375   5     0.00000     0.00000     1.25520  0.0
    387    373    374    389   5     0.00000     0.00000     1.25520  0.0
    387    373    374    390   5     0.00000     0.00000     1.25520  0.0
    388    373    374    375   5     0.00000     0.00000     1.25520  0.0
    388    373    374    389   5     0.00000     0.00000     1.25520  0.0
    388    373    374    390   5     0.00000     0.00000     1.25520  0.0
    373    374    375    376   5     4.74884    -0.63178     1.67360  0.0
    373    374    375    391   5     0.00000     0.00000     1.25520  0.0
    373    374    375    392   5     0.00000     0.00000     1.25520  0.0
    389    374    375    376   5     0.00000     0.00000     1.25520  0.0
    389    374    375    391   5     0.00000     0.00000     1.25520  0.0
    389    374    375    392   5     0.00000     0.00000     1.25520  0.0
    390    374    375    376   5     0.00000     0.00000     1.25520  0.0
    390    374    375    391   5     0.00000     0.00000     1.25520  0.0
    390    374    375    392   5     0.00000     0.00000     1.25520  0.0
    374    375    376    377   5     3.67355     4.10869     2.37651  0.0
    374    375    376    393   5     0.00000     0.00000     1.25520  0.0
    374    375    376    394   5     0.00000     0.00000     1.25520  0.0
    391    375    376    377   5     0.00000     0.00000     1.25520  0.0
    391    375    376    393   5     0.00000     0.00000     1.25520  0.0
    391    375    376    394   5     0.00000     0.00000     1.25520  0.0
    392    375    376    377   5     0.00000     0.00000     1.25520  0.0
    392    375    376    393   5     0.00000     0.00000     1.25520  0.0
    392    375    376    394   5     0.00000     0.00000     1.25520  0.0
    375    376    377    395   5     0.00000     0.00000     0.00000  0.0
    375    376    377    398   5    -3.67774    -0.67781     0.28033  0.0
    393    376    377    395   5     0.00000     0.00000     0.00000  0.0
    393    376    377    398   5     0.00000     0.00000     0.00000  0.0
    394    376    377    395   5     0.00000     0.00000     0.00000  0.0
    394    376    377    398   5     0.00000     0.00000     0.00000  0.0
    376    377    398    399   5     0.00000    25.47638     0.00000  0.0
    376    377    398    400   5    12.53945    12.88254     0.00000  0.0
    395    377    398    399   5     0.00000    20.50160     0.00000  0.0
    395    377    398    400   5     0.00000    21.48066     0.00000  0.0
    367    378    379    364   5     0.00000    30.33400     0.00000  0.0
    367    378    379    397   5     0.00000    30.33400     0.00000  0.0
    396    378    379    364   5     0.00000    30.33400     0.00000  0.0
    396    378    379    397   5     0.00000    30.33400     0.00000  0.0
    377    398    400    401   5     6.33458     2.89951     2.76144  0.0
    377    398    400    415   5     6.33458     2.89951     2.76144  0.0
    399    398    400    401   5     0.00000     8.78640     0.00000  0.0
    399    398    400    415   5     0.00000     8.78640     0.00000  0.0
    398    400    401    402   5     0.00000    30.33400     0.00000  0.0
    398    400    401    416   5     0.00000    30.33400     0.00000  0.0
    415    400    401    402   5     0.00000    30.33400     0.00000  0.0
    415    400    401    416   5     0.00000    30.33400     0.00000  0.0
    398    400    415    414   5     0.00000    30.33400     0.00000  0.0
    398    400    415    433   5     0.00000    30.33400     0.00000  0.0
    401    400    415    414   5     0.00000    30.33400     0.00000  0.0
    401    400    415    433   5     0.00000    30.33400     0.00000  0.0
    400    401    402    403   5     0.00000    30.33400     0.00000  0.0
    400    401    402    417   5     0.00000    30.33400     0.00000  0.0
    416    401    402    403   5     0.00000    30.33400     0.00000  0.0
    416    401    402    417   5     0.00000    30.33400     0.00000  0.0
    401    402    403    404   5     0.00000    30.33400     0.00000  0.0
    401    402    403    414   5     0.00000    30.33400     0.00000  0.0
    417    402    403    404   5     0.00000    30.33400     0.00000  0.0
    417    402    403    414   5     0.00000    30.33400     0.00000  0.0
    402    403    404    405   5     0.00000     8.78640     0.00000  0.0
    402    403    404    406   5     6.33458     2.89951     2.76144  0.0
    414    403    404    405   5     0.00000     8.78640     0.00000  0.0
    414    403    404    406   5     6.33458     2.89951     2.76144  0.0
    402    403    414    415   5     0.00000    30.33400     0.00000  0.0
    402    403    414    432   5     0.00000    30.33400     0.00000  0.0
    404    403    414    415   5     0.00000    30.33400     0.00000  0.0
    404    403    414    432   5     0.00000    30.33400     0.00000  0.0
    403    404    406    407   5    12.53945    12.88254     0.00000  0.0
    403    404    406    418   5     0.00000    21.48066     0.00000  0.0
    405    404    406    407   5     0.00000    25.47638     0.00000  0.0
    405    404    406    418   5     0.00000    20.50160     0.00000  0.0
    404    406    407    408   5    -3.67774    -0.67781     0.28033  0.0
    404    406    407    419   5     0.00000     0.00000     0.00000  0.0
    404    406    407    420   5     0.00000     0.00000     0.00000  0.0
    418    406    407    408   5     0.00000     0.00000     0.00000  0.0
    418    406    407    419   5     0.00000     0.00000     0.00000  0.0
    418    406    407    420   5     0.00000     0.00000     0.00000  0.0
    406    407    408    409   5     3.67355     4.10869     2.37651  0.0
    406    407    408    421   5     0.00000     0.00000     1.25520  0.0
    406    407    408    422   5     0.00000     0.00000     1.25520  0.0
    419    407    408    409   5     0.00000     0.00000     1.25520  0.0
    419    407    408    421   5     0.00000     0.00000     1.25520  0.0
    419    407    408    422   5     0.00000     0.00000     1.25520  0.0
    420    407    408    409   5     0.00000     0.00000     1.25520  0.0
    420    407    408    421   5     0.00000     0.00000     1.25520  0.0
    420    407    408    422   5     0.00000     0.00000     1.25520  0.0
    407    408    409    410   5     4.74884    -0.63178     1.67360  0.0
    407    408    409    423   5     0.00000     0.00000     1.25520  0.0
    407    408    409    424   5     0.00000     0.00000     1.25520  0.0
    421    408    409    410   5     0.00000     0.00000     1.25520  0.0
    421    408    409    423   5     0.00000     0.00000     1.25520  0.0
    421    408    409    424   5     0.00000     0.00000     1.25520  0.0
    422    408    409    410   5     0.00000     0.00000     1.25520  0.0
    422    408    409    423   5     0.00000     0.00000     1.25520  0.0
    422    408    409    424   5     0.00000     0.00000     1.25520  0.0
    408    409    410    411   5     4.74884    -0.63178     1.67360  0.0
    408    409    410    425   5     0.00000     0.00000     1.25520  0.0
    408    409    410    426   5     0.00000     0.00000     1.25520  0.0
    423    409    410    411   5     0.00000     0.00000     1.25520  0.0
    423    409    410    425   5     0.00000     0.00000     1.25520  0.0
    423    409    410    426   5     0.00000     0.00000     1.25520  0.0
    424    409    410    411   5     0.00000     0.00000     1.25520  0.0
    424    409    410    425   5     0.00000     0.00000     1.25520  0.0
    424    409    410    426   5     0.00000     0.00000     1.25520  0.0
    409    410    411    412   5     4.74884    -0.63178     1.67360  0.0
    409    410    411    427   5     0.00000     0.00000     1.25520  0.0
    409    410    411    428   5     0.00000     0.00000     1.25520  0.0
    425    410    411    412   5     0.00000     0.00000     1.25520  0.0
    425    410    411    427   5     0.00000     0.00000     1.25520  0.0
    425    410    411    428   5     0.00000     0.00000     1.25520  0.0
    426    410    411    412   5     0.00000     0.00000     1.25520  0.0
    426    410    411    427   5     0.00000     0.00000     1.25520  0.0
    426    410    411    428   5     0.00000     0.00000     1.25520  0.0
    410    411    412    413   5     3.67355     4.10869     2.37651  0.0
    410    411    412    429   5     0.00000     0.00000     1.25520  0.0
    410    411    412    430   5     0.00000     0.00000     1.25520  0.0
    427    411    412    413   5     0.00000     0.00000     1.25520  0.0
    427    411    412    429   5     0.00000     0.00000     1.25520  0.0
    427    411    412    430   5     0.00000     0.00000     1.25520  0.0
    428    411    412    413   5     0.00000     0.00000     1.25520  0.0
    428    411    412    429   5     0.00000     0.00000     1.25520  0.0
    428    411    412    430   5     0.00000     0.00000     1.25520  0.0
    411    412    413    431   5     0.00000     0.00000     0.00000  0.0
    411    412    413    434   5    -3.67774    -0.67781     0.28033  0.0
    429    412    413    431   5     0.00000     0.00000     0.00000  0.0
    429    412    413    434   5     0.00000     0.00000     0.00000  0.0
    430    412    413    431   5     0.00000     0.00000     0.00000  0.0
    430    412    413    434   5     0.00000     0.00000     0.00000  0.0
    412    413    434    435   5     0.00000    25.47638     0.00000  0.0
    412    413    434    436   5    12.53945    12.88254     0.00000  0.0
    431    413    434    435   5     0.00000    20.50160     0.00000  0.0
    431    413    434    436   5     0.00000    21.48066     0.00000  0.0
    403    414    415    400   5     0.00000    30.33400     0.00000  0.0
    403    414    415    433   5     0.00000    30.33400     0.00000  0.0
    432    414    415    400   5     0.00000    30.33400     0.00000  0.0
    432    414    415    433   5     0.00000    30.33400     0.00000  0.0
    413    434    436    437   5     6.33458     2.89951     2.76144  0.0
    413    434    436    451   5     6.33458     2.89951     2.76144  0.0
    435    434    436    437   5     0.00000     8.78640     0.00000  0.0
    435    434    436    451   5     0.00000     8.78640     0.00000  0.0
    434    436    437    438   5     0.00000    30.33400     0.00000  0.0
    434    436    437    452   5     0.00000    30.33400     0.00000  0.0
    451    436    437    438   5     0.00000    30.33400     0.00000  0.0
    451    436    437    452   5     0.00000    30.33400     0.00000  0.0
    434    436    451    450   5     0.00000    30.33400     0.00000  0.0
    434    436    451    469   5     0.00000    30.33400     0.00000  0.0
    437    436    451    450   5     0.00000    30.33400     0.00000  0.0
    437    436    451    469   5     0.00000    30.33400     0.00000  0.0
    436    437    438    439   5     0.00000    30.33400     0.00000  0.0
    436    437    438    453   5     0.00000    30.33400     0.00000  0.0
    452    437    438    439   5     0.00000    30.33400     0.00000  0.0
    452    437    438    453   5     0.00000    30.33400     0.00000  0.0
    437    438    439    440   5     0.00000    30.33400     0.00000  0.0
    437    438    439    450   5     0.00000    30.33400     0.00000  0.0
    453    438    439    440   5     0.00000    30.33400     0.00000  0.0
    453    438    439    450   5     0.00000    30.33400     0.00000  0.0
    438    439    440    441   5     0.00000     8.78640     0.00000  0.0
    438    439    440    442   5     6.33458     2.89951     2.76144  0.0
    450    439    440    441   5     0.00000     8.78640     0.00000  0.0
    450    439    440    442   5     6.33458     2.89951     2.76144  0.0
    438    439    450    451   5     0.00000    30.33400     0.00000  0.0
    438    439    450    468   5     0.00000    30.33400     0.00000  0.0
    440    439    450    451   5     0.00000    30.33400     0.00000  0.0
    440    439    450    468   5     0.00000    30.33400     0.00000  0.0
    439    440    442    443   5    12.53945    12.88254     0.00000  0.0
    439    440    442    454   5     0.00000    21.48066     0.00000  0.0
    441    440    442    443   5     0.00000    25.47638     0.00000  0.0
    441    440    442    454   5     0.00000    20.50160     0.00000  0.0
    440    442    443    444   5    -3.67774    -0.67781     0.28033  0.0
    440    442    443    455   5     0.00000     0.00000     0.00000  0.0
    440    442    443    456   5     0.00000     0.00000     0.00000  0.0
    454    442    443    444   5     0.00000     0.00000     0.00000  0.0
    454    442    443    455   5     0.00000     0.00000     0.00000  0.0
    454    442    443    456   5     0.00000     0.00000     0.00000  0.0
    442    443    444    445   5     3.67355     4.10869     2.37651  0.0
    442    443    444    457   5     0.00000     0.00000     1.25520  0.0
    442    443    444    458   5     0.00000     0.00000     1.25520  0.0
    455    443    444    445   5     0.00000     0.00000     1.25520  0.0
    455    443    444    457   5     0.00000     0.00000     1.25520  0.0
    455    443    444    458   5     0.00000     0.00000     1.25520  0.0
    456    443    444    445   5     0.00000     0.00000     1.25520  0.0
    456    443    444    457   5     0.00000     0.00000     1.25520  0.0
    456    443    444    458   5     0.00000     0.00000     1.25520  0.0
    443    444    445    446   5     4.74884    -0.63178     1.67360  0.0
    443    444    445    459   5     0.00000     0.00000     1.25520  0.0
    443    444    445    460   5     0.00000     0.00000     1.25520  0.0
    457    444    445    446   5     0.00000     0.00000     1.25520  0.0
    457    444    445    459   5     0.00000     0.00000     1.25520  0.0
    457    444    445    460   5     0.00000     0.00000     1.25520  0.0
    458    444    445    446   5     0.00000     0.00000     1.25520  0.0
    458    444    445    459   5     0.00000     0.00000     1.25520  0.0
    458    444    445    460   5     0.00000     0.00000     1.25520  0.0
    444    445    446    447   5     4.74884    -0.63178     1.67360  0.0
    444    445    446    461   5     0.00000     0.00000     1.25520  0.0
    444    445    446    462   5     0.00000     0.00000     1.25520  0.0
    459    445    446    447   5     0.00000     0.00000     1.25520  0.0
    459    445    446    461   5     0.00000     0.00000     1.25520  0.0
    459    445    446    462   5     0.00000     0.00000     1.25520  0.0
    460    445    446    447   5     0.00000     0.00000     1.25520  0.0
    460    445    446    461   5     0.00000     0.00000     1.25520  0.0
    460    445    446    462   5     0.00000     0.00000     1.25520  0.0
    445    446    447    448   5     4.74884    -0.63178     1.67360  0.0
    445    446    447    463   5     0.00000     0.00000     1.25520  0.0
    445    446    447    464   5     0.00000     0.00000     1.25520  0.0
    461    446    447    448   5     0.00000     0.00000     1.25520  0.0
    461    446    447    463   5     0.00000     0.00000     1.25520  0.0
    461    446    447    464   5     0.00000     0.00000     1.25520  0.0
    462    446    447    448   5     0.00000     0.00000     1.25520  0.0
    462    446    447    463   5     0.00000     0.00000     1.25520  0.0
    462    446    447    464   5     0.00000     0.00000     1.25520  0.0
    446    447    448    449   5     3.67355     4.10869     2.37651  0.0
    446    447    448    465   5     0.00000     0.00000     1.25520  0.0
    446    447    448    466   5     0.00000     0.00000     1.25520  0.0
    463    447    448    449   5     0.00000     0.00000     1.25520  0.0
    463    447    448    465   5     0.00000     0.00000     1.25520  0.0
    463    447    448    466   5     0.00000     0.00000     1.25520  0.0
    464    447    448    449   5     0.00000     0.00000     1.25520  0.0
    464    447    448    465   5     0.00000     0.00000     1.25520  0.0
    464    447    448    466   5     0.00000     0.00000     1.25520  0.0
    447    448    449    467   5     0.00000     0.00000     0.00000  0.0
    447    448    449    470   5    -3.67774    -0.67781     0.28033  0.0
    465    448    449    467   5     0.00000     0.00000     0.00000  0.0
    465    448    449    470   5     0.00000     0.00000     0.00000  0.0
    466    448    449    467   5     0.00000     0.00000     0.00000  0.0
    466    448    449    470   5     0.00000     0.00000     0.00000  0.0
    448    449    470    471   5     0.00000    25.47638     0.00000  0.0
    448    449    470    472   5    12.53945    12.88254     0.00000  0.0
    467    449    470    471   5     0.00000    20.50160     0.00000  0.0
    467    449    470    472   5     0.00000    21.48066     0.00000  0.0
    439    450    451    436   5     0.00000    30.33400     0.00000  0.0
    439    450    451    469   5     0.00000    30.33400     0.00000  0.0
    468    450    451    436   5     0.00000    30.33400     0.00000  0.0
    468    450    451    469   5     0.00000    30.33400     0.00000  0.0
    449    470    472    473   5     6.33458     2.89951     2.76144  0.0
    449    470    472    487   5     6.33458     2.89951     2.76144  0.0
    471    470    472    473   5     0.00000     8.78640     0.00000  0.0
    471    470    472    487   5     0.00000     8.78640     0.00000  0.0
    470    472    473    474   5     0.00000    30.33400     0.00000  0.0
    470    472    473    488   5     0.00000    30.33400     0.00000  0.0
    487    472    473    474   5     0.00000    30.33400     0.00000  0.0
    487    472    473    488   5     0.00000    30.33400     0.00000  0.0
    470    472    487    486   5     0.00000    30.33400     0.00000  0.0
    470    472    487    505   5     0.00000    30.33400     0.00000  0.0
    473    472    487    486   5     0.00000    30.33400     0.00000  0.0
    473    472    487    505   5     0.00000    30.33400     0.00000  0.0
    472    473    474    475   5     0.00000    30.33400     0.00000  0.0
    472    473    474    489   5     0.00000    30.33400     0.00000  0.0
    488    473    474    475   5     0.00000    30.33400     0.00000  0.0
    488    473    474    489   5     0.00000    30.33400     0.00000  0.0
    473    474    475    476   5     0.00000    30.33400     0.00000  0.0
    473    474    475    486   5     0.00000    30.33400     0.00000  0.0
    489    474    475    476   5     0.00000    30.33400     0.00000  0.0
    489    474    475    486   5     0.00000    30.33400     0.00000  0.0
    474    475    476    477   5     0.00000     8.78640     0.00000  0.0
    474    475    476    478   5     6.33458     2.89951     2.76144  0.0
    486    475    476    477   5     0.00000     8.78640     0.00000  0.0
    486    475    476    478   5     6.33458     2.89951     2.76144  0.0
    474    475    486    487   5     0.00000    30.33400     0.00000  0.0
    474    475    486    504   5     0.00000    30.33400     0.00000  0.0
    476    475    486    487   5     0.00000    30.33400     0.00000  0.0
    476    475    486    504   5     0.00000    30.33400     0.00000  0.0
    475    476    478    479   5    12.53945    12.88254     0.00000  0.0
    475    476    478    490   5     0.00000    21.48066     0.00000  0.0
    477    476    478    479   5     0.00000    25.47638     0.00000  0.0
    477    476    478    490   5     0.00000    20.50160     0.00000  0.0
    476    478    479    480   5    -3.67774    -0.67781     0.28033  0.0
    476    478    479    491   5     0.00000     0.00000     0.00000  0.0
    476    478    479    492   5     0.00000     0.00000     0.00000  0.0
    490    478    479    480   5     0.00000     0.00000     0.00000  0.0
    490    478    479    491   5     0.00000     0.00000     0.00000  0.0
    490    478    479    492   5     0.00000     0.00000     0.00000  0.0
    478    479    480    481   5     3.67355     4.10869     2.37651  0.0
    478    479    480    493   5     0.00000     0.00000     1.25520  0.0
    478    479    480    494   5     0.00000     0.00000     1.25520  0.0
    491    479    480    481   5     0.00000     0.00000     1.25520  0.0
    491    479    480    493   5     0.00000     0.00000     1.25520  0.0
    491    479    480    494   5     0.00000     0.00000     1.25520  0.0
    492    479    480    481   5     0.00000     0.00000     1.25520  0.0
    492    479    480    493   5     0.00000     0.00000     1.25520  0.0
    492    479    480    494   5     0.00000     0.00000     1.25520  0.0
    479    480    481    482   5     4.74884    -0.63178     1.67360  0.0
    479    480    481    495   5     0.00000     0.00000     1.25520  0.0
    479    480    481    496   5     0.00000     0.00000     1.25520  0.0
    493    480    481    482   5     0.00000     0.00000     1.25520  0.0
    493    480    481    495   5     0.00000     0.00000     1.25520  0.0
    493    480    481    496   5     0.00000     0.00000     1.25520  0.0
    494    480    481    482   5     0.00000     0.00000     1.25520  0.0
    494    480    481    495   5     0.00000     0.00000     1.25520  0.0
    494    480    481    496   5     0.00000     0.00000     1.25520  0.0
    480    481    482    483   5     4.74884    -0.63178     1.67360  0.0
    480    481    482    497   5     0.00000     0.00000     1.25520  0.0
    480    481    482    498   5     0.00000     0.00000     1.25520  0.0
    495    481    482    483   5     0.00000     0.00000     1.25520  0.0
    495    481    482    497   5     0.00000     0.00000     1.25520  0.0
    495    481    482    498   5     0.00000     0.00000     1.25520  0.0
    496    481    482    483   5     0.00000     0.00000     1.25520  0.0
    496    481    482    497   5     0.00000     0.00000     1.25520  0.0
    496    481    482    498   5     0.00000     0.00000     1.25520  0.0
    481    482    483    484   5     4.74884    -0.63178     1.67360  0.0
    481    482    483    499   5     0.00000     0.00000     1.25520  0.0
    481    482    483    500   5     0.00000     0.00000     1.25520  0.0
    497    482    483    484   5     0.00000     0.00000     1.25520  0.0
    497    482    483    499   5     0.00000     0.00000     1.25520  0.0
    497    482    483    500   5     0.00000     0.00000     1.25520  0.0
    498    482    483    484   5     0.00000     0.00000     1.25520  0.0
    498    482    483    499   5     0.00000     0.00000     1.25520  0.0
    498    482    483    500   5     0.00000     0.00000     1.25520  0.0
    482    483    484    485   5     3.67355     4.10869     2.37651  0.0
    482    483    484    501   5     0.00000     0.00000     1.25520  0.0
    482    483    484    502   5     0.00000     0.00000     1.25520  0.0
    499    483    484    485   5     0.00000     0.00000     1.25520  0.0
    499    483    484    501   5     0.00000     0.00000     1.25520  0.0
    499    483    484    502   5     0.00000     0.00000     1.25520  0.0
    500    483    484    485   5     0.00000     0.00000     1.25520  0.0
    500    483    484    501   5     0.00000     0.00000     1.25520  0.0
    500    483    484    502   5     0.00000     0.00000     1.25520  0.0
    483    484    485    503   5     0.00000     0.00000     0.00000  0.0
    483    484    485    506   5    -3.67774    -0.67781     0.28033  0.0
    501    484    485    503   5     0.00000     0.00000     0.00000  0.0
    501    484    485    506   5     0.00000     0.00000     0.00000  0.0
    502    484    485    503   5     0.00000     0.00000     0.00000  0.0
    502    484    485    506   5     0.00000     0.00000     0.00000  0.0
    484    485    506    507   5     0.00000    25.47638     0.00000  0.0
    484    485    506    508   5    12.53945    12.88254     0.00000  0.0
    503    485    506    507   5     0.00000    20.50160     0.00000  0.0
    503    485    506    508   5     0.00000    21.48066     0.00000  0.0
    475    486    487    472   5     0.00000    30.33400     0.00000  0.0
    475    486    487    505   5     0.00000    30.33400     0.00000  0.0
    504    486    487    472   5     0.00000    30.33400     0.00000  0.0
    504    486    487    505   5     0.00000    30.33400     0.00000  0.0
    485    506    508    509   5     6.33458     2.89951     2.76144  0.0
    485    506    508    523   5     6.33458     2.89951     2.76144  0.0
    507    506    508    509   5     0.00000     8.78640     0.00000  0.0
    507    506    508    523   5     0.00000     8.78640     0.00000  0.0
    506    508    509    510   5     0.00000    30.33400     0.00000  0.0
    506    508    509    524   5     0.00000    30.33400     0.00000  0.0
    523    508    509    510   5     0.00000    30.33400     0.00000  0.0
    523    508    509    524   5     0.00000    30.33400     0.00000  0.0
    506    508    523    522   5     0.00000    30.33400     0.00000  0.0
    506    508    523    541   5     0.00000    30.33400     0.00000  0.0
    509    508    523    522   5     0.00000    30.33400     0.00000  0.0
    509    508    523    541   5     0.00000    30.33400     0.00000  0.0
    508    509    510    511   5     0.00000    30.33400     0.00000  0.0
    508    509    510    525   5     0.00000    30.33400     0.00000  0.0
    524    509    510    511   5     0.00000    30.33400     0.00000  0.0
    524    509    510    525   5     0.00000    30.33400     0.00000  0.0
    509    510    511    512   5     0.00000    30.33400     0.00000  0.0
    509    510    511    522   5     0.00000    30.33400     0.00000  0.0
    525    510    511    512   5     0.00000    30.33400     0.00000  0.0
    525    510    511    522   5     0.00000    30.33400     0.00000  0.0
    510    511    512    513   5     0.00000     8.78640     0.00000  0.0
    510    511    512    514   5     6.33458     2.89951     2.76144  0.0
    522    511    512    513   5     0.00000     8.78640     0.00000  0.0
    522    511    512    514   5     6.33458     2.89951     2.76144  0.0
    510    511    522    523   5     0.00000    30.33400     0.00000  0.0
    510    511    522    540   5     0.00000    30.33400     0.00000  0.0
    512    511    522    523   5     0.00000    30.33400     0.00000  0.0
    512    511    522    540   5     0.00000    30.33400     0.00000  0.0
    511    512    514    515   5    12.53945    12.88254     0.00000  0.0
    511    512    514    526   5     0.00000    21.48066     0.00000  0.0
    513    512    514    515   5     0.00000    25.47638     0.00000  0.0
    513    512    514    526   5     0.00000    20.50160     0.00000  0.0
    512    514    515    516   5    -3.67774    -0.67781     0.28033  0.0
    512    514    515    527   5     0.00000     0.00000     0.00000  0.0
    512    514    515    528   5     0.00000     0.00000     0.00000  0.0
    526    514    515    516   5     0.00000     0.00000     0.00000  0.0
    526    514    515    527   5     0.00000     0.00000     0.00000  0.0
    526    514    515    528   5     0.00000     0.00000     0.00000  0.0
    514    515    516    517   5     3.67355     4.10869     2.37651  0.0
    514    515    516    529   5     0.00000     0.00000     1.25520  0.0
    514    515    516    530   5     0.00000     0.00000     1.25520  0.0
    527    515    516    517   5     0.00000     0.00000     1.25520  0.0
    527    515    516    529   5     0.00000     0.00000     1.25520  0.0
    527    515    516    530   5     0.00000     0.00000     1.25520  0.0
    528    515    516    517   5     0.00000     0.00000     1.25520  0.0
    528    515    516    529   5     0.00000     0.00000     1.25520  0.0
    528    515    516    530   5     0.00000     0.00000     1.25520  0.0
    515    516    517    518   5     4.74884    -0.63178     1.67360  0.0
    515    516    517    531   5     0.00000     0.00000     1.25520  0.0
    515    516    517    532   5     0.00000     0.00000     1.25520  0.0
    529    516    517    518   5     0.00000     0.00000     1.25520  0.0
    529    516    517    531   5     0.00000     0.00000     1.25520  0.0
    529    516    517    532   5     0.00000     0.00000     1.25520  0.0
    530    516    517    518   5     0.00000     0.00000     1.25520  0.0
    530    516    517    531   5     0.00000     0.00000     1.25520  0.0
    530    516    517    532   5     0.00000     0.00000     1.25520  0.0
    516    517    518    519   5     4.74884    -0.63178     1.67360  0.0
    516    517    518    533   5     0.00000     0.00000     1.25520  0.0
    516    517    518    534   5     0.00000     0.00000     1.25520  0.0
    531    517    518    519   5     0.00000     0.00000     1.25520  0.0
    531    517    518    533   5     0.00000     0.00000     1.25520  0.0
    531    517    518    534   5     0.00000     0.00000     1.25520  0.0
    532    517    518    519   5     0.00000     0.00000     1.25520  0.0
    532    517    518    533   5     0.00000     0.00000     1.25520  0.0
    532    517    518    534   5     0.00000     0.00000     1.25520  0.0
    517    518    519    520   5     4.74884    -0.63178     1.67360  0.0
    517    518    519    535   5     0.00000     0.00000     1.25520  0.0
    517    518    519    536   5     0.00000     0.00000     1.25520  0.0
    533    518    519    520   5     0.00000     0.00000     1.25520  0.0
    533    518    519    535   5     0.00000     0.00000     1.25520  0.0
    533    518    519    536   5     0.00000     0.00000     1.25520  0.0
    534    518    519    520   5     0.00000     0.00000     1.25520  0.0
    534    518    519    535   5     0.00000     0.00000     1.25520  0.0
    534    518    519    536   5     0.00000     0.00000     1.25520  0.0
    518    519    520    521   5     3.67355     4.10869     2.37651  0.0
    518    519    520    537   5     0.00000     0.00000     1.25520  0.0
    518    519    520    538   5     0.00000     0.00000     1.25520  0.0
    535    519    520    521   5     0.00000     0.00000     1.25520  0.0
    535    519    520    537   5     0.00000     0.00000     1.25520  0.0
    535    519    520    538   5     0.00000     0.00000     1.25520  0.0
    536    519    520    521   5     0.00000     0.00000     1.25520  0.0
    536    519    520    537   5     0.00000     0.00000     1.25520  0.0
    536    519    520    538   5     0.00000     0.00000     1.25520  0.0
    519    520    521    539   5     0.00000     0.00000     0.00000  0.0
    519    520    521    542   5    -3.67774    -0.67781     0.28033  0.0
    537    520    521    539   5     0.00000     0.00000     0.00000  0.0
    537    520    521    542   5     0.00000     0.00000     0.00000  0.0
    538    520    521    539   5     0.00000     0.00000     0.00000  0.0
    538    520    521    542   5     0.00000     0.00000     0.00000  0.0
    520    521    542    543   5     0.00000    25.47638     0.00000  0.0
    520    521    542    544   5    12.53945    12.88254     0.00000  0.0
    539    521    542    543   5     0.00000    20.50160     0.00000  0.0
    539    521    542    544   5     0.00000    21.48066     0.00000  0.0
    511    522    523    508   5     0.00000    30.33400     0.00000  0.0
    511    522    523    541   5     0.00000    30.33400     0.00000  0.0
    540    522    523    508   5     0.00000    30.33400     0.00000  0.0
    540    522    523    541   5     0.00000    30.33400     0.00000  0.0
    521    542    544    545   5     6.33458     2.89951     2.76144  0.0
    521    542    544    559   5     6.33458     2.89951     2.76144  0.0
    543    542    544    545   5     0.00000     8.78640     0.00000  0.0
    543    542    544    559   5     0.00000     8.78640     0.00000  0.0
    542    544    545    546   5     0.00000    30.33400     0.00000  0.0
    542    544    545    560   5     0.00000    30.33400     0.00000  0.0
    559    544    545    546   5     0.00000    30.33400     0.00000  0.0
    559    544    545    560   5     0.00000    30.33400     0.00000  0.0
    542    544    559    558   5     0.00000    30.33400     0.00000  0.0
    542    544    559    577   5     0.00000    30.33400     0.00000  0.0
    545    544    559    558   5     0.00000    30.33400     0.00000  0.0
    545    544    559    577   5     0.00000    30.33400     0.00000  0.0
    544    545    546    547   5     0.00000    30.33400     0.00000  0.0
    544    545    546    561   5     0.00000    30.33400     0.00000  0.0
    560    545    546    547   5     0.00000    30.33400     0.00000  0.0
    560    545    546    561   5     0.00000    30.33400     0.00000  0.0
    545    546    547    548   5     0.00000    30.33400     0.00000  0.0
    545    546    547    558   5     0.00000    30.33400     0.00000  0.0
    561    546    547    548   5     0.00000    30.33400     0.00000  0.0
    561    546    547    558   5     0.00000    30.33400     0.00000  0.0
    546    547    548    549   5     0.00000     8.78640     0.00000  0.0
    546    547    548    550   5     6.33458     2.89951     2.76144  0.0
    558    547    548    549   5     0.00000     8.78640     0.00000  0.0
    558    547    548    550   5     6.33458     2.89951     2.76144  0.0
    546    547    558    559   5     0.00000    30.33400     0.00000  0.0
    546    547    558    576   5     0.00000    30.33400     0.00000  0.0
    548    547    558    559   5     0.00000    30.33400     0.00000  0.0
    548    547    558    576   5     0.00000    30.33400     0.00000  0.0
    547    548    550    551   5    12.53945    12.88254     0.00000  0.0
    547    548    550    562   5     0.00000    21.48066     0.00000  0.0
    549    548    550    551   5     0.00000    25.47638     0.00000  0.0
    549    548    550    562   5     0.00000    20.50160     0.00000  0.0
    548    550    551    552   5    -3.67774    -0.67781     0.28033  0.0
    548    550    551    563   5     0.00000     0.00000     0.00000  0.0
    548    550    551    564   5     0.00000     0.00000     0.00000  0.0
    562    550    551    552   5     0.00000     0.00000     0.00000  0.0
    562    550    551    563   5     0.00000     0.00000     0.00000  0.0
    562    550    551    564   5     0.00000     0.00000     0.00000  0.0
    550    551    552    553   5     3.67355     4.10869     2.37651  0.0
    550    551    552    565   5     0.00000     0.00000     1.25520  0.0
    550    551    552    566   5     0.00000     0.00000     1.25520  0.0
    563    551    552    553   5     0.00000     0.00000     1.25520  0.0
    563    551    552    565   5     0.00000     0.00000     1.25520  0.0
    563    551    552    566   5     0.00000     0.00000     1.25520  0.0
    564    551    552    553   5     0.00000     0.00000     1.25520  0.0
    564    551    552    565   5     0.00000     0.00000     1.25520  0.0
    564    551    552    566   5     0.00000     0.00000     1.25520  0.0
    551    552    553    554   5     4.74884    -0.63178     1.67360  0.0
    551    552    553    567   5     0.00000     0.00000     1.25520  0.0
    551    552    553    568   5     0.00000     0.00000     1.25520  0.0
    565    552    553    554   5     0.00000     0.00000     1.25520  0.0
    565    552    553    567   5     0.00000     0.00000     1.25520  0.0
    565    552    553    568   5     0.00000     0.00000     1.25520  0.0
    566    552    553    554   5     0.00000     0.00000     1.25520  0.0
    566    552    553    567   5     0.00000     0.00000     1.25520  0.0
    566    552    553    568   5     0.00000     0.00000     1.25520  0.0
    552    553    554    555   5     4.74884    -0.63178     1.67360  0.0
    552    553    554    569   5     0.00000     0.00000     1.25520  0.0
    552    553    554    570   5     0.00000     0.00000     1.25520  0.0
    567    553    554    555   5     0.00000     0.00000     1.25520  0.0
    567    553    554    569   5     0.00000     0.00000     1.25520  0.0
    567    553    554    570   5     0.00000     0.00000     1.25520  0.0
    568    553    554    555   5     0.00000     0.00000     1.25520  0.0
    568    553    554    569   5     0.00000     0.00000     1.25520  0.0
    568    553    554    570   5     0.00000     0.00000     1.25520  0.0
    553    554    555    556   5     4.74884    -0.63178     1.67360  0.0
    553    554    555    571   5     0.00000     0.00000     1.25520  0.0
    553    554    555    572   5     0.00000     0.00000     1.25520  0.0
    569    554    555    556   5     0.00000     0.00000     1.25520  0.0
    569    554    555    571   5     0.00000     0.00000     1.25520  0.0
    569    554    555    572   5     0.00000     0.00000     1.25520  0.0
    570    554    555    556   5     0.00000     0.00000     1.25520  0.0
    570    554    555    571   5     0.00000     0.00000     1.25520  0.0
    570    554    555    572   5     0.00000     0.00000     1.25520  0.0
    554    555    556    557   5     3.67355     4.10869     2.37651  0.0
    554    555    556    573   5     0.00000     0.00000     1.25520  0.0
    554    555    556    574   5     0.00000     0.00000     1.25520  0.0
    571    555    556    557   5     0.00000     0.00000     1.25520  0.0
    571    555    556    573   5     0.00000     0.00000     1.25520  0.0
    571    555    556    574   5     0.00000     0.00000     1.25520  0.0
    572    555    556    557   5     0.00000     0.00000     1.25520  0.0
    572    555    556    573   5     0.00000     0.00000     1.25520  0.0
    572    555    556    574   5     0.00000     0.00000     1.25520  0.0
    555    556    557    575   5     0.00000     0.00000     0.00000  0.0
    555    556    557    578   5    -3.67774    -0.67781     0.28033  0.0
    573    556    557    575   5     0.00000     0.00000     0.00000  0.0
    573    556    557    578   5     0.00000     0.00000     0.00000  0.0
    574    556    557    575   5     0.00000     0.00000     0.00000  0.0
    574    556    557    578   5     0.00000     0.00000     0.00000  0.0
    556    557    578    579   5     0.00000    25.47638     0.00000  0.0
    556    557    578    580   5    12.53945    12.88254     0.00000  0.0
    575    557    578    579   5     0.00000    20.50160     0.00000  0.0
    575    557    578    580   5     0.00000    21.48066     0.00000  0.0
    547    558    559    544   5     0.00000    30.33400     0.00000  0.0
    547    558    559    577   5     0.00000    30.33400     0.00000  0.0
    576    558    559    544   5     0.00000    30.33400     0.00000  0.0
    576    558    559    577   5     0.00000    30.33400     0.00000  0.0
    557    578    580    581   5     6.33458     2.89951     2.76144  0.0
    557    578    580    595   5     6.33458     2.89951     2.76144  0.0
    579    578    580    581   5     0.00000     8.78640     0.00000  0.0
    579    578    580    595   5     0.00000     8.78640     0.00000  0.0
    578    580    581    582   5     0.00000    30.33400     0.00000  0.0
    578    580    581    596   5     0.00000    30.33400     0.00000  0.0
    595    580    581    582   5     0.00000    30.33400     0.00000  0.0
    595    580    581    596   5     0.00000    30.33400     0.00000  0.0
    578    580    595    594   5     0.00000    30.33400     0.00000  0.0
    578    580    595    613   5     0.00000    30.33400     0.00000  0.0
    581    580    595    594   5     0.00000    30.33400     0.00000  0.0
    581    580    595    613   5     0.00000    30.33400     0.00000  0.0
    580    581    582    583   5     0.00000    30.33400     0.00000  0.0
    580    581    582    597   5     0.00000    30.33400     0.00000  0.0
    596    581    582    583   5     0.00000    30.33400     0.00000  0.0
    596    581    582    597   5     0.00000    30.33400     0.00000  0.0
    581    582    583    584   5     0.00000    30.33400     0.00000  0.0
    581    582    583    594   5     0.00000    30.33400     0.00000  0.0
    597    582    583    584   5     0.00000    30.33400     0.00000  0.0
    597    582    583    594   5     0.00000    30.33400     0.00000  0.0
    582    583    584    585   5     0.00000     8.78640     0.00000  0.0
    582    583    584    586   5     6.33458     2.89951     2.76144  0.0
    594    583    584    585   5     0.00000     8.78640     0.00000  0.0
    594    583    584    586   5     6.33458     2.89951     2.76144  0.0
    582    583    594    595   5     0.00000    30.33400     0.00000  0.0
    582    583    594    612   5     0.00000    30.33400     0.00000  0.0
    584    583    594    595   5     0.00000    30.33400     0.00000  0.0
    584    583    594    612   5     0.00000    30.33400     0.00000  0.0
    583    584    586    587   5    12.53945    12.88254     0.00000  0.0
    583    584    586    598   5     0.00000    21.48066     0.00000  0.0
    585    584    586    587   5     0.00000    25.47638     0.00000  0.0
    585    584    586    598   5     0.00000    20.50160     0.00000  0.0
    584    586    587    588   5    -3.67774    -0.67781     0.28033  0.0
    584    586    587    599   5     0.00000     0.00000     0.00000  0.0
    584    586    587    600   5     0.00000     0.00000     0.00000  0.0
    598    586    587    588   5     0.00000     0.00000     0.00000  0.0
    598    586    587    599   5     0.00000     0.00000     0.00000  0.0
    598    586    587    600   5     0.00000     0.00000     0.00000  0.0
    586    587    588    589   5     3.67355     4.10869     2.37651  0.0
    586    587    588    601   5     0.00000     0.00000     1.25520  0.0
    586    587    588    602   5     0.00000     0.00000     1.25520  0.0
    599    587    588    589   5     0.00000     0.00000     1.25520  0.0
    599    587    588    601   5     0.00000     0.00000     1.25520  0.0
    599    587    588    602   5     0.00000     0.00000     1.25520  0.0
    600    587    588    589   5     0.00000     0.00000     1.25520  0.0
    600    587    588    601   5     0.00000     0.00000     1.25520  0.0
    600    587    588    602   5     0.00000     0.00000     1.25520  0.0
    587    588    589    590   5     4.74884    -0.63178     1.67360  0.0
    587    588    589    603   5     0.00000     0.00000     1.25520  0.0
    587    588    589    604   5     0.00000     0.00000     1.25520  0.0
    601    588    589    590   5     0.00000     0.00000     1.25520  0.0
    601    588    589    603   5     0.00000     0.00000     1.25520  0.0
    601    588    589    604   5     0.00000     0.00000     1.25520  0.0
    602    588    589    590   5     0.00000     0.00000     1.25520  0.0
    602    588    589    603   5     0.00000     0.00000     1.25520  0.0
    602    588    589    604   5     0.00000     0.00000     1.25520  0.0
    588    589    590    591   5     4.74884    -0.63178     1.67360  0.0
    588    589    590    605   5     0.00000     0.00000     1.25520  0.0
    588    589    590    606   5     0.00000     0.00000     1.25520  0.0
    603    589    590    591   5     0.00000     0.00000     1.25520  0.0
    603    589    590    605   5     0.00000     0.00000     1.25520  0.0
    603    589    590    606   5     0.00000     0.00000     1.25520  0.0
    604    589    590    591   5     0.00000     0.00000     1.25520  0.0
    604    589    590    605   5     0.00000     0.00000     1.25520  0.0
    604    589    590    606   5     0.00000     0.00000     1.25520  0.0
    589    590    591    592   5     4.74884    -0.63178     1.67360  0.0
    589    590    591    607   5     0.00000     0.00000     1.25520  0.0
    589    590    591    608   5     0.00000     0.00000     1.25520  0.0
    605    590    591    592   5     0.00000     0.00000     1.25520  0.0
    605    590    591    607   5     0.00000     0.00000     1.25520  0.0
    605    590    591    608   5     0.00000     0.00000     1.25520  0.0
    606    590    591    592   5     0.00000     0.00000     1.25520  0.0
    606    590    591    607   5     0.00000     0.00000     1.25520  0.0
    606    590    591    608   5     0.00000     0.00000     1.25520  0.0
    590    591    592    593   5     3.67355     4.10869     2.37651  0.0
    590    591    592    609   5     0.00000     0.00000     1.25520  0.0
    590    591    592    610   5     0.00000     0.00000     1.25520  0.0
    607    591    592    593   5     0.00000     0.00000     1.25520  0.0
    607    591    592    609   5     0.00000     0.00000     1.25520  0.0
    607    591    592    610   5     0.00000     0.00000     1.25520  0.0
    608    591    592    593   5     0.00000     0.00000     1.25520  0.0
    608    591    592    609   5     0.00000     0.00000     1.25520  0.0
    608    591    592    610   5     0.00000     0.00000     1.25520  0.0
    591    592    593    611   5     0.00000     0.00000     0.00000  0.0
    591    592    593    614   5    -3.67774    -0.67781     0.28033  0.0
    609    592    593    611   5     0.00000     0.00000     0.00000  0.0
    609    592    593    614   5     0.00000     0.00000     0.00000  0.0
    610    592    593    611   5     0.00000     0.00000     0.00000  0.0
    610    592    593    614   5     0.00000     0.00000     0.00000  0.0
    592    593    614    615   5     0.00000    25.47638     0.00000  0.0
    592    593    614    616   5    12.53945    12.88254     0.00000  0.0
    611    593    614    615   5     0.00000    20.50160     0.00000  0.0
    611    593    614    616   5     0.00000    21.48066     0.00000  0.0
    583    594    595    580   5     0.00000    30.33400     0.00000  0.0
    583    594    595    613   5     0.00000    30.33400     0.00000  0.0
    612    594    595    580   5     0.00000    30.33400     0.00000  0.0
    612    594    595    613   5     0.00000    30.33400     0.00000  0.0
    593    614    616    617   5     6.33458     2.89951     2.76144  0.0
    593    614    616    631   5     6.33458     2.89951     2.76144  0.0
    615    614    616    617   5     0.00000     8.78640     0.00000  0.0
    615    614    616    631   5     0.00000     8.78640     0.00000  0.0
    614    616    617    618   5     0.00000    30.33400     0.00000  0.0
    614    616    617    632   5     0.00000    30.33400     0.00000  0.0
    631    616    617    618   5     0.00000    30.33400     0.00000  0.0
    631    616    617    632   5     0.00000    30.33400     0.00000  0.0
    614    616    631    630   5     0.00000    30.33400     0.00000  0.0
    614    616    631    649   5     0.00000    30.33400     0.00000  0.0
    617    616    631    630   5     0.00000    30.33400     0.00000  0.0
    617    616    631    649   5     0.00000    30.33400     0.00000  0.0
    616    617    618    619   5     0.00000    30.33400     0.00000  0.0
    616    617    618    633   5     0.00000    30.33400     0.00000  0.0
    632    617    618    619   5     0.00000    30.33400     0.00000  0.0
    632    617    618    633   5     0.00000    30.33400     0.00000  0.0
    617    618    619    620   5     0.00000    30.33400     0.00000  0.0
    617    618    619    630   5     0.00000    30.33400     0.00000  0.0
    633    618    619    620   5     0.00000    30.33400     0.00000  0.0
    633    618    619    630   5     0.00000    30.33400     0.00000  0.0
    618    619    620    621   5     0.00000     8.78640     0.00000  0.0
    618    619    620    622   5     6.33458     2.89951     2.76144  0.0
    630    619    620    621   5     0.00000     8.78640     0.00000  0.0
    630    619    620    622   5     6.33458     2.89951     2.76144  0.0
    618    619    630    631   5     0.00000    30.33400     0.00000  0.0
    618    619    630    648   5     0.00000    30.33400     0.00000  0.0
    620    619    630    631   5     0.00000    30.33400     0.00000  0.0
    620    619    630    648   5     0.00000    30.33400     0.00000  0.0
    619    620    622    623   5    12.53945    12.88254     0.00000  0.0
    619    620    622    634   5     0.00000    21.48066     0.00000  0.0
    621    620    622    623   5     0.00000    25.47638     0.00000  0.0
    621    620    622    634   5     0.00000    20.50160     0.00000  0.0
    620    622    623    624   5    -3.67774    -0.67781     0.28033  0.0
    620    622    623    635   5     0.00000     0.00000     0.00000  0.0
    620    622    623    636   5     0.00000     0.00000     0.00000  0.0
    634    622    623    624   5     0.00000     0.00000     0.00000  0.0
    634    622    623    635   5     0.00000     0.00000     0.00000  0.0
    634    622    623    636   5     0.00000     0.00000     0.00000  0.0
    622    623    624    625   5     3.67355     4.10869     2.37651  0.0
    622    623    624    637   5     0.00000     0.00000     1.25520  0.0
    622    623    624    638   5     0.00000     0.00000     1.25520  0.0
    635    623    624    625   5     0.00000     0.00000     1.25520  0.0
    635    623    624    637   5     0.00000     0.00000     1.25520  0.0
    635    623    624    638   5     0.00000     0.00000     1.25520  0.0
    636    623    624    625   5     0.00000     0.00000     1.25520  0.0
    636    623    624    637   5     0.00000     0.00000     1.25520  0.0
    636    623    624    638   5     0.00000     0.00000     1.25520  0.0
    623    624    625    626   5     4.74884    -0.63178     1.67360  0.0
    623    624    625    639   5     0.00000     0.00000     1.25520  0.0
    623    624    625    640   5     0.00000     0.00000     1.25520  0.0
    637    624    625    626   5     0.00000     0.00000     1.25520  0.0
    637    624    625    639   5     0.00000     0.00000     1.25520  0.0
    637    624    625    640   5     0.00000     0.00000     1.25520  0.0
    638    624    625    626   5     0.00000     0.00000     1.25520  0.0
    638    624    625    639   5     0.00000     0.00000     1.25520  0.0
    638    624    625    640   5     0.00000     0.00000     1.25520  0.0
    624    625    626    627   5     4.74884    -0.63178     1.67360  0.0
    624    625    626    641   5     0.00000     0.00000     1.25520  0.0
    624    625    626    642   5     0.00000     0.00000     1.25520  0.0
    639    625    626    627   5     0.00000     0.00000     1.25520  0.0
    639    625    626    641   5     0.00000     0.00000     1.25520  0.0
    639    625    626    642   5     0.00000     0.00000     1.25520  0.0
    640    625    626    627   5     0.00000     0.00000     1.25520  0.0
    640    625    626    641   5     0.00000     0.00000     1.25520  0.0
    640    625    626    642   5     0.00000     0.00000     1.25520  0.0
    625    626    627    628   5     4.74884    -0.63178     1.67360  0.0
    625    626    627    643   5     0.00000     0.00000     1.25520  0.0
    625    626    627    644   5     0.00000     0.00000     1.25520  0.0
    641    626    627    628   5     0.00000     0.00000     1.25520  0.0
    641    626    627    643   5     0.00000     0.00000     1.25520  0.0
    641    626    627    644   5     0.00000     0.00000     1.25520  0.0
    642    626    627    628   5     0.00000     0.00000     1.25520  0.0
    642    626    627    643   5     0.00000     0.00000     1.25520  0.0
    642    626    627    644   5     0.00000     0.00000     1.25520  0.0
    626    627    628    629   5     3.67355     4.10869     2.37651  0.0
    626    627    628    645   5     0.00000     0.00000     1.25520  0.0
    626    627    628    646   5     0.00000     0.00000     1.25520  0.0
    643    627    628    629   5     0.00000     0.00000     1.25520  0.0
    643    627    628    645   5     0.00000     0.00000     1.25520  0.0
    643    627    628    646   5     0.00000     0.00000     1.25520  0.0
    644    627    628    629   5     0.00000     0.00000     1.25520  0.0
    644    627    628    645   5     0.00000     0.00000     1.25520  0.0
    644    627    628    646   5     0.00000     0.00000     1.25520  0.0
    627    628    629    647   5     0.00000     0.00000     0.00000  0.0
    627    628    629    650   5    -3.67774    -0.67781     0.28033  0.0
    645    628    629    647   5     0.00000     0.00000     0.00000  0.0
    645    628    629    650   5     0.00000     0.00000     0.00000  0.0
    646    628    629    647   5     0.00000     0.00000     0.00000  0.0
    646    628    629    650   5     0.00000     0.00000     0.00000  0.0
    628    629    650    651   5     0.00000    25.47638     0.00000  0.0
    628    629    650    652   5    12.53945    12.88254     0.00000  0.0
    647    629    650    651   5     0.00000    20.50160     0.00000  0.0
    647    629    650    652   5     0.00000    21.48066     0.00000  0.0
    619    630    631    616   5     0.00000    30.33400     0.00000  0.0
    619    630    631    649   5     0.00000    30.33400     0.00000  0.0
    648    630    631    616   5     0.00000    30.33400     0.00000  0.0
    648    630    631    649   5     0.00000    30.33400     0.00000  0.0
    629    650    652    653   5     6.33458     2.89951     2.76144  0.0
    629    650    652    667   5     6.33458     2.89951     2.76144  0.0
    651    650    652    653   5     0.00000     8.78640     0.00000  0.0
    651    650    652    667   5     0.00000     8.78640     0.00000  0.0
    650    652    653    654   5     0.00000    30.33400     0.00000  0.0
    650    652    653    668   5     0.00000    30.33400     0.00000  0.0
    667    652    653    654   5     0.00000    30.33400     0.00000  0.0
    667    652    653    668   5     0.00000    30.33400     0.00000  0.0
    650    652    667    666   5     0.00000    30.33400     0.00000  0.0
    650    652    667    685   5     0.00000    30.33400     0.00000  0.0
    653    652    667    666   5     0.00000    30.33400     0.00000  0.0
    653    652    667    685   5     0.00000    30.33400     0.00000  0.0
    652    653    654    655   5     0.00000    30.33400     0.00000  0.0
    652    653    654    669   5     0.00000    30.33400     0.00000  0.0
    668    653    654    655   5     0.00000    30.33400     0.00000  0.0
    668    653    654    669   5     0.00000    30.33400     0.00000  0.0
    653    654    655    656   5     0.00000    30.33400     0.00000  0.0
    653    654    655    666   5     0.00000    30.33400     0.00000  0.0
    669    654    655    656   5     0.00000    30.33400     0.00000  0.0
    669    654    655    666   5     0.00000    30.33400     0.00000  0.0
    654    655    656    657   5     0.00000     8.78640     0.00000  0.0
    654    655    656    658   5     6.33458     2.89951     2.76144  0.0
    666    655    656    657   5     0.00000     8.78640     0.00000  0.0
    666    655    656    658   5     6.33458     2.89951     2.76144  0.0
    654    655    666    667   5     0.00000    30.33400     0.00000  0.0
    654    655    666    684   5     0.00000    30.33400     0.00000  0.0
    656    655    666    667   5     0.00000    30.33400     0.00000  0.0
    656    655    666    684   5     0.00000    30.33400     0.00000  0.0
    655    656    658    659   5    12.53945    12.88254     0.00000  0.0
    655    656    658    670   5     0.00000    21.48066     0.00000  0.0
    657    656    658    659   5     0.00000    25.47638     0.00000  0.0
    657    656    658    670   5     0.00000    20.50160     0.00000  0.0
    656    658    659    660   5    -3.67774    -0.67781     0.28033  0.0
    656    658    659    671   5     0.00000     0.00000     0.00000  0.0
    656    658    659    672   5     0.00000     0.00000     0.00000  0.0
    670    658    659    660   5     0.00000     0.00000     0.00000  0.0
    670    658    659    671   5     0.00000     0.00000     0.00000  0.0
    670    658    659    672   5     0.00000     0.00000     0.00000  0.0
    658    659    660    661   5     3.67355     4.10869     2.37651  0.0
    658    659    660    673   5     0.00000     0.00000     1.25520  0.0
    658    659    660    674   5     0.00000     0.00000     1.25520  0.0
    671    659    660    661   5     0.00000     0.00000     1.25520  0.0
    671    659    660    673   5     0.00000     0.00000     1.25520  0.0
    671    659    660    674   5     0.00000     0.00000     1.25520  0.0
    672    659    660    661   5     0.00000     0.00000     1.25520  0.0
    672    659    660    673   5     0.00000     0.00000     1.25520  0.0
    672    659    660    674   5     0.00000     0.00000     1.25520  0.0
    659    660    661    662   5     4.74884    -0.63178     1.67360  0.0
    659    660    661    675   5     0.00000     0.00000     1.25520  0.0
    659    660    661    676   5     0.00000     0.00000     1.25520  0.0
    673    660    661    662   5     0.00000     0.00000     1.25520  0.0
    673    660    661    675   5     0.00000     0.00000     1.25520  0.0
    673    660    661    676   5     0.00000     0.00000     1.25520  0.0
    674    660    661    662   5     0.00000     0.00000     1.25520  0.0
    674    660    661    675   5     0.00000     0.00000     1.25520  0.0
    674    660    661    676   5     0.00000     0.00000     1.25520  0.0
    660    661    662    663   5     4.74884    -0.63178     1.67360  0.0
    660    661    662    677   5     0.00000     0.00000     1.25520  0.0
    660    661    662    678   5     0.00000     0.00000     1.25520  0.0
    675    661    662    663   5     0.00000     0.00000     1.25520  0.0
    675    661    662    677   5     0.00000     0.00000     1.25520  0.0
    675    661    662    678   5     0.00000     0.00000     1.25520  0.0
    676    661    662    663   5     0.00000     0.00000     1.25520  0.0
    676    661    662    677   5     0.00000     0.00000     1.25520  0.0
    676    661    662    678   5     0.00000     0.00000     1.25520  0.0
    661    662    663    664   5     4.74884    -0.63178     1.67360  0.0
    661    662    663    679   5     0.00000     0.00000     1.25520  0.0
    661    662    663    680   5     0.00000     0.00000     1.25520  0.0
    677    662    663    664   5     0.00000     0.00000     1.25520  0.0
    677    662    663    679   5     0.00000     0.00000     1.25520  0.0
    677    662    663    680   5     0.00000     0.00000     1.25520  0.0
    678    662    663    664   5     0.00000     0.00000     1.25520  0.0
    678    662    663    679   5     0.00000     0.00000     1.25520  0.0
    678    662    663    680   5     0.00000     0.00000     1.25520  0.0
    662    663    664    665   5     3.67355     4.10869     2.37651  0.0
    662    663    664    681   5     0.00000     0.00000     1.25520  0.0
    662    663    664    682   5     0.00000     0.00000     1.25520  0.0
    679    663    664    665   5     0.00000     0.00000     1.25520  0.0
    679    663    664    681   5     0.00000     0.00000     1.25520  0.0
    679    663    664    682   5     0.00000     0.00000     1.25520  0.0
    680    663    664    665   5     0.00000     0.00000     1.25520  0.0
    680    663    664    681   5     0.00000     0.00000     1.25520  0.0
    680    663    664    682   5     0.00000     0.00000     1.25520  0.0
    663    664    665    683   5     0.00000     0.00000     0.00000  0.0
    663    664    665    686   5    -3.67774    -0.67781     0.28033  0.0
    681    664    665    683   5     0.00000     0.00000     0.00000  0.0
    681    664    665    686   5     0.00000     0.00000     0.00000  0.0
    682    664    665    683   5     0.00000     0.00000     0.00000  0.0
    682    664    665    686   5     0.00000     0.00000     0.00000  0.0
    664    665    686    687   5     0.00000    25.47638     0.00000  0.0
    664    665    686    688   5    12.53945    12.88254     0.00000  0.0
    683    665    686    687   5     0.00000    20.50160     0.00000  0.0
    683    665    686    688   5     0.00000    21.48066     0.00000  0.0
    655    666    667    652   5     0.00000    30.33400     0.00000  0.0
    655    666    667    685   5     0.00000    30.33400     0.00000  0.0
    684    666    667    652   5     0.00000    30.33400     0.00000  0.0
    684    666    667    685   5     0.00000    30.33400     0.00000  0.0
    665    686    688    689   5     6.33458     2.89951     2.76144  0.0
    665    686    688    703   5     6.33458     2.89951     2.76144  0.0
    687    686    688    689   5     0.00000     8.78640     0.00000  0.0
    687    686    688    703   5     0.00000     8.78640     0.00000  0.0
    686    688    689    690   5     0.00000    30.33400     0.00000  0.0
    686    688    689    704   5     0.00000    30.33400     0.00000  0.0
    703    688    689    690   5     0.00000    30.33400     0.00000  0.0
    703    688    689    704   5     0.00000    30.33400     0.00000  0.0
    686    688    703    702   5     0.00000    30.33400     0.00000  0.0
    686    688    703    721   5     0.00000    30.33400     0.00000  0.0
    689    688    703    702   5     0.00000    30.33400     0.00000  0.0
    689    688    703    721   5     0.00000    30.33400     0.00000  0.0
    688    689    690    691   5     0.00000    30.33400     0.00000  0.0
    688    689    690    705   5     0.00000    30.33400     0.00000  0.0
    704    689    690    691   5     0.00000    30.33400     0.00000  0.0
    704    689    690    705   5     0.00000    30.33400     0.00000  0.0
    689    690    691    692   5     0.00000    30.33400     0.00000  0.0
    689    690    691    702   5     0.00000    30.33400     0.00000  0.0
    705    690    691    692   5     0.00000    30.33400     0.00000  0.0
    705    690    691    702   5     0.00000    30.33400     0.00000  0.0
    690    691    692    693   5     0.00000     8.78640     0.00000  0.0
    690    691    692    694   5     6.33458     2.89951     2.76144  0.0
    702    691    692    693   5     0.00000     8.78640     0.00000  0.0
    702    691    692    694   5     6.33458     2.89951     2.76144  0.0
    690    691    702    703   5     0.00000    30.33400     0.00000  0.0
    690    691    702    720   5     0.00000    30.33400     0.00000  0.0
    692    691    702    703   5     0.00000    30.33400     0.00000  0.0
    692    691    702    720   5     0.00000    30.33400     0.00000  0.0
    691    692    694    695   5    12.53945    12.88254     0.00000  0.0
    691    692    694    706   5     0.00000    21.48066     0.00000  0.0
    693    692    694    695   5     0.00000    25.47638     0.00000  0.0
    693    692    694    706   5     0.00000    20.50160     0.00000  0.0
    692    694    695    696   5    -3.67774    -0.67781     0.28033  0.0
    692    694    695    707   5     0.00000     0.00000     0.00000  0.0
    692    694    695    708   5     0.00000     0.00000     0.00000  0.0
    706    694    695    696   5     0.00000     0.00000     0.00000  0.0
    706    694    695    707   5     0.00000     0.00000     0.00000  0.0
    706    694    695    708   5     0.00000     0.00000     0.00000  0.0
    694    695    696    697   5     3.67355     4.10869     2.37651  0.0
    694    695    696    709   5     0.00000     0.00000     1.25520  0.0
    694    695    696    710   5     0.00000     0.00000     1.25520  0.0
    707    695    696    697   5     0.00000     0.00000     1.25520  0.0
    707    695    696    709   5     0.00000     0.00000     1.25520  0.0
    707    695    696    710   5     0.00000     0.00000     1.25520  0.0
    708    695    696    697   5     0.00000     0.00000     1.25520  0.0
    708    695    696    709   5     0.00000     0.00000     1.25520  0.0
    708    695    696    710   5     0.00000     0.00000     1.25520  0.0
    695    696    697    698   5     4.74884    -0.63178     1.67360  0.0
    695    696    697    711   5     0.00000     0.00000     1.25520  0.0
    695    696    697    712   5     0.00000     0.00000     1.25520  0.0
    709    696    697    698   5     0.00000     0.00000     1.25520  0.0
    709    696    697    711   5     0.00000     0.00000     1.25520  0.0
    709    696    697    712   5     0.00000     0.00000     1.25520  0.0
    710    696    697    698   5     0.00000     0.00000     1.25520  0.0
    710    696    697    711   5     0.00000     0.00000     1.25520  0.0
    710    696    697    712   5     0.00000     0.00000     1.25520  0.0
    696    697    698    699   5     4.74884    -0.63178     1.67360  0.0
    696    697    698    713   5     0.00000     0.00000     1.25520  0.0
    696    697    698    714   5     0.00000     0.00000     1.25520  0.0
    711    697    698    699   5     0.00000     0.00000     1.25520  0.0
    711    697    698    713   5     0.00000     0.00000     1.25520  0.0
    711    697    698    714   5     0.00000     0.00000     1.25520  0.0
    712    697    698    699   5     0.00000     0.00000     1.25520  0.0
    712    697    698    713   5     0.00000     0.00000     1.25520  0.0
    712    697    698    714   5     0.00000     0.00000     1.25520  0.0
    697    698    699    700   5     4.74884    -0.63178     1.67360  0.0
    697    698    699    715   5     0.00000     0.00000     1.25520  0.0
    697    698    699    716   5     0.00000     0.00000     1.25520  0.0
    713    698    699    700   5     0.00000     0.00000     1.25520  0.0
    713    698    699    715   5     0.00000     0.00000     1.25520  0.0
    713    698    699    716   5     0.00000     0.00000     1.25520  0.0
    714    698    699    700   5     0.00000     0.00000     1.25520  0.0
    714    698    699    715   5     0.00000     0.00000     1.25520  0.0
    714    698    699    716   5     0.00000     0.00000     1.25520  0.0
    698    699    700    701   5    12.83651    -0.83262     0.47698  0.0
    698    699    700    717   5     0.00000     0.00000     1.25520  0.0
    698    699    700    718   5     0.00000     0.00000     1.25520  0.0
    715    699    700    701   5     0.00000     0.00000     1.25520  0.0
    715    699    700    717   5     0.00000     0.00000     1.25520  0.0
    715    699    700    718   5     0.00000     0.00000     1.25520  0.0
    716    699    700    701   5     0.00000     0.00000     1.25520  0.0
    716    699    700    717   5     0.00000     0.00000     1.25520  0.0
    716    699    700    718   5     0.00000     0.00000     1.25520  0.0
    699    700    701    719   5    -0.49790     0.74057     0.98324  0.0
    699    700    701    722   5    -0.49790     0.74057     0.98324  0.0
    717    700    701    719   5     0.00000     0.00000     1.67360  0.0
    717    700    701    722   5     0.00000     0.00000     1.67360  0.0
    718    700    701    719   5     0.00000     0.00000     1.67360  0.0
    718    700    701    722   5     0.00000     0.00000     1.67360  0.0
    691    702    703    688   5     0.00000    30.33400     0.00000  0.0
    691    702    703    721   5     0.00000    30.33400     0.00000  0.0
    720    702    703    688   5     0.00000    30.33400     0.00000  0.0
    720    702    703    721   5     0.00000    30.33400     0.00000  0.0

[ dihedrals ]
; Improper dihedrals
; h   i   j   k   funct
      2      3      1     37   5     0.00000    87.86400     0.00000  0.0
      1      4      3     18   5     0.00000    33.47200     0.00000  0.0
      3      5      4     19   5     0.00000     9.20480     0.00000  0.0
      4      6      5     20   5     0.00000     9.20480     0.00000  0.0
      5      7      6     17   5     0.00000    33.47200     0.00000  0.0
      6      8      7      9   5     0.00000    87.86400     0.00000  0.0
      7     10      9     21   5     0.00000     8.36800     0.00000  0.0
     15     34     16     38   5     0.00000     8.36800     0.00000  0.0
      6     18     17     35   5     0.00000     9.20480     0.00000  0.0
      3     17     18     36   5     0.00000     9.20480     0.00000  0.0
     16     39     38     40   5     0.00000    87.86400     0.00000  0.0
     38     41     40     55   5     0.00000    33.47200     0.00000  0.0
     40     42     41     56   5     0.00000     9.20480     0.00000  0.0
     41     43     42     57   5     0.00000     9.20480     0.00000  0.0
     42     44     43     54   5     0.00000    33.47200     0.00000  0.0
     43     45     44     46   5     0.00000    87.86400     0.00000  0.0
     44     47     46     58   5     0.00000     8.36800     0.00000  0.0
     52     71     53     74   5     0.00000     8.36800     0.00000  0.0
     43     55     54     72   5     0.00000     9.20480     0.00000  0.0
     40     54     55     73   5     0.00000     9.20480     0.00000  0.0
     53     75     74     76   5     0.00000    87.86400     0.00000  0.0
     74     77     76     91   5     0.00000    33.47200     0.00000  0.0
     76     78     77     92   5     0.00000     9.20480     0.00000  0.0
     77     79     78     93   5     0.00000     9.20480     0.00000  0.0
     78     80     79     90   5     0.00000    33.47200     0.00000  0.0
     79     81     80     82   5     0.00000    87.86400     0.00000  0.0
     80     83     82     94   5     0.00000     8.36800     0.00000  0.0
     88    107     89    110   5     0.00000     8.36800     0.00000  0.0
     79     91     90    108   5     0.00000     9.20480     0.00000  0.0
     76     90     91    109   5     0.00000     9.20480     0.00000  0.0
     89    111    110    112   5     0.00000    87.86400     0.00000  0.0
    110    113    112    127   5     0.00000    33.47200     0.00000  0.0
    112    114    113    128   5     0.00000     9.20480     0.00000  0.0
    113    115    114    129   5     0.00000     9.20480     0.00000  0.0
    114    116    115    126   5     0.00000    33.47200     0.00000  0.0
    115    117    116    118   5     0.00000    87.86400     0.00000  0.0
    116    119    118    130   5     0.00000     8.36800     0.00000  0.0
    124    143    125    146   5     0.00000     8.36800     0.00000  0.0
    115    127    126    144   5     0.00000     9.20480     0.00000  0.0
    112    126    127    145   5     0.00000     9.20480     0.00000  0.0
    125    147    146    148   5     0.00000    87.86400     0.00000  0.0
    146    149    148    163   5     0.00000    33.47200     0.00000  0.0
    148    150    149    164   5     0.00000     9.20480     0.00000  0.0
    149    151    150    165   5     0.00000     9.20480     0.00000  0.0
    150    152    151    162   5     0.00000    33.47200     0.00000  0.0
    151    153    152    154   5     0.00000    87.86400     0.00000  0.0
    152    155    154    166   5     0.00000     8.36800     0.00000  0.0
    160    179    161    182   5     0.00000     8.36800     0.00000  0.0
    151    163    162    180   5     0.00000     9.20480     0.00000  0.0
    148    162    163    181   5     0.00000     9.20480     0.00000  0.0
    161    183    182    184   5     0.00000    87.86400     0.00000  0.0
    182    185    184    199   5     0.00000    33.47200     0.00000  0.0
    184    186    185    200   5     0.00000     9.20480     0.00000  0.0
    185    187    186    201   5     0.00000     9.20480     0.00000  0.0
    186    188    187    198   5     0.00000    33.47200     0.00000  0.0
    187    189    188    190   5     0.00000    87.86400     0.00000  0.0
    188    191    190    202   5     0.00000     8.36800     0.00000  0.0
    196    215    197    218   5     0.00000     8.36800     0.00000  0.0
    187    199    198    216   5     0.00000     9.20480     0.00000  0.0
    184    198    199    217   5     0.00000     9.20480     0.00000  0.0
    197    219    218    220   5     0.00000    87.86400     0.00000  0.0
    218    221    220    235   5     0.00000    33.47200     0.00000  0.0
    220    222    221    236   5     0.00000     9.20480     0.00000  0.0
    221    223    222    237   5     0.00000     9.20480     0.00000  0.0
    222    224    223    234   5     0.00000    33.47200     0.00000  0.0
    223    225    224    226   5     0.00000    87.86400     0.00000  0.0
    224    227    226    238   5     0.00000     8.36800     0.00000  0.0
    232    251    233    254   5     0.00000     8.36800     0.00000  0.0
    223    235    234    252   5     0.00000     9.20480     0.00000  0.0
    220    234    235    253   5     0.00000     9.20480     0.00000  0.0
    233    255    254    256   5     0.00000    87.86400     0.00000  0.0
    254    257    256    271   5     0.00000    33.47200     0.00000  0.0
    256    258    257    272   5     0.00000     9.20480     0.00000  0.0
    257    259    258    273   5     0.00000     9.20480     0.00000  0.0
    258    260    259    270   5     0.00000    33.47200     0.00000  0.0
    259    261    260    262   5     0.00000    87.86400     0.00000  0.0
    260    263    262    274   5     0.00000     8.36800     0.00000  0.0
    268    287    269    290   5     0.00000     8.36800     0.00000  0.0
    259    271    270    288   5     0.00000     9.20480     0.00000  0.0
    256    270    271    289   5     0.00000     9.20480     0.00000  0.0
    269    291    290    292   5     0.00000    87.86400     0.00000  0.0
    290    293    292    307   5     0.00000    33.47200     0.00000  0.0
    292    294    293    308   5     0.00000     9.20480     0.00000  0.0
    293    295    294    309   5     0.00000     9.20480     0.00000  0.0
    294    296    295    306   5     0.00000    33.47200     0.00000  0.0
    295    297    296    298   5     0.00000    87.86400     0.00000  0.0
    296    299    298    310   5     0.00000     8.36800     0.00000  0.0
    304    323    305    326   5     0.00000     8.36800     0.00000  0.0
    295    307    306    324   5     0.00000     9.20480     0.00000  0.0
    292    306    307    325   5     0.00000     9.20480     0.00000  0.0
    305    327    326    328   5     0.00000    87.86400     0.00000  0.0
    326    329    328    343   5     0.00000    33.47200     0.00000  0.0
    328    330    329    344   5     0.00000     9.20480     0.00000  0.0
    329    331    330    345   5     0.00000     9.20480     0.00000  0.0
    330    332    331    342   5     0.00000    33.47200     0.00000  0.0
    331    333    332    334   5     0.00000    87.86400     0.00000  0.0
    332    335    334    346   5     0.00000     8.36800     0.00000  0.0
    340    359    341    362   5     0.00000     8.36800     0.00000  0.0
    331    343    342    360   5     0.00000     9.20480     0.00000  0.0
    328    342    343    361   5     0.00000     9.20480     0.00000  0.0
    341    363    362    364   5     0.00000    87.86400     0.00000  0.0
    362    365    364    379   5     0.00000    33.47200     0.00000  0.0
    364    366    365    380   5     0.00000     9.20480     0.00000  0.0
    365    367    366    381   5     0.00000     9.20480     0.00000  0.0
    366    368    367    378   5     0.00000    33.47200     0.00000  0.0
    367    369    368    370   5     0.00000    87.86400     0.00000  0.0
    368    371    370    382   5     0.00000     8.36800     0.00000  0.0
    376    395    377    398   5     0.00000     8.36800     0.00000  0.0
    367    379    378    396   5     0.00000     9.20480     0.00000  0.0
    364    378    379    397   5     0.00000     9.20480     0.00000  0.0
    377    399    398    400   5     0.00000    87.86400     0.00000  0.0
    398    401    400    415   5     0.00000    33.47200     0.00000  0.0
    400    402    401    416   5     0.00000     9.20480     0.00000  0.0
    401    403    402    417   5     0.00000     9.20480     0.00000  0.0
    402    404    403    414   5     0.00000    33.47200     0.00000  0.0
    403    405    404    406   5     0.00000    87.86400     0.00000  0.0
    404    407    406    418   5     0.00000     8.36800     0.00000  0.0
    412    431    413    434   5     0.00000     8.36800     0.00000  0.0
    403    415    414    432   5     0.00000     9.20480     0.00000  0.0
    400    414    415    433   5     0.00000     9.20480     0.00000  0.0
    413    435    434    436   5     0.00000    87.86400     0.00000  0.0
    434    437    436    451   5     0.00000    33.47200     0.00000  0.0
    436    438    437    452   5     0.00000     9.20480     0.00000  0.0
    437    439    438    453   5     0.00000     9.20480     0.00000  0.0
    438    440    439    450   5     0.00000    33.47200     0.00000  0.0
    439    441    440    442   5     0.00000    87.86400     0.00000  0.0
    440    443    442    454   5     0.00000     8.36800     0.00000  0.0
    448    467    449    470   5     0.00000     8.36800     0.00000  0.0
    439    451    450    468   5     0.00000     9.20480     0.00000  0.0
    436    450    451    469   5     0.00000     9.20480     0.00000  0.0
    449    471    470    472   5     0.00000    87.86400     0.00000  0.0
    470    473    472    487   5     0.00000    33.47200     0.00000  0.0
    472    474    473    488   5     0.00000     9.20480     0.00000  0.0
    473    475    474    489   5     0.00000     9.20480     0.00000  0.0
    474    476    475    486   5     0.00000    33.47200     0.00000  0.0
    475    477    476    478   5     0.00000    87.86400     0.00000  0.0
    476    479    478    490   5     0.00000     8.36800     0.00000  0.0
    484    503    485    506   5     0.00000     8.36800     0.00000  0.0
    475    487    486    504   5     0.00000     9.20480     0.00000  0.0
    472    486    487    505   5     0.00000     9.20480     0.00000  0.0
    485    507    506    508   5     0.00000    87.86400     0.00000  0.0
    506    509    508    523   5     0.00000    33.47200     0.00000  0.0
    508    510    509    524   5     0.00000     9.20480     0.00000  0.0
    509    511    510    525   5     0.00000     9.20480     0.00000  0.0
    510    512    511    522   5     0.00000    33.47200     0.00000  0.0
    511    513    512    514   5     0.00000    87.86400     0.00000  0.0
    512    515    514    526   5     0.00000     8.36800     0.00000  0.0
    520    539    521    542   5     0.00000     8.36800     0.00000  0.0
    511    523    522    540   5     0.00000     9.20480     0.00000  0.0
    508    522    523    541   5     0.00000     9.20480     0.00000  0.0
    521    543    542    544   5     0.00000    87.86400     0.00000  0.0
    542    545    544    559   5     0.00000    33.47200     0.00000  0.0
    544    546    545    560   5     0.00000     9.20480     0.00000  0.0
    545    547    546    561   5     0.00000     9.20480     0.00000  0.0
    546    548    547    558   5     0.00000    33.47200     0.00000  0.0
    547    549    548    550   5     0.00000    87.86400     0.00000  0.0
    548    551    550    562   5     0.00000     8.36800     0.00000  0.0
    556    575    557    578   5     0.00000     8.36800     0.00000  0.0
    547    559    558    576   5     0.00000     9.20480     0.00000  0.0
    544    558    559    577   5     0.00000     9.20480     0.00000  0.0
    557    579    578    580   5     0.00000    87.86400     0.00000  0.0
    578    581    580    595   5     0.00000    33.47200     0.00000  0.0
    580    582    581    596   5     0.00000     9.20480     0.00000  0.0
    581    583    582    597   5     0.00000     9.20480     0.00000  0.0
    582    584    583    594   5     0.00000    33.47200     0.00000  0.0
    583    585    584    586   5     0.00000    87.86400     0.00000  0.0
    584    587    586    598   5     0.00000     8.36800     0.00000  0.0
    592    611    593    614   5     0.00000     8.36800     0.00000  0.0
    583    595    594    612   5     0.00000     9.20480     0.00000  0.0
    580    594    595    613   5     0.00000     9.20480     0.00000  0.0
    593    615    614    616   5     0.00000    87.86400     0.00000  0.0
    614    617    616    631   5     0.00000    33.47200     0.00000  0.0
    616    618    617    632   5     0.00000     9.20480     0.00000  0.0
    617    619    618    633   5     0.00000     9.20480     0.00000  0.0
    618    620    619    630   5     0.00000    33.47200     0.00000  0.0
    619    621    620    622   5     0.00000    87.86400     0.00000  0.0
    620    623    622    634   5     0.00000     8.36800     0.00000  0.0
    628    647    629    650   5     0.00000     8.36800     0.00000  0.0
    619    631    630    648   5     0.00000     9.20480     0.00000  0.0
    616    630    631    649   5     0.00000     9.20480     0.00000  0.0
    629    651    650    652   5     0.00000    87.86400     0.00000  0.0
    650    653    652    667   5     0.00000    33.47200     0.00000  0.0
    652    654    653    668   5     0.00000     9.20480     0.00000  0.0
    653    655    654    669   5     0.00000     9.20480     0.00000  0.0
    654    656    655    666   5     0.00000    33.47200     0.00000  0.0
    655    657    656    658   5     0.00000    87.86400     0.00000  0.0
    656    659    658    670   5     0.00000     8.36800     0.00000  0.0
    664    683    665    686   5     0.00000     8.36800     0.00000  0.0
    655    667    666    684   5     0.00000     9.20480     0.00000  0.0
    652    666    667    685   5     0.00000     9.20480     0.00000  0.0
    665    687    686    688   5     0.00000    87.86400     0.00000  0.0
    686    689    688    703   5     0.00000    33.47200     0.00000  0.0
    688    690    689    704   5     0.00000     9.20480     0.00000  0.0
    689    691    690    705   5     0.00000     9.20480     0.00000  0.0
    690    692    691    702   5     0.00000    33.47200     0.00000  0.0
    691    693    692    694   5     0.00000    87.86400     0.00000  0.0
    692    695    694    706   5     0.00000     8.36800     0.00000  0.0
    691    703    702    720   5     0.00000     9.20480     0.00000  0.0
    688    702    703    721   5     0.00000     9.20480     0.00000  0.0
