Control file title. For DL_FIELD 4.10
49818
    1MOL     C1    1   3.628   2.272   3.721  0.5206  0.0056  0.1903
    1MOL     O2    2   3.621   2.172   3.649 -0.4867 -0.0661  0.3316
    1MOL     C3    3   3.594   2.277   3.864  0.7631  0.4878  0.4189
    1MOL     C4    4   3.558   2.161   3.935  0.3127 -0.1054  0.4225
    1MOL     C5    5   3.537   2.162   4.072  1.7888  0.4634  0.2901
    1MOL     C6    6   3.540   2.285   4.142 -0.3619 -0.5688 -0.2212
    1MOL     C7    7   3.509   2.289   4.289 -0.5330  0.0658  0.1916
    1MOL     O8    8   3.582   2.359   4.358 -0.2077 -0.5147 -0.0391
    1MOL     N9    9   3.404   2.232   4.326 -0.4583  0.3095 -0.3023
    1MOL    C10   10   3.377   2.198   4.468  1.2123  0.2353 -0.3152
    1MOL    C11   11   3.438   2.063   4.498 -0.0724 -0.0534 -0.8775
    1MOL    C12   12   3.400   2.002   4.634 -0.0551 -0.2352  0.2783
    1MOL    C13   13   3.464   1.865   4.665 -0.5051 -0.0359  0.3983
    1MOL    C14   14   3.438   1.812   4.806  0.0311 -0.3992  0.1638
    1MOL    C15   15   3.485   1.672   4.832  0.0084  0.1474  0.3334
    1MOL    N16   16   3.421   1.582   4.745 -0.0854 -0.3244  0.2788
    1MOL    C17   17   3.558   2.405   4.066 -0.2944 -0.1608  0.2323
    1MOL    C18   18   3.585   2.401   3.926 -0.1993  0.4525  0.4705
    1MOL    H19   19   3.560   2.068   3.879 -2.4587  0.6497 -1.0262
    1MOL    H20   20   3.502   2.071   4.118 -0.8526  0.3945 -1.7614
    1MOL    H21   21   3.349   2.193   4.250 -0.1110  0.0492 -0.4182
    1MOL    H22   22   3.409   2.274   4.539  0.0128  2.4923 -2.0964
    1MOL    H23   23   3.269   2.194   4.475  1.2849 -1.5833  0.0307
    1MOL    H24   24   3.544   2.082   4.518 -0.2137 -0.5810  0.3808
    1MOL    H25   25   3.414   1.994   4.417  2.6196  0.8995 -2.5979
    1MOL    H26   26   3.420   2.080   4.708  0.2697  0.4095 -0.4895
    1MOL    H27   27   3.295   1.991   4.609 -0.4473 -0.3112  1.8658
    1MOL    H28   28   3.573   1.873   4.658 -0.6747  1.3800 -0.9974
    1MOL    H29   29   3.445   1.808   4.573  2.7257  0.5104 -0.7085
    1MOL    H30   30   3.335   1.829   4.838 -0.1817 -0.4205 -0.4978
    1MOL    H31   31   3.488   1.873   4.881  0.2297  0.0665 -0.3479
    1MOL    H32   32   3.592   1.667   4.815 -0.0606  2.2209 -0.9259
    1MOL    H33   33   3.469   1.656   4.939 -1.5477  3.1221  0.6151
    1MOL    H34   34   3.424   1.606   4.647  1.2573  1.4208  0.7278
    1MOL    H35   35   3.544   2.499   4.117 -1.1035  0.0904 -0.4455
    1MOL    H36   36   3.605   2.492   3.873  1.4514 -1.1644 -1.7910
    1MOL    H37   37   3.648   2.366   3.669  2.1101 -0.7281 -0.5699
    1MOL    C38   38   3.376   1.461   4.772  0.0468 -0.9063 -0.7901
    1MOL    O39   39   3.360   1.414   4.883  0.7050  0.2466  0.0984
    1MOL    C40   40   3.339   1.372   4.653  0.1748 -0.0776  0.8341
    1MOL    C41   41   3.294   1.428   4.536  0.4056  0.6050  1.3806
    1MOL    C42   42   3.279   1.355   4.418 -0.0978  0.2848  0.0437
    1MOL    C43   43   3.309   1.217   4.413  0.3093  0.4843 -0.1507
    1MOL    C44   44   3.281   1.127   4.296 -0.1671  0.2008  0.8241
    1MOL    O45   45   3.180   1.139   4.231 -0.3260 -0.7441  0.2548
    1MOL    N46   46   3.381   1.045   4.253  0.1299  0.4273  0.0953
    1MOL    C47   47   3.358   0.938   4.153 -0.5311  0.3899  0.8275
    1MOL    C48   48   3.491   0.900   4.083  0.0821  0.4841 -0.9098
    1MOL    C49   49   3.480   0.782   3.984 -0.0055  0.5646 -0.2484
    1MOL    C50   50   3.380   0.809   3.873 -0.1660 -0.1422  0.8676
    1MOL    C51   51   3.383   0.943   3.802  0.2850 -0.3406 -0.0968
    1MOL    C52   52   3.504   0.958   3.710  0.9793 -0.0308 -0.2392
    1MOL    N53   53   3.503   1.088   3.654  0.2120  0.5888 -0.6304
    1MOL    C54   54   3.360   1.161   4.529 -0.4667  0.1534  0.8287
    1MOL    C55   55   3.380   1.236   4.649  0.2336  0.3521 -0.0116
    1MOL    H56   56   3.279   1.535   4.528  2.2847  0.7861 -0.2687
    1MOL    H57   57   3.247   1.400   4.325  2.1042 -1.3216 -1.5288
    1MOL    H58   58   3.469   1.046   4.304  0.7355  0.3257 -0.9258
    1MOL    H59   59   3.298   0.857   4.194  2.6504 -1.3607  2.2901
    1MOL    H60   60   3.299   0.989   4.077  0.2787  0.1275  0.0258
    1MOL    H61   61   3.564   0.868   4.158 -1.1265 -1.8580 -0.7129
    1MOL    H62   62   3.545   0.986   4.044 -1.1667  1.6396 -0.1350
    1MOL    H63   63   3.579   0.769   3.941  0.7369  0.0473  1.5852
    1MOL    H64   64   3.451   0.691   4.036  1.7258  1.3091  2.1050
    1MOL    H65   65   3.279   0.797   3.913  1.0648 -1.6436  3.6594
    1MOL    H66   66   3.381   0.722   3.808  0.2352 -0.8424  1.8173
    1MOL    H67   67   3.372   1.027   3.870 -1.6033  1.8148 -2.9726
    1MOL    H68   68   3.295   0.961   3.740 -1.1737  0.5581  2.1666
    1MOL    H69   69   3.596   0.949   3.767  0.7010  0.9219  0.3743
    1MOL    H70   70   3.492   0.882   3.633 -1.4492  1.3549 -1.2941
    1MOL    H71   71   3.561   1.154   3.703  1.5252 -1.7228  1.0308
    1MOL    H72   72   3.383   1.055   4.524  1.4711  0.5502  0.5774
    1MOL    H73   73   3.431   1.181   4.726 -2.9138  0.4871  2.2743
    1MOL    C74   74   3.421   1.145   3.567  0.2966 -0.9988  0.1556
    1MOL    O75   75   3.320   1.089   3.513 -1.0596  0.1614 -0.6485
    1MOL    C76   76   3.454   1.292   3.539 -0.3238  0.7876 -0.1021
    1MOL    C77   77   3.353   1.389   3.540 -0.0420  0.0594  0.4171
    1MOL    C78   78   3.387   1.518   3.507 -0.2150 -0.4398  0.1213
    1MOL    C79   79   3.516   1.560   3.468  0.6009 -0.2582 -0.0859
    1MOL    C80   80   3.546   1.700   3.428  0.3911 -0.0605 -0.2056
    1MOL    O81   81   3.658   1.748   3.436  0.0553  0.5235  0.1218
    1MOL    N82   82   3.440   1.765   3.391  0.5877 -0.3380 -0.0987
    1MOL    C83   83   3.428   1.909   3.369 -0.0534 -0.0792 -0.2754
    1MOL    C84   84   3.303   1.968   3.454 -0.0726  0.2586  0.1747
    1MOL    C85   85   3.314   1.931   3.603 -0.7231  0.4290  0.1567
    1MOL    C86   86   3.219   2.001   3.692  0.2382 -0.6386 -0.7482
    1MOL    C87   87   3.203   1.942   3.838  0.1516  0.2133 -0.2836
    1MOL    C88   88   3.088   2.019   3.903  0.3199 -0.2729 -0.2049
    1MOL    N89   89   3.064   1.971   4.039  0.2253 -0.2753 -0.4967
    1MOL    C90   90   3.621   1.465   3.475  0.4856  0.6549  0.1216
    1MOL    C91   91   3.587   1.331   3.508 -0.0059 -0.5367  0.5121
    1MOL    H92   92   3.252   1.361   3.566 -0.0490 -0.2876  0.0262
    1MOL    H93   93   3.304   1.588   3.508  0.4031  0.3246 -1.0248
    1MOL    H94   94   3.366   1.699   3.373  0.7119 -1.1828  2.2929
    1MOL    H95   95   3.519   1.955   3.408 -1.3647  1.0814  1.4900
    1MOL    H96   96   3.415   1.928   3.262 -2.9112 -0.6655 -0.0673
    1MOL    H97   97   3.216   1.913   3.422  1.1036 -0.0908 -2.5673
    1MOL    H98   98   3.283   2.074   3.440  1.8356  0.5972 -0.2296
    1MOL    H99   99   3.298   1.825   3.623  0.8898  0.4206  1.5180
    1MOL   H100  100   3.417   1.945   3.637 -0.4983  0.0635 -0.3620
    1MOL   H101  101   3.126   2.013   3.636  1.0280 -1.3161 -2.2419
    1MOL   H102  102   3.253   2.104   3.695 -2.8145  0.3846  0.7982
    1MOL   H103  103   3.291   1.963   3.900 -0.1613  0.4736  0.0750
    1MOL   H104  104   3.182   1.837   3.856  0.8128  0.3556  1.5052
    1MOL   H105  105   3.106   2.125   3.883  0.8241 -0.4295 -0.5901
    1MOL   H106  106   3.005   1.994   3.838 -0.4821 -0.3422  0.8386
    1MOL   H107  107   3.001   1.892   4.050 -1.3770  1.0101 -0.2487
    1MOL   H108  108   3.725   1.485   3.454 -0.0131  1.8092 -1.2848
    1MOL   H109  109   3.663   1.254   3.503 -0.7848 -1.2947  0.0927
    1MOL   C110  110   3.134   2.016   4.141 -0.0875  0.4842 -0.4395
    1MOL   O111  111   3.208   2.113   4.136 -0.1252  0.3094  0.3269
    1MOL   C112  112   3.107   1.949   4.273 -0.1399  0.3897 -0.5635
    1MOL   C113  113   3.072   2.020   4.391  0.4021  0.0084  0.4280
    1MOL   C114  114   3.065   1.958   4.515 -0.1659 -0.1604 -0.6112
    1MOL   C115  115   3.063   1.816   4.525  0.2326 -0.4206  0.0788
    1MOL   C116  116   3.044   1.741   4.651 -0.3962  0.5712 -0.7749
    1MOL   O117  117   3.057   1.616   4.646  0.2138 -0.8831  0.3008
    1MOL   N118  118   3.017   1.806   4.768  0.4142  0.1863  0.0950
    1MOL   C119  119   2.980   1.733   4.891  0.1334 -0.4113 -0.2462
    1MOL   C120  120   3.110   1.699   4.966 -0.2591  0.1813 -0.6416
    1MOL   C121  121   3.089   1.644   5.106 -1.1727 -0.1403  0.1800
    1MOL   C122  122   3.207   1.578   5.175  0.3069 -0.1759 -0.1971
    1MOL   C123  123   3.323   1.672   5.224 -0.1639  0.4153 -0.1254
    1MOL   C124  124   3.286   1.743   5.347 -0.6314  0.0722 -0.1696
    1MOL   N125  125   3.200   1.852   5.325 -0.0441 -0.5849  0.0992
    1MOL   C126  126   3.081   1.748   4.400 -0.7767  0.7135 -0.2495
    1MOL   C127  127   3.112   1.810   4.282 -0.3568  0.1842 -0.5231
    1MOL   H128  128   3.063   2.128   4.394  1.0529  0.0805 -0.1099
    1MOL   H129  129   3.045   2.025   4.597 -1.3661  1.1560 -1.9566
    1MOL   H130  130   3.006   1.907   4.766 -1.2062  0.0178 -0.0004
    1MOL   H131  131   2.918   1.806   4.943  0.2132 -1.5188  1.4457
    1MOL   H132  132   2.912   1.650   4.875  1.8027 -2.0285  0.8287
    1MOL   H133  133   3.180   1.783   4.977 -0.2214  0.0284  0.3631
    1MOL   H134  134   3.153   1.629   4.895 -0.0316 -0.3557  0.0206
    1MOL   H135  135   3.043   1.719   5.171  0.7137 -2.3165  4.2476
    1MOL   H136  136   3.012   1.569   5.088 -1.0641 -0.6505  1.7341
    1MOL   H137  137   3.256   1.514   5.102 -1.7523  0.7953 -2.4709
    1MOL   H138  138   3.172   1.513   5.255 -1.5215 -0.7014 -1.4068
    1MOL   H139  139   3.368   1.731   5.144  1.1770 -0.0129  0.3011
    1MOL   H140  140   3.408   1.609   5.252 -0.3496 -0.4529 -1.4258
    1MOL   H141  141   3.242   1.672   5.417  1.2850 -0.9017  0.0812
    1MOL   H142  142   3.375   1.776   5.401 -1.4402  0.9129  0.6865
    1MOL   H143  143   3.134   1.843   5.249 -0.1434  1.0730 -0.0386
    1MOL   H144  144   3.088   1.641   4.403  0.7581  0.8451  1.4024
    1MOL   H145  145   3.143   1.748   4.200  0.2663 -1.8370  1.1855
    1MOL   C146  146   3.220   1.976   5.368 -0.3482 -0.9127  0.0500
    1MOL   O147  147   3.314   2.012   5.442 -0.9310 -0.7988 -0.5929
    1MOL   C148  148   3.136   2.087   5.305  0.7497 -0.3032  0.4441
    1MOL   C149  149   3.046   2.056   5.203  0.2745  0.6208 -0.3086
    1MOL   C150  150   2.975   2.164   5.142 -0.2098 -0.1258 -0.0146
    1MOL   C151  151   2.983   2.296   5.188  0.6734 -0.1654 -0.3614
    1MOL   C152  152   2.914   2.408   5.122  0.0414 -0.0977  0.2864
    1MOL   O153  153   2.806   2.461   5.151  0.1918 -0.4935  0.2943
    1MOL   N154  154   2.992   2.464   5.030  0.3852 -0.0707  0.0036
    1MOL   C155  155   2.962   2.590   4.952 -0.3766  0.0193  0.5355
    1MOL   C156  156   3.034   2.704   5.022  0.4449 -0.3719 -0.3155
    1MOL   C157  157   3.179   2.680   5.039 -0.5560  0.5971  0.1588
    1MOL   C158  158   3.257   2.792   5.105  0.3795 -0.0349 -0.2911
    1MOL   C159  159   3.397   2.748   5.164  0.8796  0.6218 -0.1597
    1MOL   C160  160   3.465   2.854   5.243  0.1754  0.7162 -0.4595
    1MOL   N161  161   3.552   2.790   5.343 -0.5188 -0.0339  0.4642
    1MOL   C162  162   3.060   2.313   5.303  0.3322  0.4194  0.5920
    1MOL   C163  163   3.135   2.214   5.368 -0.2372 -0.4330 -0.1494
    1MOL   H164  164   3.025   1.955   5.170 -1.7942  0.7195  0.6649
    1MOL   H165  165   2.898   2.138   5.071  0.5626 -1.8908 -0.2534
    1MOL   H166  166   3.083   2.422   5.019  0.1729 -0.6956  0.5903
    1MOL   H167  167   2.991   2.586   4.847 -1.6124 -2.0808  0.2295
    1MOL   H168  168   2.855   2.609   4.960 -0.5366 -0.8536  0.5592
    1MOL   H169  169   2.985   2.723   5.118 -0.5619  1.6357 -1.1968
    1MOL   H170  170   3.008   2.796   4.969 -0.8243 -0.1559  0.6555
    1MOL   H171  171   3.198   2.598   5.109 -0.2572  2.5748  2.4310
    1MOL   H172  172   3.207   2.660   4.936 -3.6578  0.1884 -0.6687
    1MOL   H173  173   3.197   2.829   5.187  0.3327 -0.4066 -0.1601
    1MOL   H174  174   3.282   2.877   5.042 -0.2799  1.5237  1.5193
    1MOL   H175  175   3.454   2.703   5.083 -0.2422 -2.0483  0.4572
    1MOL   H176  176   3.380   2.665   5.232 -1.1641  0.3970 -0.8915
    1MOL   H177  177   3.512   2.929   5.179  1.3278 -0.2591 -0.7612
    1MOL   H178  178   3.390   2.896   5.310  0.3605 -1.5078  1.1922
    1MOL   H179  179   3.525   2.700   5.380  0.1458  0.5581  2.4450
    1MOL   H180  180   3.056   2.413   5.343 -2.0983 -0.7068  3.3537
    1MOL   H181  181   3.192   2.249   5.453  0.3999  1.5789 -1.3532
    1MOL   C182  182   3.656   2.854   5.403 -0.5766  0.5416  0.0984
    1MOL   O183  183   3.690   2.967   5.381 -0.5922 -0.5693  0.1172
    1MOL   C184  184   3.719   2.774   5.513 -0.2808 -1.0837  0.5917
    1MOL   C185  185   3.783   2.844   5.621  0.7971  0.0818 -0.1664
    1MOL   C186  186   3.852   2.767   5.714  0.0176  0.1138  0.2120
    1MOL   C187  187   3.867   2.625   5.696  0.5673  0.0570  0.1439
    1MOL   C188  188   3.961   2.550   5.780 -0.2128  0.5224 -0.1068
    1MOL   O189  189   4.030   2.606   5.862  0.4355  0.1875  0.0664
    1MOL   N190  190   3.959   2.415   5.780 -0.1669  0.1180 -0.1293
    1MOL   C191  191   4.009   2.326   5.890  0.2990 -0.4416 -0.1859
    1MOL   C192  192   4.152   2.285   5.871 -0.8139 -0.1900  0.0528
    1MOL   C193  193   4.214   2.223   5.996  0.1609 -0.0909  0.2759
    1MOL   C194  194   4.360   2.188   5.976 -0.4445 -0.1337 -0.0024
    1MOL   C195  195   4.421   2.136   6.107 -0.4322 -0.7711 -0.0084
    1MOL   C196  196   4.551   2.055   6.099  0.5371  0.1255  0.1471
    1MOL   N197  197   4.576   1.970   6.215  0.3672  0.1172 -0.7007
    1MOL   C198  198   3.810   2.558   5.583  0.3001 -0.6385  0.1425
    1MOL   C199  199   3.732   2.637   5.491 -0.0384  0.1238 -0.0043
    1MOL   H200  200   3.772   2.951   5.632  1.2220  0.2594 -1.4510
    1MOL   H201  201   3.897   2.825   5.793 -1.1897  3.0310 -1.1580
    1MOL   H202  202   3.896   2.371   5.714  0.0447  0.8401 -0.8359
    1MOL   H203  203   4.013   2.397   5.973 -1.0773 -0.1211 -0.3786
    1MOL   H204  204   3.939   2.245   5.912 -0.4944  0.2758 -0.0507
    1MOL   H205  205   4.219   2.362   5.832 -0.3628 -0.7167 -0.2232
    1MOL   H206  206   4.162   2.215   5.788  2.9722 -0.6732  0.8022
    1MOL   H207  207   4.213   2.281   6.088  0.7101 -0.2166  0.3646
    1MOL   H208  208   4.163   2.128   6.011  0.9905 -0.6642 -0.4355
    1MOL   H209  209   4.428   2.268   5.946 -2.2351  0.6149 -2.1726
    1MOL   H210  210   4.376   2.107   5.905 -1.4188  0.1750 -0.5805
    1MOL   H211  211   4.352   2.066   6.155  2.0817 -0.8554  3.6919
    1MOL   H212  212   4.436   2.227   6.165 -0.9194  0.5093 -1.8674
    1MOL   H213  213   4.562   1.995   6.008  3.2145 -0.8570  1.0368
    1MOL   H214  214   4.631   2.128   6.088 -0.8220  1.4902 -0.7772
    1MOL   H215  215   4.640   2.009   6.283  2.3754  1.0273 -3.0675
    1MOL   H216  216   3.823   2.451   5.570 -0.2706 -0.6568 -0.3378
    1MOL   H217  217   3.702   2.586   5.401 -0.0082 -0.0598  0.0893
    1MOL   C218  218   4.512   1.855   6.257 -0.0411 -0.3040  0.1995
    1MOL   O219  219   4.445   1.790   6.180  0.4618 -0.7308  0.0289
    1MOL   C220  220   4.534   1.816   6.399 -0.0975  0.4567 -0.1184
    1MOL   C221  221   4.575   1.913   6.496 -0.0087  0.3512  0.4649
    1MOL   C222  222   4.598   1.873   6.630 -0.1337 -0.5539 -0.1268
    1MOL   C223  223   4.595   1.737   6.664 -0.2838  0.1101  0.5489
    1MOL   C224  224   4.634   1.685   6.798 -0.7518 -0.3895  0.2391
    1MOL   O225  225   4.579   1.718   6.905 -0.0585 -0.1124 -0.0280
    1MOL   N226  226   4.733   1.601   6.791  0.4729 -0.1867 -0.5029
    1MOL   C227  227   4.787   1.518   6.897  0.1474 -0.5500 -0.3774
    1MOL   C228  228   4.933   1.469   6.883 -0.1797 -0.1049  0.1643
    1MOL   C229  229   4.960   1.403   6.744  0.7236  0.8709 -0.3904
    1MOL   C230  230   5.105   1.376   6.707  0.0092  0.1902 -0.2266
    1MOL   C231  231   5.139   1.307   6.576  0.1050  0.6356 -0.1430
    1MOL   C232  232   5.279   1.242   6.583 -0.2497  0.1331 -0.7317
    1MOL   N233  233   5.322   1.205   6.446 -0.2332  0.1746  0.0819
    1MOL   C234  234   4.563   1.639   6.564 -0.3607  0.6329 -0.3742
    1MOL   C235  235   4.530   1.679   6.435  0.3652 -0.1438  0.4217
    1MOL   H236  236   4.565   2.013   6.457  1.4193 -0.0988 -1.1119
    1MOL   H237  237   4.634   1.956   6.690  3.7762 -1.8102 -0.5491
    1MOL   H238  238   4.774   1.588   6.700 -0.7712  0.4428 -1.1722
    1MOL   H239  239   4.788   1.566   6.995 -2.5579 -1.6177  0.2464
    1MOL   H240  240   4.723   1.433   6.921  1.6357 -1.0418  1.9949
    1MOL   H241  241   4.961   1.390   6.952 -0.1016 -0.8357 -0.7019
    1MOL   H242  242   5.001   1.553   6.900 -2.3062  1.5545  0.8086
    1MOL   H243  243   4.891   1.319   6.735  1.3805 -0.2225  3.7333
    1MOL   H244  244   4.931   1.474   6.666 -1.5888 -0.4440 -0.7639
    1MOL   H245  245   5.162   1.326   6.785 -0.0775  0.3047 -0.0897
    1MOL   H246  246   5.153   1.474   6.716 -0.9080  0.4516  2.0890
    1MOL   H247  247   5.133   1.391   6.507 -0.6230  2.1006  1.6362
    1MOL   H248  248   5.071   1.231   6.536  2.2607 -0.4753 -1.8057
    1MOL   H249  249   5.359   1.303   6.626  0.9430 -0.3010 -2.2932
    1MOL   H250  250   5.285   1.154   6.647 -1.4842  0.3700 -0.2805
    1MOL   H251  251   5.323   1.284   6.383 -1.2562 -0.7021 -1.0519
    1MOL   H252  252   4.567   1.532   6.576  0.0169  0.5745 -1.0089
    1MOL   H253  253   4.508   1.606   6.358  2.6330 -0.9797  0.5295
    1MOL   C254  254   5.332   1.080   6.398  0.1554  0.1185 -0.7108
    1MOL   O255  255   5.295   0.982   6.457  0.1477 -0.5341 -0.0065
    1MOL   C256  256   5.372   1.072   6.246  0.3073 -0.9502 -0.3438
    1MOL   C257  257   5.336   1.169   6.153  1.5218  0.0048  0.2719
    1MOL   C258  258   5.356   1.145   6.018  0.3601 -0.4940  0.1026
    1MOL   C259  259   5.418   1.031   5.973 -0.6675 -0.2307 -0.3911
    1MOL   C260  260   5.412   0.999   5.830 -0.3574 -0.3247  0.1754
    1MOL   O261  261   5.360   0.895   5.794 -0.1589  0.2319  0.3767
    1MOL   N262  262   5.451   1.104   5.747  0.2560  0.0790 -0.3614
    1MOL   C263  263   5.412   1.128   5.610 -0.1978 -0.2413 -0.4115
    1MOL   C264  264   5.269   1.179   5.600  0.1481  0.4764  0.7787
    1MOL   C265  265   5.218   1.223   5.456 -0.2812 -0.1897 -0.1649
    1MOL   C266  266   5.259   1.360   5.408 -0.3214  0.0088 -0.2705
    1MOL   C267  267   5.193   1.381   5.268  0.3666  0.7460  0.1712
    1MOL   C268  268   5.235   1.516   5.222 -0.3389 -0.1602 -0.2187
    1MOL   N269  269   5.149   1.576   5.123  0.9313 -0.0002 -0.1689
    1MOL   C270  270   5.456   0.930   6.064  0.8713  0.4676  0.1636
    1MOL   C271  271   5.438   0.955   6.200  0.3895  0.0687  0.1189
    1MOL   H272  272   5.278   1.256   6.179 -1.0516 -1.2240 -1.1528
    1MOL   H273  273   5.330   1.209   5.936  1.7262 -1.0455 -0.7850
    1MOL   H274  274   5.522   1.164   5.788  0.9710 -2.4178  2.2133
    1MOL   H275  275   5.481   1.196   5.559  1.2207 -2.2167 -1.2136
    1MOL   H276  276   5.431   1.032   5.562 -2.7714  0.3907 -2.8310
    1MOL   H277  277   5.239   1.256   5.671 -0.7782  0.7321  0.1267
    1MOL   H278  278   5.195   1.101   5.622 -0.2320  0.2825 -1.0440
    1MOL   H279  279   5.242   1.146   5.383 -1.5035 -1.6868  0.9824
    1MOL   H280  280   5.110   1.223   5.464 -0.2433 -0.8353  0.4948
    1MOL   H281  281   5.364   1.389   5.418  0.2727 -1.7654 -1.1298
    1MOL   H282  282   5.205   1.428   5.473 -0.4230 -1.8891  1.6653
    1MOL   H283  283   5.084   1.376   5.272  0.2344  1.8990 -1.6262
    1MOL   H284  284   5.227   1.304   5.199 -2.0676  0.2275 -0.5113
    1MOL   H285  285   5.218   1.584   5.305  1.4471  0.6735 -0.5052
    1MOL   H286  286   5.340   1.525   5.193  0.3639  0.2726  2.3217
    1MOL   H287  287   5.096   1.515   5.062 -2.3436  1.3615  1.2025
    1MOL   H288  288   5.498   0.836   6.031  0.3562  1.3573 -3.1211
    1MOL   H289  289   5.455   0.878   6.274 -0.0672 -0.9996 -0.8664
    1MOL   C290  290   5.159   1.702   5.081 -0.1830  0.1933 -0.6565
    1MOL   O291  291   5.254   1.777   5.111 -0.2154  0.1469 -0.1317
    1MOL   C292  292   5.051   1.752   4.986 -0.7987  0.3597  0.1591
    1MOL   C293  293   4.937   1.678   4.958  0.3371 -0.0914  0.4115
    1MOL   C294  294   4.841   1.728   4.872  0.3191 -0.0372 -0.0064
    1MOL   C295  295   4.868   1.848   4.798 -0.2087  0.4710  0.2655
    1MOL   C296  296   4.771   1.903   4.701 -0.0379 -0.0018  0.3555
    1MOL   O297  297   4.653   1.868   4.706  0.1304  0.1409 -0.2488
    1MOL   N298  298   4.825   1.988   4.612 -0.5769  0.6243  0.2569
    1MOL   C299  299   4.744   2.065   4.517  0.3035 -0.5328 -0.2047
    1MOL   C300  300   4.771   2.212   4.551 -0.2957  0.8918 -0.1332
    1MOL   C301  301   4.699   2.315   4.460  0.9411  0.2125  0.1845
    1MOL   C302  302   4.667   2.456   4.514  0.6743 -0.1874  0.4608
    1MOL   C303  303   4.792   2.534   4.543 -0.3963 -0.0828  0.1475
    1MOL   C304  304   4.889   2.576   4.429  0.3064 -0.6533 -0.5288
    1MOL   N305  305   4.832   2.676   4.341  0.9249 -0.1476  0.1036
    1MOL   C306  306   4.977   1.924   4.837  0.4512  0.1902  0.5037
    1MOL   C307  307   5.068   1.877   4.923  0.5290 -0.3168  0.3624
    1MOL   H308  308   4.921   1.583   5.007 -0.4908  0.1602  0.6400
    1MOL   H309  309   4.764   1.656   4.849 -1.8038  1.4901  2.0504
    1MOL   H310  310   4.925   1.990   4.599 -0.5304 -0.7294  0.2492
    1MOL   H311  311   4.752   2.050   4.409  0.3364  2.6924 -0.7129
    1MOL   H312  312   4.640   2.052   4.547  1.0276 -2.3484  1.6424
    1MOL   H313  313   4.874   2.239   4.530 -0.0034 -0.4365 -0.4837
    1MOL   H314  314   4.764   2.245   4.655  1.5984  0.2646  0.2157
    1MOL   H315  315   4.758   2.317   4.368 -0.7491  1.1057 -0.8956
    1MOL   H316  316   4.601   2.285   4.424  0.7546 -0.0328  0.8842
    1MOL   H317  317   4.608   2.449   4.605 -0.3887  0.2702 -0.1907
    1MOL   H318  318   4.612   2.511   4.438  0.9007 -1.0770 -0.3630
    1MOL   H319  319   4.847   2.481   4.621 -1.8983 -1.1734  0.4917
    1MOL   H320  320   4.757   2.626   4.590 -1.6850 -0.4913  0.0284
    1MOL   H321  321   4.973   2.611   4.488 -0.9984  2.0289 -0.1904
    1MOL   H322  322   4.915   2.490   4.368 -1.3694 -2.2722  0.9741
    1MOL   H323  323   4.812   2.761   4.392  1.3962 -0.2046  0.3832
    1MOL   H324  324   4.977   2.026   4.804 -2.2317  0.0857  0.0550
    1MOL   H325  325   5.151   1.943   4.943 -0.0244  0.4074  0.2903
    1MOL   C326  326   4.777   2.660   4.220 -0.6673 -0.3946 -0.3983
    1MOL   O327  327   4.767   2.561   4.150  0.2254  0.0013  0.1781
    1MOL   C328  328   4.723   2.786   4.159 -0.1031 -0.0238 -0.0478
    1MOL   C329  329   4.684   2.895   4.236 -0.6175  0.2747  0.3412
    1MOL   C330  330   4.643   3.017   4.165 -0.0868 -0.4113 -0.1686
    1MOL   C331  331   4.642   3.024   4.026 -0.5463  0.8443  0.4560
    1MOL   C332  332   4.611   3.157   3.961 -0.4583  0.4012  0.2188
    1MOL   O333  333   4.554   3.153   3.850  0.6548  0.1380 -0.5001
    1MOL   N334  334   4.650   3.264   4.031 -0.3890 -0.5779 -1.0508
    1MOL   C335  335   4.630   3.409   4.003  0.3597  0.6476 -0.1286
    1MOL   C336  336   4.479   3.439   4.042 -0.1963  0.0867  0.4188
    1MOL   C337  337   4.447   3.579   3.996  0.4390 -0.0821  1.2952
    1MOL   C338  338   4.322   3.638   4.061  1.3567  0.2131  0.3843
    1MOL   C339  339   4.318   3.792   4.060  0.1875 -0.8106 -0.5086
    1MOL   C340  340   4.436   3.867   4.110  0.2707  0.2008 -0.3167
    1MOL   N341  341   4.408   4.013   4.127  0.1336 -0.1717  0.3329
    1MOL   C342  342   4.680   2.911   3.948 -0.9540  0.3293 -0.0514
    1MOL   C343  343   4.708   2.789   4.018 -0.0828  1.0762  0.0506
    1MOL   H344  344   4.693   2.886   4.344 -0.9070 -2.3481  0.1808
    1MOL   H345  345   4.605   3.098   4.225  1.2789  0.6348 -0.6922
    1MOL   H346  346   4.722   3.242   4.098  0.1285  1.3159 -0.9494
    1MOL   H347  347   4.697   3.472   4.061  1.6336 -1.3391  0.6301
    1MOL   H348  348   4.633   3.448   3.901  1.6590  0.8780 -0.0115
    1MOL   H349  349   4.463   3.442   4.150 -0.7858 -0.9354  0.3659
    1MOL   H350  350   4.403   3.373   4.000  0.3770 -0.9600  1.0191
    1MOL   H351  351   4.538   3.637   4.007  0.5671 -0.2828  1.3026
    1MOL   H352  352   4.432   3.595   3.889 -0.0891 -0.1687  1.3577
    1MOL   H353  353   4.314   3.604   4.165 -2.1015 -2.8989 -0.8086
    1MOL   H354  354   4.235   3.602   4.007 -0.9580  2.8620  2.2090
    1MOL   H355  355   4.229   3.824   4.115  1.8313  1.6065  0.8429
    1MOL   H356  356   4.308   3.821   3.955  0.1814  1.0907  0.0061
    1MOL   H357  357   4.472   3.820   4.201 -0.8152 -0.7487 -0.3718
    1MOL   H358  358   4.510   3.859   4.030 -1.1361 -0.1273 -1.6101
    1MOL   H359  359   4.332   4.056   4.076  0.0817 -1.9353 -1.1236
    1MOL   H360  360   4.691   2.914   3.841 -1.1266  0.3413 -0.0690
    1MOL   H361  361   4.732   2.699   3.963 -0.2772  0.6224  0.7026
    1MOL   C362  362   4.481   4.100   4.200 -0.1159 -0.2347  0.1418
    1MOL   O363  363   4.576   4.065   4.272  0.1421  0.3263 -0.3014
    1MOL   C364  364   4.453   4.248   4.181 -0.2628  0.9827  0.0476
    1MOL   C365  365   4.404   4.294   4.056  0.4083  1.0537  0.1053
    1MOL   C366  366   4.368   4.428   4.040  0.5381  0.6190  0.1737
    1MOL   C367  367   4.388   4.519   4.149  0.0654  0.3404  0.0881
    1MOL   C368  368   4.331   4.656   4.127  0.9527  0.0294 -0.6213
    1MOL   O369  369   4.335   4.709   4.014  0.1748 -0.2586  0.1659
    1MOL   N370  370   4.270   4.715   4.230  0.7486  0.0334 -0.5159
    1MOL   C371  371   4.185   4.835   4.220  0.1733  0.7305  0.8484
    1MOL   C372  372   4.243   4.955   4.294 -0.0457 -1.0136  0.0565
    1MOL   C373  373   4.190   5.091   4.233 -0.4935  0.0908 -0.8407
    1MOL   C374  374   4.293   5.133   4.118  0.5415 -0.0654  0.6463
    1MOL   C375  375   4.264   5.279   4.075  0.9247  0.1157 -0.1620
    1MOL   C376  376   4.326   5.313   3.946  0.2886 -0.1270  0.4489
    1MOL   N377  377   4.292   5.447   3.905  0.2010 -0.0122  0.1403
    1MOL   C378  378   4.434   4.472   4.273 -0.2832 -0.3958 -0.0032
    1MOL   C379  379   4.458   4.333   4.290 -0.6439 -0.8404  0.2929
    1MOL   H380  380   4.387   4.226   3.974  0.4465  1.3478 -0.1489
    1MOL   H381  381   4.329   4.468   3.947 -0.8649 -0.3924  0.3160
    1MOL   H382  382   4.273   4.674   4.322  2.3297  2.6740  0.6641
    1MOL   H383  383   4.169   4.861   4.115 -2.2569 -1.6067  0.5904
    1MOL   H384  384   4.089   4.809   4.264 -0.9399 -0.4848 -2.1861
    1MOL   H385  385   4.351   4.947   4.303  0.3537  2.1250 -1.4090
    1MOL   H386  386   4.183   4.955   4.386 -0.4152  2.4351 -0.1266
    1MOL   H387  387   4.088   5.085   4.195 -0.6554  0.4887 -0.4675
    1MOL   H388  388   4.177   5.173   4.303  2.2109 -0.1075 -0.0235
    1MOL   H389  389   4.301   5.068   4.031  0.5387 -0.6454  1.0855
    1MOL   H390  390   4.394   5.142   4.159  0.5894 -1.1194  0.7552
    1MOL   H391  391   4.290   5.356   4.148 -0.3046  2.8115 -2.5039
    1MOL   H392  392   4.156   5.284   4.064  1.1200 -0.5013 -2.7156
    1MOL   H393  393   4.430   5.284   3.963  1.0879  0.2044 -3.4836
    1MOL   H394  394   4.289   5.242   3.872  2.0769  0.0266 -0.6246
    1MOL   H395  395   4.226   5.456   3.829 -0.3495 -1.3654  0.4406
    1MOL   H396  396   4.441   4.542   4.355 -2.6181  1.9107 -1.7052
    1MOL   H397  397   4.483   4.292   4.386 -3.2937  1.2657  1.9522
    1MOL   C398  398   4.320   5.562   3.964 -0.0798  0.5235  0.3299
    1MOL   O399  399   4.389   5.570   4.066 -0.1399 -0.3368  0.4891
    1MOL   C400  400   4.242   5.678   3.912 -0.0790 -0.0148  0.0326
    1MOL   C401  401   4.300   5.806   3.907 -0.8738 -0.5798 -0.0265
    1MOL   C402  402   4.231   5.927   3.881 -0.1628  0.2801 -0.0038
    1MOL   C403  403   4.098   5.917   3.851  0.1972 -0.1886 -0.4632
    1MOL   C404  404   4.016   6.040   3.824  0.1035 -0.1338  0.4499
    1MOL   O405  405   4.028   6.097   3.715  0.3227 -0.1914  0.2293
    1MOL   N406  406   3.942   6.083   3.928  0.0852 -0.3836 -0.0597
    1MOL   C407  407   3.877   6.208   3.950 -0.4951  0.5304  0.1713
    1MOL   C408  408   3.940   6.288   4.063  0.8631  0.9813  0.5107
    1MOL   C409  409   3.973   6.228   4.198  0.3581 -0.2084  0.0925
    1MOL   C410  410   3.843   6.191   4.284  0.7526 -0.0137  0.1842
    1MOL   C411  411   3.873   6.160   4.433 -0.1695 -0.2531 -0.4535
    1MOL   C412  412   3.738   6.153   4.503 -0.2452  0.0482 -0.0332
    1MOL   N413  413   3.748   6.151   4.653  0.6644 -0.5479  0.8990
    1MOL   C414  414   4.039   5.788   3.838  0.0087  0.7841  0.0065
    1MOL   C415  415   4.104   5.669   3.875  0.9162  0.2373 -0.0077
    1MOL   H416  416   4.405   5.820   3.929 -1.4333  1.1056  1.7589
    1MOL   H417  417   4.287   6.019   3.892  1.3545 -0.8003  1.5744
    1MOL   H418  418   3.931   6.014   4.000  0.4194 -0.1185  0.2525
    1MOL   H419  419   3.867   6.268   3.859 -0.0627  0.5608  0.1460
    1MOL   H420  420   3.779   6.180   3.990 -1.0919 -0.3937 -1.8905
    1MOL   H421  421   3.870   6.367   4.091  1.0021  0.8502  1.2291
    1MOL   H422  422   4.025   6.345   4.026  0.2472  1.0941 -0.7689
    1MOL   H423  423   4.032   6.138   4.177 -1.0176 -0.1488 -4.5456
    1MOL   H424  424   4.032   6.308   4.243  0.4050 -0.3521  0.2859
    1MOL   H425  425   3.795   6.107   4.234  0.1947  1.4665 -1.8344
    1MOL   H426  426   3.766   6.268   4.280  1.1355  0.3206 -1.4865
    1MOL   H427  427   3.945   6.231   4.472 -0.8428 -0.7011  1.6689
    1MOL   H428  428   3.920   6.064   4.456 -2.0974 -0.9942  0.5051
    1MOL   H429  429   3.695   6.244   4.462  0.3702 -0.7339 -2.4770
    1MOL   H430  430   3.683   6.066   4.467 -0.3601  0.4587 -0.8737
    1MOL   H431  431   3.753   6.240   4.699 -0.0233  1.2686 -2.3699
    1MOL   H432  432   3.938   5.780   3.798 -0.1695 -0.2788  0.6481
    1MOL   H433  433   4.060   5.571   3.879  1.5598 -0.1086 -1.1617
    1MOL   C434  434   3.733   6.043   4.731  0.1654  0.8181 -0.4731
    1MOL   O435  435   3.734   5.928   4.687  0.3149 -0.1126 -0.6100
    1MOL   C436  436   3.721   6.066   4.878 -0.2393 -0.2028  0.6085
    1MOL   C437  437   3.639   6.174   4.923 -0.9438  0.7340  0.1482
    1MOL   C438  438   3.649   6.213   5.059  1.0525 -0.1076  0.7832
    1MOL   C439  439   3.741   6.156   5.149 -0.2814  0.1888  0.2426
    1MOL   C440  440   3.780   6.223   5.279  0.6099  0.1510  0.1801
    1MOL   O441  441   3.691   6.275   5.346 -0.0310 -0.3230  0.0957
    1MOL   N442  442   3.911   6.249   5.299 -0.5064 -0.2916  0.5016
    1MOL   C443  443   3.975   6.338   5.397 -0.3925 -0.2249 -0.2114
    1MOL   C444  444   3.966   6.288   5.542 -0.4639  0.2138 -0.3333
    1MOL   C445  445   4.039   6.149   5.568 -0.1691 -0.1838  0.1464
    1MOL   C446  446   4.024   6.087   5.710  0.2992 -0.0870  0.4173
    1MOL   C447  447   4.040   5.928   5.701 -0.0957  0.5039  0.5497
    1MOL   C448  448   4.025   5.853   5.837  0.5295  0.0285  0.2067
    1MOL   N449  449   4.030   5.710   5.823  0.9326  0.4032  0.0051
    1MOL   C450  450   3.800   6.035   5.107  0.1703 -0.1445 -0.8055
    1MOL   C451  451   3.797   5.996   4.974  0.3526  0.2162 -0.1960
    1MOL   H452  452   3.581   6.237   4.858 -1.0952  1.2784  0.8081
    1MOL   H453  453   3.601   6.305   5.089 -0.8109 -0.4108 -1.1307
    1MOL   H454  454   3.957   6.192   5.229 -1.1881 -0.4213  0.1479
    1MOL   H455  455   4.080   6.346   5.370 -0.2087 -1.4563  0.1083
    1MOL   H456  456   3.937   6.440   5.391 -1.5072 -0.5260  1.2402
    1MOL   H457  457   3.862   6.262   5.560 -0.4073  1.3533  1.7169
    1MOL   H458  458   3.986   6.365   5.616  1.8834  1.0115 -1.7148
    1MOL   H459  459   4.003   6.073   5.498  0.4022 -2.1178  1.8842
    1MOL   H460  460   4.147   6.157   5.559 -0.4928  1.5227 -2.8109
    1MOL   H461  461   3.926   6.120   5.743  0.5992  0.5670  0.6465
    1MOL   H462  462   4.097   6.146   5.766 -0.1646  1.9651 -1.0918
    1MOL   H463  463   4.140   5.912   5.662  0.0404  1.0473  0.6649
    1MOL   H464  464   3.974   5.883   5.627  1.2253 -1.1307  0.3532
    1MOL   H465  465   4.102   5.888   5.906  0.1320  1.9734 -0.3068
    1MOL   H466  466   3.926   5.887   5.868  0.9533  1.3452  0.1158
    1MOL   H467  467   3.948   5.656   5.847  1.4959 -0.0033  1.1081
    1MOL   H468  468   3.869   5.985   5.172  0.8515 -0.9213 -2.0917
    1MOL   H469  469   3.860   5.911   4.952 -1.0791 -0.6468 -1.0570
    1MOL   C470  470   4.126   5.627   5.783  0.0368  0.4093  0.2160
    1MOL   O471  471   4.248   5.656   5.781  0.1189  0.3082  0.4400
    1MOL   C472  472   4.080   5.490   5.751 -0.4340 -0.0392  0.7030
    1MOL   C473  473   3.955   5.467   5.687  0.0980  0.0366  0.6337
    1MOL   C474  474   3.928   5.346   5.626 -0.2230  0.6063  0.7181
    1MOL   C475  475   4.026   5.243   5.626 -0.1480  0.1729 -0.0714
    1MOL   C476  476   3.993   5.113   5.569  0.2845  0.3018 -0.2911
    1MOL   O477  477   3.884   5.085   5.530 -0.2916 -0.0843  0.2904
    1MOL   N478  478   4.089   5.022   5.563 -0.4237 -0.0615 -0.1405
    1MOL   C479  479   4.072   4.885   5.523 -0.0485  0.3098 -0.2124
    1MOL   C480  480   4.199   4.805   5.569 -0.3448 -0.3185  0.1074
    1MOL   C481  481   4.217   4.656   5.518 -0.2607 -0.1040 -0.1173
    1MOL   C482  482   4.231   4.651   5.366 -0.4694  0.4997  1.0684
    1MOL   C483  483   4.239   4.512   5.311  0.3996  0.0436 -0.7565
    1MOL   C484  484   4.244   4.499   5.165  0.8674  0.1184 -0.5351
    1MOL   N485  485   4.257   4.358   5.118  0.1007 -0.2079 -0.1250
    1MOL   C486  486   4.151   5.268   5.683 -0.5298  0.2148 -0.5789
    1MOL   C487  487   4.174   5.384   5.762 -0.2025 -0.7366  0.4465
    1MOL   H488  488   3.880   5.542   5.666 -1.4468 -0.7797  3.0129
    1MOL   H489  489   3.832   5.336   5.576  1.6228  1.1376 -3.1114
    1MOL   H490  490   4.182   5.047   5.593  0.4300  0.4252 -3.0246
    1MOL   H491  491   3.978   4.846   5.560  0.4610 -0.8988 -0.1574
    1MOL   H492  492   4.074   4.884   5.414  0.5181 -0.2982 -0.2037
    1MOL   H493  493   4.204   4.806   5.678  0.7216 -0.7944  0.0688
    1MOL   H494  494   4.285   4.862   5.534 -2.4648  1.1831 -2.9120
    1MOL   H495  495   4.305   4.608   5.559 -0.3214 -0.1512 -0.0402
    1MOL   H496  496   4.130   4.596   5.548 -1.0474  1.2015  0.2518
    1MOL   H497  497   4.314   4.704   5.318  0.4910 -1.2173  0.7942
    1MOL   H498  498   4.143   4.694   5.318  0.0009 -0.2380 -0.5131
    1MOL   H499  499   4.153   4.453   5.344 -1.1585  2.3151 -0.5616
    1MOL   H500  500   4.322   4.454   5.350  0.8620 -0.1814 -2.0453
    1MOL   H501  501   4.162   4.551   5.116  0.5139  1.0234  1.0154
    1MOL   H502  502   4.337   4.548   5.136  1.4402 -0.6852 -0.0952
    1MOL   H503  503   4.226   4.287   5.182 -1.3937 -0.4839 -1.1251
    1MOL   H504  504   4.231   5.195   5.687 -0.7846 -0.1501 -1.8388
    1MOL   H505  505   4.276   5.407   5.791 -0.6418 -0.9767  2.2371
    1MOL   C506  506   4.304   4.326   4.995 -0.2107 -0.3804 -0.1822
    1MOL   O507  507   4.359   4.411   4.918 -0.3582  0.0569 -0.5093
    1MOL   C508  508   4.288   4.183   4.946 -0.6917  0.5198  0.1909
    1MOL   C509  509   4.263   4.159   4.808 -0.5012  0.3698  0.0354
    1MOL   C510  510   4.230   4.034   4.752  0.1507  0.1913  0.2273
    1MOL   C511  511   4.221   3.929   4.844 -0.3085  0.4681  0.2277
    1MOL   C512  512   4.195   3.789   4.789 -0.2983  0.4938  0.2281
    1MOL   O513  513   4.184   3.772   4.667  0.4728  0.6175 -0.2121
    1MOL   N514  514   4.180   3.694   4.880 -0.3072 -0.4110 -0.7101
    1MOL   C515  515   4.185   3.558   4.837 -0.2050 -0.1809 -0.1260
    1MOL   C516  516   4.041   3.506   4.842  0.4796  0.6124  0.6875
    1MOL   C517  517   3.954   3.564   4.728  1.0145  0.1519 -0.0219
    1MOL   C518  518   3.813   3.493   4.711 -0.5111  0.3322 -0.6791
    1MOL   C519  519   3.701   3.579   4.646  1.1497  0.3265 -0.3143
    1MOL   C520  520   3.556   3.534   4.634 -0.1784  0.5811 -0.1314
    1MOL   N521  521   3.544   3.419   4.549 -0.3674 -0.0634 -0.9435
    1MOL   C522  522   4.254   3.944   4.982 -0.2496  0.6408  0.0344
    1MOL   C523  523   4.281   4.073   5.034  0.2508 -0.6089  0.1445
    1MOL   H524  524   4.263   4.239   4.735  1.0629  1.9624  1.7053
    1MOL   H525  525   4.201   4.020   4.649  1.1383 -0.1756  0.0016
    1MOL   H526  526   4.211   3.708   4.975  1.5615 -3.4045 -0.8282
    1MOL   H527  527   4.228   3.541   4.738  0.3426 -0.3468  0.1415
    1MOL   H528  528   4.247   3.502   4.908  0.4273  1.5408  0.6928
    1MOL   H529  529   3.994   3.529   4.938 -2.9266  0.0417 -0.7685
    1MOL   H530  530   4.044   3.397   4.840  1.8732  0.6608 -0.8256
    1MOL   H531  531   3.940   3.671   4.744  0.6099 -0.1567  1.7730
    1MOL   H532  532   4.012   3.557   4.636  3.0836  3.2590  0.9884
    1MOL   H533  533   3.784   3.466   4.813 -1.8246  1.4869 -0.7198
    1MOL   H534  534   3.829   3.396   4.663 -3.2713 -1.1881  1.3096
    1MOL   H535  535   3.734   3.605   4.545  1.3874 -1.9338 -0.8483
    1MOL   H536  536   3.700   3.668   4.708  0.5681  0.5245 -0.6024
    1MOL   H537  537   3.493   3.543   4.722 -0.7852  1.6480 -0.6587
    1MOL   H538  538   3.504   3.614   4.581 -0.5478 -0.6286 -1.6363
    1MOL   H539  539   3.601   3.422   4.466  0.9664  2.4125 -0.0077
    1MOL   H540  540   4.260   3.860   5.050  1.0857  0.4189 -0.3454
    1MOL   H541  541   4.291   4.094   5.139  0.8364  0.2740 -0.0841
    1MOL   C542  542   3.495   3.299   4.589 -0.8426 -0.3964 -0.0607
    1MOL   O543  543   3.446   3.282   4.702  0.0293 -1.0690 -0.0515
    1MOL   C544  544   3.492   3.193   4.476 -0.0200  0.2746  0.0340
    1MOL   C545  545   3.588   3.195   4.375 -0.5760  0.8332  0.1666
    1MOL   C546  546   3.576   3.090   4.281  0.3349  0.1643 -0.4022
    1MOL   C547  547   3.473   2.991   4.286 -0.1115  0.0583  0.2508
    1MOL   C548  548   3.453   2.887   4.178 -0.2860  1.0284 -0.4539
    1MOL   O549  549   3.376   2.792   4.197  0.8428 -0.1456  0.1785
    1MOL   N550  550   3.520   2.910   4.059  0.3144  0.0458 -0.4716
    1MOL   C551  551   3.534   2.823   3.947  0.8251 -0.1124 -0.3346
    1MOL   C552  552   3.408   2.823   3.858  0.4098  0.0407  0.4592
    1MOL   C553  553   3.373   2.957   3.789  0.5219 -0.3979  0.0024
    1MOL   C554  554   3.297   2.948   3.652 -0.2725 -0.6045  0.2419
    1MOL   C555  555   3.162   2.871   3.659 -0.4821  0.3618  0.4799
    1MOL   C556  556   3.121   2.837   3.517 -0.7701  0.4012  0.7148
    1MOL   N557  557   3.062   2.702   3.512  0.2863 -0.0919 -0.4446
    1MOL   C558  558   3.383   2.991   4.397 -0.5890 -0.5714 -0.2601
    1MOL   C559  559   3.397   3.087   4.496 -0.5088  0.1173 -0.3511
    1MOL   H560  560   3.673   3.262   4.371  1.3539 -1.4149  1.8639
    1MOL   H561  561   3.644   3.083   4.198 -1.2512  1.4899 -1.8648
    1MOL   H562  562   3.564   3.001   4.055 -1.1826  0.8490  0.4055
    1MOL   H563  563   3.621   2.860   3.893  1.9663  0.4323  1.8182
    1MOL   H564  564   3.562   2.720   3.970  0.4962  0.0220  0.7026
    1MOL   H565  565   3.318   2.777   3.901  0.7504  0.4583  1.6430
    1MOL   H566  566   3.434   2.749   3.782  1.3171 -1.5805  2.2834
    1MOL   H567  567   3.318   3.023   3.857 -0.7917 -1.4376 -0.0204
    1MOL   H568  568   3.463   3.013   3.764  0.5585 -0.4142  0.0997
    1MOL   H569  569   3.362   2.895   3.582 -1.2752 -0.2558 -0.9726
    1MOL   H570  570   3.279   3.048   3.613 -0.1739 -0.4766  0.5179
    1MOL   H571  571   3.083   2.916   3.719  1.9542 -0.5613  4.5108
    1MOL   H572  572   3.186   2.777   3.707  0.4310 -0.4847 -1.5569
    1MOL   H573  573   3.055   2.916   3.481  3.0219  4.0159  1.2167
    1MOL   H574  574   3.202   2.845   3.444 -1.4505 -1.0129 -0.2146
    1MOL   H575  575   2.976   2.691   3.564 -0.5048  1.1032 -1.4857
    1MOL   H576  576   3.307   2.916   4.411 -0.9753  0.2014  1.9114
    1MOL   H577  577   3.326   3.082   4.577 -0.0581 -0.5376  0.0118
    1MOL   C578  578   3.091   2.618   3.411 -0.2768 -0.6300  0.3943
    1MOL   O579  579   3.177   2.636   3.326 -0.1126  0.6412 -0.4853
    1MOL   C580  580   3.025   2.482   3.425  0.4651 -0.1655 -0.7612
    1MOL   C581  581   2.985   2.415   3.309  0.4482 -0.8497 -0.2540
    1MOL   C582  582   2.933   2.280   3.305  0.0892  0.2785 -0.3494
    1MOL   C583  583   2.933   2.211   3.431  0.2657 -0.6236 -0.2571
    1MOL   C584  584   2.888   2.070   3.436  0.0876 -0.1400  0.0067
    1MOL   O585  585   2.860   2.012   3.543 -0.3151 -0.5052 -0.1132
    1MOL   N586  586   2.891   2.002   3.323  0.0467 -0.0074 -0.1310
    1MOL   C587  587   2.843   1.862   3.318 -0.4837  0.2707 -0.9339
    1MOL   C588  588   2.960   1.768   3.348  0.0751  0.0334  0.0789
    1MOL   C589  589   2.917   1.624   3.338 -0.3028  0.0355  0.1857
    1MOL   C590  590   3.035   1.528   3.337 -0.3504  0.0262 -0.3773
    1MOL   C591  591   2.992   1.383   3.306  0.2924  0.4019  0.9034
    1MOL   C592  592   3.099   1.275   3.326 -0.8094  0.3408 -0.4726
    1MOL   N593  593   3.226   1.313   3.258 -0.3406  0.3016 -0.3866
    1MOL   C594  594   2.979   2.273   3.551  0.2771 -0.1152 -0.4801
    1MOL   C595  595   3.023   2.409   3.550 -0.0853 -0.0352 -0.5977
    1MOL   H596  596   3.006   2.467   3.217  0.5661 -2.1317 -0.9597
    1MOL   H597  597   2.898   2.254   3.206  0.3935  0.1900 -0.4337
    1MOL   H598  598   2.924   2.037   3.235  1.3024 -1.3975 -0.2331
    1MOL   H599  599   2.758   1.843   3.384  0.6190 -0.3825  0.3217
    1MOL   H600  600   2.786   1.849   3.226 -3.4793  0.4766  0.8355
    1MOL   H601  601   2.993   1.777   3.451 -1.2833 -1.8975  0.7123
    1MOL   H602  602   3.045   1.793   3.283 -0.9792  0.4949 -1.1422
    1MOL   H603  603   2.846   1.607   3.419  0.2278  2.5212  1.2402
    1MOL   H604  604   2.867   1.611   3.242  1.6518 -1.7530 -0.6388
    1MOL   H605  605   3.090   1.522   3.431 -3.8315 -0.1094  1.7240
    1MOL   H606  606   3.106   1.555   3.258 -1.3654  0.7888 -1.0402
    1MOL   H607  607   2.953   1.382   3.205  0.2643  2.5060  0.8597
    1MOL   H608  608   2.909   1.360   3.372 -0.6753 -1.2952 -0.8626
    1MOL   H609  609   3.126   1.254   3.430 -0.9216  2.3913  0.0058
    1MOL   H610  610   3.050   1.186   3.287  1.2624 -1.6617  1.3507
    1MOL   H611  611   3.282   1.391   3.288 -0.2711 -0.1540  0.7335
    1MOL   H612  612   2.995   2.216   3.641 -1.8908  1.2362  0.8092
    1MOL   H613  613   3.068   2.446   3.640 -1.8403  0.9470 -0.1023
    1MOL   C614  614   3.276   1.216   3.174 -0.2176  0.9873  0.0543
    1MOL   O615  615   3.220   1.119   3.138  0.2976 -0.5243 -0.1139
    1MOL   C616  616   3.424   1.230   3.138  0.0469  0.5895 -0.2490
    1MOL   C617  617   3.497   1.125   3.073  0.3441 -0.7278  0.5598
    1MOL   C618  618   3.634   1.137   3.050 -0.0064 -0.1776 -0.3882
    1MOL   C619  619   3.709   1.248   3.094 -0.3600  0.9589  1.1452
    1MOL   C620  620   3.859   1.271   3.073  0.3504  0.2353 -0.3155
    1MOL   O621  621   3.910   1.379   3.095  0.4621 -0.2728  0.4784
    1MOL   N622  622   3.929   1.167   3.028  0.3393 -0.0265  0.5090
    1MOL   C623  623   4.075   1.146   3.016  0.4770  0.8147 -0.3206
    1MOL   C624  624   4.150   1.238   2.911  0.1201  0.2823  0.1068
    1MOL   C625  625   4.304   1.235   2.904 -0.5988  0.7312  0.5169
    1MOL   C626  626   4.377   1.314   3.017 -0.6543 -1.4734 -0.9402
    1MOL   C627  627   4.389   1.467   2.987 -0.0400 -0.6048 -0.2041
    1MOL   C628  628   4.439   1.535   3.116  0.1477  0.3935 -0.1384
    1MOL   N629  629   4.339   1.547   3.222  0.2621 -0.2674  0.1379
    1MOL   C630  630   3.632   1.353   3.147 -0.1997 -0.2498  0.0998
    1MOL   C631  631   3.496   1.341   3.183 -0.5436 -0.7788  0.0567
    1MOL   H632  632   3.438   1.043   3.035  1.0926 -0.7360 -0.5994
    1MOL   H633  633   3.677   1.061   2.987 -0.8253 -0.4131 -0.6625
    1MOL   H634  634   3.863   1.094   3.007 -1.4409  1.2160  1.7423
    1MOL   H635  635   4.126   1.179   3.107  0.4677  0.7047 -0.2747
    1MOL   H636  636   4.091   1.039   2.999 -3.9959  0.0270 -0.0346
    1MOL   H637  637   4.120   1.342   2.925  0.7679  0.3267  1.2705
    1MOL   H638  638   4.115   1.214   2.811  1.8541 -1.4281 -0.1052
    1MOL   H639  639   4.331   1.129   2.901  0.7822  1.0928 -0.2724
    1MOL   H640  640   4.337   1.269   2.806 -3.1806 -1.0556 -1.0452
    1MOL   H641  641   4.479   1.280   3.033  0.9474  2.4119 -2.3034
    1MOL   H642  642   4.329   1.299   3.114 -1.2663 -0.1702 -1.0353
    1MOL   H643  643   4.294   1.501   2.945 -0.3998 -1.3743 -0.0369
    1MOL   H644  644   4.459   1.475   2.905  0.2267  0.6188  0.1313
    1MOL   H645  645   4.514   1.480   3.171  1.2881  1.3469 -0.7218
    1MOL   H646  646   4.482   1.632   3.092  1.0670 -0.0892 -0.4390
    1MOL   H647  647   4.274   1.472   3.240 -1.1552  0.4864 -1.7333
    1MOL   H648  648   3.676   1.451   3.155  1.0892 -0.9210  1.8123
    1MOL   H649  649   3.442   1.425   3.223  2.4727  1.3558 -0.1805
    1MOL   C650  650   4.326   1.655   3.300  0.8846  0.2571 -0.2261
    1MOL   O651  651   4.399   1.753   3.298 -0.2334  0.4758  0.7220
    1MOL   C652  652   4.206   1.657   3.397  0.3391 -0.6068  0.0311
    1MOL   C653  653   4.124   1.551   3.416  0.2803  0.5564  0.0686
    1MOL   C654  654   4.006   1.555   3.494  0.5274 -1.2799 -0.0042
    1MOL   C655  655   3.980   1.672   3.576  0.0329 -0.1851  0.6158
    1MOL   C656  656   3.883   1.667   3.688  0.0171 -0.0407  0.1977
    1MOL   O657  657   3.876   1.564   3.752  0.1148 -0.1686 -0.3438
    1MOL   N658  658   3.799   1.767   3.709  0.6175 -0.4199 -1.0967
    1MOL   C659  659   3.692   1.769   3.807  0.0650  0.0414  0.1887
    1MOL   C660  660   3.562   1.685   3.777  0.6536 -0.4578  0.0062
    1MOL   C661  661   3.498   1.655   3.908  0.5276 -0.2116  0.4318
    1MOL   C662  662   3.378   1.564   3.885  0.3127 -0.0700 -0.0420
    1MOL   C663  663   3.307   1.511   4.009 -0.4210  0.3741  0.5401
    1MOL   C664  664   3.211   1.398   3.973  0.1584 -0.6495  0.1152
    1MOL   N665  665   3.108   1.457   3.889 -0.2927  0.1717 -0.6814
    1MOL   C666  666   4.069   1.778   3.564  0.5653 -0.7220 -0.1115
    1MOL   C667  667   4.177   1.770   3.475 -0.8746 -0.0354 -0.5416
    1MOL   H668  668   4.142   1.456   3.368 -0.6712  0.9562 -1.1232
    1MOL   H669  669   3.948   1.464   3.494  0.2585 -1.1434  2.1008
    1MOL   H670  670   3.792   1.845   3.644 -1.2987  0.8061  0.5199
    1MOL   H671  671   3.742   1.727   3.895 -0.2577  2.4704  1.5616
    1MOL   H672  672   3.672   1.874   3.827  2.1885  0.4077  0.5285
    1MOL   H673  673   3.583   1.590   3.727  0.3538 -0.2675 -0.4896
    1MOL   H674  674   3.506   1.741   3.702  0.9533  0.8906  0.7609
    1MOL   H675  675   3.564   1.618   3.985 -0.2570 -2.5895  0.0075
    1MOL   H676  676   3.464   1.745   3.960 -0.2350 -1.5562  2.3132
    1MOL   H677  677   3.421   1.480   3.830  1.2005  0.8168 -0.7101
    1MOL   H678  678   3.308   1.612   3.817  0.9065  0.9321  0.0401
    1MOL   H679  679   3.262   1.592   4.068 -1.7781  0.5756 -0.7496
    1MOL   H680  680   3.374   1.470   4.085 -0.3501 -1.2554 -0.4056
    1MOL   H681  681   3.258   1.315   3.920  0.9526 -1.0337  1.3790
    1MOL   H682  682   3.180   1.360   4.071  1.1588 -1.2021  0.2245
    1MOL   H683  683   3.045   1.524   3.932 -0.3620  0.4856 -1.2553
    1MOL   H684  684   4.043   1.866   3.620 -1.8721 -0.4000 -1.6929
    1MOL   H685  685   4.241   1.856   3.462  1.0237 -1.6369 -1.9820
    1MOL   C686  686   3.067   1.411   3.773  0.0602  0.0100  0.4504
    1MOL   O687  687   3.101   1.307   3.719 -0.1368  0.0078 -0.2299
    1MOL   C688  688   2.957   1.493   3.717 -0.0297  0.5558 -0.5767
    1MOL   C689  689   2.844   1.418   3.675 -0.4917  0.5175 -0.0541
    1MOL   C690  690   2.731   1.494   3.633 -0.2398  0.4964  0.1651
    1MOL   C691  691   2.729   1.632   3.637  0.3954  0.9105  0.5684
    1MOL   C692  692   2.600   1.699   3.596 -0.0986  0.3636 -0.6587
    1MOL   O693  693   2.502   1.637   3.572  0.1571 -0.1322  0.0182
    1MOL   N694  694   2.599   1.831   3.589 -0.2454  0.3178  0.4734
    1MOL   C695  695   2.486   1.911   3.562  0.1571 -0.7689 -1.0937
    1MOL   C696  696   2.515   2.059   3.558 -0.7696 -1.0566 -0.1926
    1MOL   C697  697   2.529   2.109   3.412  0.1318 -0.4580 -0.4487
    1MOL   C698  698   2.538   2.268   3.413  0.2025 -0.0029 -0.0872
    1MOL   C699  699   2.566   2.341   3.280  0.3003  0.5521  0.0304
    1MOL   C700  700   2.588   2.490   3.311  0.1137  0.6567  0.1634
    1MOL   N701  701   2.580   2.573   3.195  0.0582  0.7150 -0.0379
    1MOL   C702  702   2.841   1.705   3.679  0.2381  0.9846 -0.2388
    1MOL   C703  703   2.963   1.634   3.713  0.5026  0.2549  0.1075
    1MOL   H704  704   2.835   1.311   3.687  0.4566  0.2234 -1.8436
    1MOL   H705  705   2.642   1.441   3.604  0.6214 -0.5802 -0.5904
    1MOL   H706  706   2.686   1.879   3.603  1.1886 -1.7571 -1.1481
    1MOL   H707  707   2.449   1.883   3.463 -0.7257  1.0907 -1.3093
    1MOL   H708  708   2.404   1.903   3.634  0.2673 -1.8728 -1.0743
    1MOL   H709  709   2.597   2.087   3.624  0.7656 -2.5049 -1.4352
    1MOL   H710  710   2.427   2.116   3.590 -0.9291 -1.3528 -0.1013
    1MOL   H711  711   2.603   2.051   3.357 -1.8907 -1.9883 -1.6441
    1MOL   H712  712   2.443   2.069   3.359 -1.1777  1.4540  0.1554
    1MOL   H713  713   2.625   2.286   3.476 -0.4430  0.9235  0.5403
    1MOL   H714  714   2.449   2.295   3.468  2.2758  2.0701  2.3611
    1MOL   H715  715   2.488   2.323   3.206 -0.4335 -0.4167  1.0405
    1MOL   H716  716   2.657   2.298   3.236 -0.9237  0.3681 -2.4200
    1MOL   H717  717   2.519   2.533   3.385 -1.0233 -0.2400 -0.3505
    1MOL   H718  718   2.685   2.503   3.359  0.0380  1.4480  0.1120
    1MOL   H719  719   2.501   2.543   3.139  1.2065 -0.6255 -0.9903
    1MOL   H720  720   2.837   1.811   3.699  2.1410  1.4557 -2.1522
    1MOL   H721  721   3.047   1.693   3.748  1.1282  0.6985 -2.0957
    1MOL   H722  722   2.577   2.672   3.218  0.6689  1.0199 -1.1921
    2MOL     C1  723   5.690   6.083   1.419 -0.3819  0.2639 -0.5231
    2MOL     O2  724   5.715   6.136   1.309  0.1395  0.0229 -0.2077
    2MOL     C3  725   5.694   6.161   1.550  0.3654  0.3778 -0.4593
    2MOL     C4  726   5.705   6.300   1.541 -0.4074  0.3871 -0.3405
    2MOL     C5  727   5.700   6.382   1.653  0.0738 -0.7474  0.0680
    2MOL     C6  728   5.667   6.330   1.782 -0.1285  0.0746  0.7116
    2MOL     C7  729   5.635   6.415   1.898  0.2084 -0.7779 -0.1565
    2MOL     O8  730   5.671   6.390   2.008 -0.0988 -0.1032  0.3056
    2MOL     N9  731   5.548   6.517   1.870 -0.0134 -0.4797  0.0598
    2MOL    C10  732   5.458   6.583   1.969 -0.3329  0.1884  0.2918
    2MOL    C11  733   5.504   6.723   2.015  0.2102  0.0907  0.1803
    2MOL    C12  734   5.484   6.843   1.914 -0.9153  0.8012  0.0200
    2MOL    C13  735   5.575   6.845   1.788  0.0674 -0.5757  0.4616
    2MOL    C14  736   5.593   6.994   1.752 -0.1451 -0.0604 -0.3377
    2MOL    C15  737   5.697   7.019   1.638 -0.3920 -0.1572 -0.4232
    2MOL    N16  738   5.673   6.935   1.522 -0.0817  0.2141  0.0486
    2MOL    C17  739   5.648   6.194   1.793 -0.3033 -0.0406 -1.1238
    2MOL    C18  740   5.662   6.105   1.680 -0.3175  0.0327 -0.2961
    2MOL    H19  741   5.715   6.344   1.443 -1.4672 -0.7051 -0.9566
    2MOL    H20  742   5.705   6.489   1.638  2.1758 -0.6773  1.1410
    2MOL    H21  743   5.520   6.522   1.773 -0.0146  1.4827  0.1464
    2MOL    H22  744   5.353   6.592   1.940 -0.4940  0.3368  0.9096
    2MOL    H23  745   5.453   6.529   2.064  0.5657  0.8703  0.7273
    2MOL    H24  746   5.612   6.727   2.028  0.3668 -3.7045  0.3956
    2MOL    H25  747   5.472   6.754   2.115 -1.1778  0.5633 -0.3953
    2MOL    H26  748   5.377   6.862   1.898 -1.6538 -0.4834  2.9774
    2MOL    H27  749   5.517   6.924   1.979  2.5745 -0.4208 -0.1544
    2MOL    H28  750   5.536   6.785   1.706  2.4813  0.1503 -1.2815
    2MOL    H29  751   5.675   6.807   1.810 -0.0772  0.8466  3.8464
    2MOL    H30  752   5.605   7.055   1.842 -0.6828 -0.1167 -0.2274
    2MOL    H31  753   5.499   7.032   1.711 -1.1425 -1.6459  0.4201
    2MOL    H32  754   5.711   7.125   1.617  1.0151 -0.0299  1.1019
    2MOL    H33  755   5.801   6.993   1.654 -0.2862 -0.2323 -1.1872
    2MOL    H34  756   5.737   6.858   1.512  0.0845  0.0957  1.9019
    2MOL    H35  757   5.613   6.145   1.883  0.0806  1.5123 -0.1232
    2MOL    H36  758   5.639   6.000   1.678  0.8321 -0.2514  1.2497
    2MOL    H37  759   5.683   5.978   1.446  1.3594 -0.3725 -2.3558
    2MOL    C38  760   5.577   6.954   1.429 -0.7936  0.1988  0.0844
    2MOL    O39  761   5.504   7.051   1.420 -0.2737 -0.4109 -0.2219
    2MOL    C40  762   5.556   6.836   1.336  0.0818  1.2425  0.0473
    2MOL    C41  763   5.579   6.848   1.198 -1.0063  0.4042 -0.0712
    2MOL    C42  764   5.551   6.737   1.112 -0.2875  0.2165 -0.1633
    2MOL    C43  765   5.491   6.622   1.160 -0.3334  0.0029  0.5954
    2MOL    C44  766   5.449   6.517   1.063 -0.5223  0.3742 -0.2892
    2MOL    O45  767   5.483   6.520   0.946  0.3481 -0.2220  0.6751
    2MOL    N46  768   5.363   6.427   1.118  0.0152 -0.6038 -0.0825
    2MOL    C47  769   5.305   6.314   1.045 -0.4227  0.0126 -0.5306
    2MOL    C48  770   5.365   6.183   1.090 -0.2018  0.4891  0.7353
    2MOL    C49  771   5.311   6.148   1.227 -0.3933  0.6746  0.2732
    2MOL    C50  772   5.333   6.007   1.270  0.2831  0.0855  0.7271
    2MOL    C51  773   5.223   5.904   1.238  0.0782  0.3209  0.8987
    2MOL    C52  774   5.246   5.765   1.302  0.5477  0.1112  0.2710
    2MOL    N53  775   5.128   5.680   1.287  0.0721 -0.8741 -0.6791
    2MOL    C54  776   5.472   6.612   1.294  0.0610  0.4266 -0.0432
    2MOL    C55  777   5.495   6.720   1.384 -0.4177 -0.2649 -0.0256
    2MOL    H56  778   5.620   6.941   1.161  2.0559 -0.8834 -0.0305
    2MOL    H57  779   5.575   6.741   1.007  2.9676  1.1991  0.5479
    2MOL    H58  780   5.350   6.424   1.218  0.6097 -2.2678 -0.0271
    2MOL    H59  781   5.198   6.304   1.065 -0.7793  0.9220 -1.8927
    2MOL    H60  782   5.322   6.338   0.940  0.0568  2.3154  0.0638
    2MOL    H61  783   5.474   6.186   1.094 -0.1822 -0.0582  0.7349
    2MOL    H62  784   5.336   6.113   1.012 -1.0812  0.6304  0.9347
    2MOL    H63  785   5.359   6.213   1.300 -0.5170  0.1277  0.8487
    2MOL    H64  786   5.205   6.168   1.240 -1.0421 -1.6042 -1.2119
    2MOL    H65  787   5.354   6.013   1.377 -1.6347 -0.2140  1.1393
    2MOL    H66  788   5.428   5.982   1.224  0.4010  0.8084  0.5622
    2MOL    H67  789   5.225   5.904   1.129  3.4298 -1.5025  0.9050
    2MOL    H68  790   5.125   5.943   1.265 -0.7523 -1.6491  0.8506
    2MOL    H69  791   5.328   5.713   1.253 -2.6233 -2.5858 -2.4215
    2MOL    H70  792   5.277   5.781   1.405  0.1786  0.4406  0.3306
    2MOL    H71  793   5.037   5.721   1.273  0.2880  0.9126  2.6807
    2MOL    H72  794   5.439   6.521   1.343  0.3033  0.6132  0.4731
    2MOL    H73  795   5.463   6.712   1.487  3.5505 -0.0866  1.3332
    2MOL    C74  796   5.132   5.550   1.311  0.2833 -0.1622  0.3090
    2MOL    O75  797   5.234   5.489   1.342  0.0218 -0.0276 -0.4056
    2MOL    C76  798   5.010   5.480   1.272 -0.7906  0.1396 -0.4746
    2MOL    C77  799   4.883   5.544   1.258 -0.7143  0.0498 -0.5413
    2MOL    C78  800   4.769   5.477   1.232 -0.1377  0.0547 -0.4349
    2MOL    C79  801   4.781   5.339   1.198  0.0309 -0.3424  0.4946
    2MOL    C80  802   4.663   5.252   1.160  0.7088  0.0187  0.5427
    2MOL    O81  803   4.647   5.136   1.195  0.6925  0.4580  0.2816
    2MOL    N82  804   4.567   5.322   1.097  0.1532 -0.9832 -0.9853
    2MOL    C83  805   4.430   5.281   1.081 -0.5811 -0.6009  0.1283
    2MOL    C84  806   4.405   5.200   0.959  0.5781 -0.5768  0.6481
    2MOL    C85  807   4.255   5.172   0.926  0.4552 -0.5095 -0.0773
    2MOL    C86  808   4.236   5.059   0.817 -0.2070 -0.7982  0.0237
    2MOL    C87  809   4.304   5.094   0.688 -0.7195  0.8653  0.2863
    2MOL    C88  810   4.218   5.184   0.593 -0.4205 -0.5409 -0.2527
    2MOL    N89  811   4.281   5.193   0.460  0.3175  0.2237 -0.8914
    2MOL    C90  812   4.909   5.279   1.199  0.5231  0.3161  1.0088
    2MOL    C91  813   5.019   5.342   1.250  0.3477  0.4701  0.2914
    2MOL    H92  814   4.876   5.650   1.278  1.3081  0.1261 -0.1372
    2MOL    H93  815   4.677   5.534   1.238  0.7146  1.3040  0.9102
    2MOL    H94  816   4.606   5.396   1.041  1.0434 -0.3983  0.3890
    2MOL    H95  817   4.398   5.234   1.174  0.8759 -1.6301  0.1217
    2MOL    H96  818   4.376   5.374   1.063  0.8359 -0.0741 -1.4701
    2MOL    H97  819   4.459   5.105   0.961 -0.6486 -1.2498  1.9075
    2MOL    H98  820   4.438   5.277   0.889 -2.5301 -0.3783 -0.6646
    2MOL    H99  821   4.201   5.153   1.019 -3.6432  0.4137 -2.1433
    2MOL   H100  822   4.214   5.257   0.872 -0.5862 -0.8007  0.2251
    2MOL   H101  823   4.130   5.042   0.800  0.0896 -0.6201 -2.0875
    2MOL   H102  824   4.283   4.970   0.860 -0.3282 -0.6451  0.4742
    2MOL   H103  825   4.314   4.999   0.635  0.9242  1.5988 -0.7403
    2MOL   H104  826   4.409   5.121   0.697 -0.9427  1.5639  0.8409
    2MOL   H105  827   4.112   5.162   0.610 -0.4473  0.5930  1.0731
    2MOL   H106  828   4.226   5.289   0.620 -2.9864 -0.4530  0.2847
    2MOL   H107  829   4.341   5.117   0.432  1.5443  1.6304 -2.1458
    2MOL   H108  830   4.913   5.173   1.182 -0.6400  0.3748  0.3299
    2MOL   H109  831   5.109   5.285   1.265  0.1479 -0.2748 -1.2186
    2MOL   C110  832   4.243   5.278   0.371  0.4981 -0.2750 -0.9237
    2MOL   O111  833   4.162   5.367   0.383  0.3367  0.1305 -0.6730
    2MOL   C112  834   4.297   5.259   0.237 -0.3683  0.4166  0.4014
    2MOL   C113  835   4.291   5.132   0.175 -0.2737  0.0240 -0.8933
    2MOL   C114  836   4.354   5.109   0.052  0.0619 -0.2971 -0.9180
    2MOL   C115  837   4.424   5.212   7.869  0.0481  0.7181  0.3482
    2MOL   C116  838   4.491   5.179   7.734 -1.2127 -0.4998  0.4529
    2MOL   O117  839   4.529   5.061   7.708  0.0564 -0.3385  0.1448
    2MOL   N118  840   4.495   5.281   7.646  0.1605 -0.2610  0.1482
    2MOL   C119  841   4.557   5.261   7.513 -0.3637  0.1161  0.2968
    2MOL   C120  842   4.711   5.268   7.505  0.2109  0.4432  0.2132
    2MOL   C121  843   4.767   5.405   7.536 -0.0276  1.0319  0.1657
    2MOL   C122  844   4.716   5.520   7.448  0.4469 -0.4913  0.2590
    2MOL   C123  845   4.771   5.509   7.303 -0.3495  0.5827  0.1624
    2MOL   C124  846   4.713   5.619   7.222 -0.2672 -0.1688  0.4986
    2MOL   N125  847   4.781   5.629   7.093  0.0717 -0.6869 -0.1951
    2MOL   C126  848   4.437   5.337   0.051 -0.2128  0.0518  0.0875
    2MOL   C127  849   4.373   5.360   0.172 -0.1364 -0.4574 -0.3224
    2MOL   H128  850   4.229   5.050   0.207  0.4213  0.0818  0.6432
    2MOL   H129  851   4.339   5.013   0.004 -0.4338 -0.1690 -1.0174
    2MOL   H130  852   4.461   5.373   7.672  0.4762 -0.9104  3.0677
    2MOL   H131  853   4.539   5.160   7.476  1.0802  0.1727 -0.5801
    2MOL   H132  854   4.507   5.322   7.437 -2.2031  0.5405  1.8040
    2MOL   H133  855   4.742   5.239   7.405 -0.1406 -1.8851  0.7464
    2MOL   H134  856   4.761   5.197   7.571  0.0562 -1.4853 -1.7173
    2MOL   H135  857   4.755   5.440   7.639 -0.9386 -0.8358  0.7025
    2MOL   H136  858   4.876   5.397   7.532 -0.1504  0.1415 -2.5795
    2MOL   H137  859   4.736   5.616   7.496  0.3303 -0.1498 -0.3796
    2MOL   H138  860   4.608   5.520   7.431  0.0668  0.3003  2.4268
    2MOL   H139  861   4.741   5.420   7.247 -0.0783 -0.2610  1.3275
    2MOL   H140  862   4.880   5.518   7.306 -0.3305  0.1287  3.3147
    2MOL   H141  863   4.605   5.608   7.213 -0.3623 -2.1080  3.3133
    2MOL   H142  864   4.722   5.720   7.262 -1.8561  0.2071 -0.0282
    2MOL   H143  865   4.873   5.671   7.093  0.2567 -1.0935 -0.8004
    2MOL   H144  866   4.489   5.420   0.005 -1.2026 -0.3798 -1.9135
    2MOL   H145  867   4.378   5.461   0.211 -1.0417 -1.3419  2.1472
    2MOL   C146  868   4.714   5.627   6.977  0.0235  0.2669 -0.4091
    2MOL   O147  869   4.593   5.601   6.967  0.3341 -0.5276  0.3439
    2MOL   C148  870   4.794   5.642   6.852  0.2904 -0.6659 -0.0470
    2MOL   C149  871   4.932   5.650   6.853 -0.2239 -0.1241  0.3206
    2MOL   C150  872   5.006   5.659   6.731  0.0573 -0.2578 -0.0582
    2MOL   C151  873   4.941   5.658   6.605 -0.5012 -0.0018 -0.4213
    2MOL   C152  874   5.030   5.657   6.482 -0.8020 -0.6477  0.7846
    2MOL   O153  875   5.153   5.661   6.483  0.5687 -0.1550 -0.0152
    2MOL   N154  876   4.957   5.656   6.371 -0.1039 -0.7356  0.4725
    2MOL   C155  877   5.020   5.678   6.238 -0.0665 -0.1266  0.3408
    2MOL   C156  878   4.984   5.815   6.188 -0.5755 -0.3116 -0.4738
    2MOL   C157  879   5.060   5.876   6.068 -0.8503 -0.3251  0.3705
    2MOL   C158  880   4.990   5.993   5.992 -0.7894 -0.2413 -0.1310
    2MOL   C159  881   4.980   6.120   6.080 -0.2032 -0.1232  0.9925
    2MOL   C160  882   5.101   6.222   6.059 -0.4233  0.3263  0.2612
    2MOL   N161  883   5.093   6.330   6.153 -0.7130  0.0358  0.2199
    2MOL   C162  884   4.800   5.667   6.606  0.2630  0.1245 -0.8718
    2MOL   C163  885   4.729   5.656   6.726  0.4499  0.3739  0.0280
    2MOL   H164  886   4.990   5.658   6.944 -0.0975  0.4833  0.1924
    2MOL   H165  887   5.111   5.682   6.743  0.1969 -0.6072 -0.6026
    2MOL   H166  888   4.856   5.665   6.375  0.0611  0.3294  2.7338
    2MOL   H167  889   5.129   5.676   6.240  0.0339 -0.0835 -2.7715
    2MOL   H168  890   4.997   5.596   6.171  0.1623  0.4224 -0.4107
    2MOL   H169  891   5.013   5.881   6.269 -0.9800  0.3037 -0.8275
    2MOL   H170  892   4.877   5.821   6.170 -0.5624  1.6173  0.0187
    2MOL   H171  893   5.159   5.909   6.098 -1.4521  2.1055 -0.1701
    2MOL   H172  894   5.080   5.797   5.995 -0.4207 -1.4087  1.6531
    2MOL   H173  895   4.892   5.958   5.958 -0.0166 -0.7883 -1.8596
    2MOL   H174  896   5.043   6.013   5.898 -0.2990  0.9751  0.3867
    2MOL   H175  897   4.960   6.101   6.186  0.6190  1.1309  1.3838
    2MOL   H176  898   4.897   6.178   6.041  0.3331 -1.3281 -2.0979
    2MOL   H177  899   5.195   6.168   6.076 -1.4618 -1.7947 -0.5465
    2MOL   H178  900   5.110   6.257   5.956 -1.6829 -0.6941 -0.2049
    2MOL   H179  901   5.147   6.326   6.238  0.3640 -1.5369 -0.5086
    2MOL   H180  902   4.744   5.667   6.514  0.6069  0.6190 -1.0837
    2MOL   H181  903   4.622   5.642   6.723  0.6473 -2.7227  3.5141
    2MOL   C182  904   5.010   6.434   6.147  0.4292  0.1067  0.5599
    2MOL   O183  905   4.945   6.465   6.048  0.0728 -0.1171 -0.5655
    2MOL   C184  906   5.010   6.519   6.265 -0.1424 -1.0112 -0.8509
    2MOL   C185  907   5.033   6.661   6.260  0.2148 -0.4850 -0.7678
    2MOL   C186  908   5.032   6.728   6.383 -0.7307  0.6094  0.3635
    2MOL   C187  909   5.000   6.670   6.505  0.3500 -0.4161 -0.1651
    2MOL   C188  910   5.004   6.747   6.633  0.1623  0.4438  0.3278
    2MOL   O189  911   5.063   6.855   6.645 -0.1657  0.0646 -0.6954
    2MOL   N190  912   4.935   6.698   6.738  0.2791  0.3934  0.4786
    2MOL   C191  913   4.912   6.763   6.862 -0.1506  0.5128 -0.3325
    2MOL   C192  914   4.772   6.843   6.865 -0.3909 -0.4263 -0.1173
    2MOL   C193  915   4.661   6.740   6.882 -0.3087 -0.2123 -0.0076
    2MOL   C194  916   4.518   6.807   6.898  0.5336  0.6308 -0.8375
    2MOL   C195  917   4.465   6.835   6.756  0.7385 -0.0562 -0.9274
    2MOL   C196  918   4.315   6.890   6.742 -0.5840  0.1151  0.1410
    2MOL   N197  919   4.267   6.901   6.605 -0.5589 -0.8178  0.2647
    2MOL   C198  920   4.970   6.535   6.504  0.4972  0.8185  0.8532
    2MOL   C199  921   4.963   6.466   6.383  0.1891  0.4097 -0.1908
    2MOL   H200  922   5.056   6.709   6.166  2.0407  1.8436  0.8074
    2MOL   H201  923   5.058   6.832   6.373 -0.8065  0.4980 -1.0813
    2MOL   H202  924   4.884   6.614   6.713  2.6990 -1.4175  1.3707
    2MOL   H203  925   4.898   6.690   6.941  0.5725  2.9634  2.1461
    2MOL   H204  926   5.000   6.822   6.887 -0.6900 -0.0415  3.1015
    2MOL   H205  927   4.770   6.907   6.777 -0.2127 -0.7907 -0.3886
    2MOL   H206  928   4.773   6.910   6.951 -0.9098 -2.4065  1.4738
    2MOL   H207  929   4.658   6.673   6.796  0.5153  0.8747 -0.8976
    2MOL   H208  930   4.681   6.677   6.968 -1.6411  0.7465  1.0174
    2MOL   H209  931   4.515   6.896   6.961  2.4903 -0.3598  0.7169
    2MOL   H210  932   4.455   6.740   6.956  2.0577 -0.0939  0.0133
    2MOL   H211  933   4.490   6.751   6.691  4.1229  0.0374  0.1669
    2MOL   H212  934   4.522   6.918   6.714  1.5679  0.9275  2.0108
    2MOL   H213  935   4.264   6.814   6.801  1.7751 -1.1544  0.6239
    2MOL   H214  936   4.304   6.988   6.788 -1.1154  0.6581 -1.1190
    2MOL   H215  937   4.252   6.998   6.578  0.7760  0.1122  2.7563
    2MOL   H216  938   4.937   6.485   6.594 -0.3963 -0.6514 -0.2889
    2MOL   H217  939   4.922   6.366   6.386  1.0956  0.0417  0.2838
    2MOL   C218  940   4.230   6.790   6.534  1.0680 -0.3881  0.1051
    2MOL   O219  941   4.260   6.673   6.569  0.1842  0.4304 -0.2474
    2MOL   C220  942   4.178   6.811   6.398  0.1883 -0.5246  0.2899
    2MOL   C221  943   4.201   6.716   6.292  0.2228  0.1086 -0.4167
    2MOL   C222  944   4.178   6.741   6.162 -0.4843 -0.7334  0.3646
    2MOL   C223  945   4.121   6.868   6.129  0.0723 -0.0486 -0.1573
    2MOL   C224  946   4.081   6.894   5.984 -0.4782  0.3812 -0.1916
    2MOL   O225  947   4.081   6.802   5.904  0.2683 -0.0032 -0.2435
    2MOL   N226  948   4.038   7.015   5.952  0.5637  0.4877 -0.0637
    2MOL   C227  949   3.991   7.053   5.818  0.2323  0.5067 -0.9227
    2MOL   C228  950   4.100   7.123   5.731 -0.4399 -0.1831 -0.3295
    2MOL   C229  951   4.218   7.031   5.694 -0.1508 -0.1811 -0.1687
    2MOL   C230  952   4.194   6.911   5.612 -0.2238 -0.0192  0.3785
    2MOL   C231  953   4.306   6.809   5.592  0.3966 -0.3152 -0.4059
    2MOL   C232  954   4.278   6.662   5.568  0.0185 -0.3094 -0.4912
    2MOL   N233  955   4.239   6.599   5.696 -0.4492 -0.0439 -0.2812
    2MOL   C234  956   4.086   6.962   6.227 -0.3087  0.1705  0.4612
    2MOL   C235  957   4.101   6.932   6.359 -0.5901  0.3510  0.1991
    2MOL   H236  958   4.248   6.621   6.316  1.3628  0.3230 -1.7697
    2MOL   H237  959   4.203   6.669   6.085 -1.9377 -0.7495 -0.0951
    2MOL   H238  960   4.041   7.089   6.021  1.5178  0.9530 -0.5794
    2MOL   H239  961   3.941   6.975   5.761  1.8477  0.8297 -2.8515
    2MOL   H240  962   3.905   7.117   5.837 -0.3236 -0.8600  1.3521
    2MOL   H241  963   4.144   7.207   5.783 -2.1599  1.1277 -0.9598
    2MOL   H242  964   4.051   7.166   5.643 -3.8264 -2.8235  0.1240
    2MOL   H243  965   4.297   7.088   5.645  0.1463  0.4311  0.9974
    2MOL   H244  966   4.269   6.998   5.784  1.0534  1.7981 -0.0957
    2MOL   H245  967   4.162   6.934   5.511 -1.2300 -1.1708  0.4285
    2MOL   H246  968   4.112   6.846   5.642 -2.1788  1.3380 -1.8491
    2MOL   H247  969   4.366   6.812   5.683  1.8024  2.7490 -1.3722
    2MOL   H248  970   4.378   6.840   5.517  4.0443 -0.2186  2.9726
    2MOL   H249  971   4.201   6.647   5.492 -0.1138  0.0445 -0.4269
    2MOL   H250  972   4.362   6.600   5.536  1.6165  0.6263  1.8399
    2MOL   H251  973   4.187   6.663   5.754 -0.7008 -1.1352  0.7063
    2MOL   H252  974   4.016   7.040   6.201 -0.6264 -0.8518 -1.8761
    2MOL   H253  975   4.060   7.001   6.431  2.2977  1.4411  0.8598
    2MOL   C254  976   4.268   6.476   5.741 -0.4472  0.1424 -0.8432
    2MOL   O255  977   4.330   6.393   5.678  0.4041  0.2098 -0.2513
    2MOL   C256  978   4.216   6.441   5.881  0.3546  1.0566  0.2175
    2MOL   C257  979   4.095   6.490   5.928  0.5081 -0.0658  0.3133
    2MOL   C258  980   4.044   6.449   6.051  0.4089 -0.2481  0.3245
    2MOL   C259  981   4.126   6.364   6.136  0.5180 -0.9122  0.3046
    2MOL   C260  982   4.087   6.334   6.282 -0.6804 -0.6505 -0.5914
    2MOL   O261  983   4.162   6.265   6.358 -0.0601 -0.3650  0.2203
    2MOL   N262  984   3.977   6.394   6.332  0.6516 -0.2413  0.0977
    2MOL   C263  985   3.937   6.378   6.470 -0.3433  0.9654  0.3572
    2MOL   C264  986   4.024   6.468   6.564  0.1545  0.3838 -0.1464
    2MOL   C265  987   3.966   6.490   6.704 -0.3967  0.1899 -0.3927
    2MOL   C266  988   4.055   6.588   6.794 -0.2493 -0.0837 -0.2629
    2MOL   C267  989   3.986   6.618   6.931 -0.4951  0.1824  0.3483
    2MOL   C268  990   4.068   6.718   7.023 -0.1506 -0.2076  0.0788
    2MOL   N269  991   4.007   6.735   7.161 -0.4506 -0.0478  0.3709
    2MOL   C270  992   4.247   6.315   6.085 -0.0383 -0.5433 -0.3590
    2MOL   C271  993   4.287   6.342   5.956 -0.4350  0.1757  0.7900
    2MOL   H272  994   4.032   6.557   5.871  0.6236 -1.0881 -1.0278
    2MOL   H273  995   3.954   6.494   6.092  0.1100  1.3995 -2.0497
    2MOL   H274  996   3.921   6.461   6.281  1.0348 -0.8992 -1.2245
    2MOL   H275  997   3.832   6.399   6.489 -0.0622  0.8203  2.2297
    2MOL   H276  998   3.945   6.272   6.491 -1.3322  0.7159 -0.5374
    2MOL   H277  999   4.033   6.567   6.519  1.4652  1.2002  1.8141
    2MOL   H278 1000   4.119   6.415   6.569 -1.7363 -3.0862  0.0421
    2MOL   H279 1001   3.869   6.539   6.701 -0.5336  0.2870  3.4753
    2MOL   H280 1002   3.952   6.392   6.749 -1.3039  0.0741 -0.9103
    2MOL   H281 1003   4.091   6.668   6.730  2.0812 -2.4657 -2.0256
    2MOL   H282 1004   4.155   6.551   6.817 -0.0428 -1.6359 -3.5122
    2MOL   H283 1005   3.974   6.525   6.986  1.0466 -0.4339 -0.3350
    2MOL   H284 1006   3.890   6.665   6.908  0.8188  2.0984 -1.4132
    2MOL   H285 1007   4.162   6.664   7.036  0.4895  1.3064  1.9932
    2MOL   H286 1008   4.081   6.818   6.983  0.8057 -0.4076 -0.1241
    2MOL   H287 1009   3.947   6.815   7.175 -2.2724 -1.0215 -1.6603
    2MOL   H288 1010   4.306   6.254   6.152  0.9084  0.2239 -0.4671
    2MOL   H289 1011   4.381   6.299   5.923 -0.7113 -0.1550  0.4306
    2MOL   C290 1012   4.006   6.643   7.257  0.5810  0.6021  0.1536
    2MOL   O291 1013   4.028   6.522   7.230 -0.3080 -0.0427 -0.0017
    2MOL   C292 1014   3.957   6.681   7.394 -0.4917 -0.5718  0.0783
    2MOL   C293 1015   3.950   6.814   7.433  0.4795  0.7192  0.4595
    2MOL   C294 1016   3.909   6.861   7.559  0.0409  0.0790  0.3968
    2MOL   C295 1017   3.874   6.764   7.659 -0.6229  0.3396 -0.0193
    2MOL   C296 1018   3.840   6.806   7.799 -0.2195  0.2173 -0.0792
    2MOL   O297 1019   3.876   6.909   7.850  0.2298 -0.2397 -0.5102
    2MOL   N298 1020   3.758   6.721   7.865  0.0711  0.4750  0.0545
    2MOL   C299 1021   3.729   6.738   0.120  0.0187  0.0994 -0.0112
    2MOL   C300 1022   3.826   6.671   0.221  0.2768  0.1361  0.0465
    2MOL   C301 1023   3.979   6.709   0.207  0.3511  0.4231 -0.5868
    2MOL   C302 1024   4.050   6.618   0.101  0.6387  0.0026 -0.8065
    2MOL   C303 1025   4.189   6.661   0.073  0.0796 -0.6979 -0.0946
    2MOL   C304 1026   4.267   6.561   7.874  0.4503  0.2422 -1.0401
    2MOL   N305 1027   4.402   6.618   7.852  0.3759  0.4328  0.2305
    2MOL   C306 1028   3.888   6.627   7.620 -0.2174 -0.1960 -0.7515
    2MOL   C307 1029   3.932   6.587   7.496 -0.1860  0.2241  0.0723
    2MOL   H308 1030   3.984   6.890   7.363  0.0417  1.6773  1.2752
    2MOL   H309 1031   3.911   6.967   7.582 -1.1904 -0.3109  2.4098
    2MOL   H310 1032   3.717   6.642   7.817 -2.1499  0.5402  1.7711
    2MOL   H311 1033   3.733   6.844   0.144  2.2279  0.6816 -2.6332
    2MOL   H312 1034   3.627   6.702   0.136 -0.8259  2.7660  0.8149
    2MOL   H313 1035   3.816   6.566   0.192  0.0448  0.1939 -0.0825
    2MOL   H314 1036   3.793   6.684   0.324 -1.4627 -0.2992 -0.4500
    2MOL   H315 1037   3.980   6.816   0.186  2.0785  0.3107 -1.1342
    2MOL   H316 1038   4.019   6.685   0.306  1.1489  0.4844 -0.8910
    2MOL   H317 1039   3.990   6.613   0.010 -2.7061  1.3775  1.2114
    2MOL   H318 1040   4.044   6.516   0.139 -0.4026  1.1369  2.1970
    2MOL   H319 1041   4.248   6.653   0.165  1.0571 -0.2620 -0.6795
    2MOL   H320 1042   4.188   6.760   0.028  0.2239  1.3583  4.2022
    2MOL   H321 1043   4.288   6.477   0.053  2.8998  2.3620  1.0085
    2MOL   H322 1044   4.208   6.531   7.788  0.4121 -0.1986 -0.8598
    2MOL   H323 1045   4.474   6.609   0.037  0.9481 -1.1883 -0.5144
    2MOL   H324 1046   3.853   6.547   7.684  1.7012 -0.1943  0.3513
    2MOL   H325 1047   3.922   6.484   7.466  0.8217  0.1807 -0.1568
    2MOL   C326 1048   4.450   6.667   7.736 -0.0439 -0.2809  0.6107
    2MOL   O327 1049   4.373   6.687   7.641  0.2699  0.0118  0.2649
    2MOL   C328 1050   4.602   6.677   7.732  0.2420  0.0434  0.3461
    2MOL   C329 1051   4.671   6.749   7.832  0.0983  0.5964  0.1175
    2MOL   C330 1052   4.809   6.784   7.823 -0.5505 -0.1278  0.5882
    2MOL   C331 1053   4.877   6.741   7.709 -0.4442 -0.1411 -0.1418
    2MOL   C332 1054   5.030   6.759   7.694  0.3210 -0.5212  0.7338
    2MOL   O333 1055   5.075   6.807   7.588  0.3457 -0.5908 -0.3115
    2MOL   N334 1056   5.102   6.703   7.792  0.2857 -0.4925  0.3069
    2MOL   C335 1057   5.245   6.669   7.762  0.0391 -0.6447 -0.5892
    2MOL   C336 1058   5.339   6.724   7.865 -0.2691 -0.0891 -0.8281
    2MOL   C337 1059   5.369   6.877   7.861  0.3025 -0.0360  0.7177
    2MOL   C338 1060   5.260   6.968   0.012  0.2646 -0.4490 -0.3493
    2MOL   C339 1061   5.210   6.969   0.156  0.2114 -0.1699  0.2022
    2MOL   C340 1062   5.107   7.072   0.201 -0.6081 -0.2281 -0.0298
    2MOL   N341 1063   5.049   7.054   0.337  0.1410 -0.0452  0.6617
    2MOL   C342 1064   4.812   6.669   7.607  0.1713  0.0092 -0.2080
    2MOL   C343 1065   4.671   6.647   7.616  0.1875 -0.1255 -0.7646
    2MOL   H344 1066   4.618   6.779   0.035  2.2597  1.1407  1.2570
    2MOL   H345 1067   4.851   6.831   0.025 -0.3352 -2.1864  1.6239
    2MOL   H346 1068   5.059   6.679   7.880  1.4151  0.9654  1.2906
    2MOL   H347 1069   5.244   6.560   7.760 -1.7417 -0.7008  1.1365
    2MOL   H348 1070   5.278   6.694   7.662  0.4493  0.1244 -0.2649
    2MOL   H349 1071   5.434   6.671   7.856  0.1471  0.1966  1.5507
    2MOL   H350 1072   5.290   6.719   0.076  0.9545 -2.5221 -0.3136
    2MOL   H351 1073   5.458   6.910   0.029  2.3509 -0.5929 -2.2130
    2MOL   H352 1074   5.391   6.902   7.757  0.6921 -2.3066  0.2230
    2MOL   H353 1075   5.181   6.944   7.828 -1.6263 -0.0079  1.5977
    2MOL   H354 1076   5.300   7.066   7.871  1.7960 -1.2748 -1.1724
    2MOL   H355 1077   5.299   6.976   0.219 -0.4647 -0.6314  1.2087
    2MOL   H356 1078   5.157   6.877   0.179 -1.4442  0.5799 -0.5806
    2MOL   H357 1079   5.146   7.172   0.178  0.5428 -0.8882 -0.9931
    2MOL   H358 1080   5.028   7.060   0.127 -1.1470  0.7583  0.3666
    2MOL   H359 1081   5.088   7.115   0.408  4.2274 -1.2258 -0.4364
    2MOL   H360 1082   4.861   6.641   7.515  1.5160  2.1868 -0.1817
    2MOL   H361 1083   4.613   6.607   7.535  0.8655 -1.3194 -0.6663
    2MOL   C362 1084   4.968   6.959   0.384 -0.1500  0.6223 -1.0187
    2MOL   O363 1085   4.916   6.876   0.304 -0.0633  0.4273 -0.0230
    2MOL   C364 1086   4.927   6.954   0.525  0.2396  0.7323  0.3048
    2MOL   C365 1087   4.925   6.826   0.598  0.3079 -0.2408  0.1469
    2MOL   C366 1088   4.882   6.822   0.732 -0.1795 -0.4135  0.2742
    2MOL   C367 1089   4.848   6.941   0.799  0.1226  0.1166 -1.3704
    2MOL   C368 1090   4.801   6.933   0.945 -0.6189  0.3021 -0.1212
    2MOL   O369 1091   4.844   6.846   1.026 -0.0669 -0.6419 -0.0861
    2MOL   N370 1092   4.712   7.021   0.982 -0.0289 -0.1869 -0.0225
    2MOL   C371 1093   4.675   7.048   1.118  0.4182  0.7870  0.4412
    2MOL   C372 1094   4.556   6.964   1.168  0.9177 -0.3532  0.2142
    2MOL   C373 1095   4.512   7.009   1.310  0.3384  0.0965 -0.1910
    2MOL   C374 1096   4.522   6.887   1.415  0.2339  0.2540  1.0414
    2MOL   C375 1097   4.656   6.884   1.486 -1.0494  0.7710 -0.3729
    2MOL   C376 1098   4.661   6.782   1.597 -0.1763  0.6091 -0.5813
    2MOL   N377 1099   4.648   6.645   1.551 -0.0258  0.5061  0.5919
    2MOL   C378 1100   4.846   7.062   0.729  0.1921  0.3746  0.1469
    2MOL   C379 1101   4.888   7.067   0.595  0.2202  0.1562 -0.6279
    2MOL   H380 1102   4.944   6.735   0.545 -2.2698 -0.4242 -0.5272
    2MOL   H381 1103   4.868   6.729   0.784 -3.6970  0.1730  0.4402
    2MOL   H382 1104   4.676   7.095   0.923 -6.6609 -1.0669  2.4494
    2MOL   H383 1105   4.756   7.033   1.189  0.0125 -0.2973  0.6849
    2MOL   H384 1106   4.654   7.155   1.126 -1.1078  0.3265  3.1036
    2MOL   H385 1107   4.583   6.860   1.150  2.3557  0.3215 -1.6832
    2MOL   H386 1108   4.474   6.975   1.097  0.9414  1.0742  0.4003
    2MOL   H387 1109   4.557   7.104   1.337  0.2043  0.2871 -0.6308
    2MOL   H388 1110   4.406   7.034   1.312 -0.3989 -2.4694 -2.9083
    2MOL   H389 1111   4.510   6.792   1.362 -1.8068  1.5396 -0.8673
    2MOL   H390 1112   4.444   6.890   1.491  0.5749 -0.4497  1.4287
    2MOL   H391 1113   4.684   6.984   1.519  0.2473 -0.0834  1.1766
    2MOL   H392 1114   4.740   6.863   1.420  0.1041 -0.7212  1.5250
    2MOL   H393 1115   4.756   6.799   1.648 -0.7055  2.4169 -0.1552
    2MOL   H394 1116   4.584   6.806   1.671  1.0119 -1.6076  1.4479
    2MOL   H395 1117   4.553   6.615   1.537 -0.2169  0.3467  2.1033
    2MOL   H396 1118   4.810   7.149   0.782 -1.6502 -0.2076 -0.1158
    2MOL   H397 1119   4.887   7.161   0.540  0.7249  0.3326 -0.3368
    2MOL   C398 1120   4.745   6.547   1.547  0.0383  0.0031  0.1224
    2MOL   O399 1121   4.856   6.559   1.596 -0.0816  0.2007 -0.2144
    2MOL   C400 1122   4.700   6.416   1.486  0.0555 -0.1951 -0.4177
    2MOL   C401 1123   4.707   6.293   1.558 -0.9689  0.4610 -0.1404
    2MOL   C402 1124   4.652   6.177   1.511  0.7021  0.0775 -0.8338
    2MOL   C403 1125   4.582   6.179   1.384 -0.0031  0.6717  0.0911
    2MOL   C404 1126   4.521   6.056   1.328  0.2564 -0.2937  0.0251
    2MOL   O405 1127   4.506   6.045   1.205  0.1145  0.4339  0.2667
    2MOL   N406 1128   4.490   5.955   1.413  0.3632 -0.0441 -0.8533
    2MOL   C407 1129   4.477   5.820   1.363 -0.9606  0.2599  0.8130
    2MOL   C408 1130   4.483   5.720   1.464 -0.2763 -0.9952  0.4128
    2MOL   C409 1131   4.606   5.728   1.556  0.6055 -0.3537 -0.4363
    2MOL   C410 1132   4.619   5.607   1.645 -0.2068 -0.1050 -0.5289
    2MOL   C411 1133   4.649   5.475   1.564 -0.1202 -0.4343  0.2893
    2MOL   C412 1134   4.702   5.361   1.664 -0.5459 -1.1161  0.3950
    2MOL   N413 1135   4.722   5.238   1.591 -0.0239  0.2963  0.1001
    2MOL   C414 1136   4.582   6.301   1.307  0.2337  0.4430  0.1275
    2MOL   C415 1137   4.644   6.418   1.352 -0.6362  0.3774 -0.6503
    2MOL   H416 1138   4.754   6.271   1.653  0.0411 -3.4182 -1.4536
    2MOL   H417 1139   4.648   6.087   1.570  0.5216  0.4622 -0.2629
    2MOL   H418 1140   4.481   5.974   1.512  0.1761 -0.7890 -0.7227
    2MOL   H419 1141   4.385   5.812   1.305 -0.8086 -1.0293  0.7242
    2MOL   H420 1142   4.552   5.808   1.284 -1.6114  1.7135 -0.0422
    2MOL   H421 1143   4.470   5.618   1.427  0.2956 -0.7270 -0.5207
    2MOL   H422 1144   4.401   5.756   1.526 -1.5123 -0.0971 -1.7382
    2MOL   H423 1145   4.694   5.740   1.494  0.5968 -0.3725 -0.4509
    2MOL   H424 1146   4.593   5.817   1.618  0.3692  0.6274 -1.8586
    2MOL   H425 1147   4.536   5.596   1.714 -0.4697  0.7416 -0.6976
    2MOL   H426 1148   4.697   5.634   1.716  0.3590  1.1324 -1.6031
    2MOL   H427 1149   4.725   5.493   1.487  0.8736 -0.3973  1.2667
    2MOL   H428 1150   4.562   5.438   1.510 -1.1647 -0.4979  1.9914
    2MOL   H429 1151   4.782   5.380   1.735 -0.5192 -1.3935  0.4418
    2MOL   H430 1152   4.620   5.345   1.733  1.0342 -1.4488  2.2334
    2MOL   H431 1153   4.643   5.178   1.571  0.2617 -0.3557  0.9312
    2MOL   H432 1154   4.547   6.293   1.205  0.5048 -2.5534  0.2317
    2MOL   H433 1155   4.630   6.506   1.291 -0.0785  1.9372  1.4050
    2MOL   C434 1156   4.838   5.179   1.561 -0.1423  0.1543  0.8410
    2MOL   O435 1157   4.948   5.232   1.581  0.8775  0.1740  0.0159
    2MOL   C436 1158   4.829   5.048   1.494 -0.4709 -0.0234 -0.3535
    2MOL   C437 1159   4.709   4.976   1.510 -0.5381  0.6642  0.3897
    2MOL   C438 1160   4.685   4.856   1.447 -0.4159  0.3106  0.7272
    2MOL   C439 1161   4.783   4.809   1.354 -0.2674 -0.2572  0.1776
    2MOL   C440 1162   4.764   4.678   1.284  0.1860 -0.1003 -0.1793
    2MOL   O441 1163   4.853   4.592   1.291 -0.4819  0.0175 -0.6620
    2MOL   N442 1164   4.647   4.667   1.219  0.0263  0.7154 -0.0591
    2MOL   C443 1165   4.609   4.552   1.138  0.5843  0.5979 -1.0600
    2MOL   C444 1166   4.591   4.586   0.986  0.0779 -0.4094 -0.2719
    2MOL   C445 1167   4.516   4.721   0.963  0.0156  0.8249 -0.9559
    2MOL   C446 1168   4.524   4.776   0.820  0.0430  0.1864 -0.1284
    2MOL   C447 1169   4.672   4.789   0.767 -0.4118  0.0964  0.0406
    2MOL   C448 1170   4.673   4.860   0.628  0.3492 -0.0761 -0.0350
    2MOL   N449 1171   4.594   4.781   0.529 -0.3137 -0.1292  0.0396
    2MOL   C450 1172   4.903   4.879   1.330 -0.5183 -0.5412  0.3424
    2MOL   C451 1173   4.925   5.000   1.400 -0.3100  0.4241 -0.4283
    2MOL   H452 1174   4.628   5.023   1.565 -0.0700 -0.0871  1.7584
    2MOL   H453 1175   4.585   4.817   1.459 -0.7014  0.9960  0.5918
    2MOL   H454 1176   4.593   4.752   1.230 -0.0268  0.5536  0.9257
    2MOL   H455 1177   4.667   4.460   1.141  0.4519  0.4783 -1.9971
    2MOL   H456 1178   4.508   4.518   1.163  0.5869  0.4214 -1.2834
    2MOL   H457 1179   4.528   4.507   0.945 -0.2163 -0.1729 -0.2792
    2MOL   H458 1180   4.689   4.588   0.938 -1.1721  2.0437 -2.8919
    2MOL   H459 1181   4.412   4.699   0.990  0.3605  1.4323  0.9815
    2MOL   H460 1182   4.548   4.807   1.021  1.5370  0.3458 -1.0667
    2MOL   H461 1183   4.480   4.875   0.834 -0.7672 -0.3572  1.3192
    2MOL   H462 1184   4.460   4.714   0.757  1.3746 -2.0380  0.6560
    2MOL   H463 1185   4.701   4.687   0.744  1.4313  0.8062 -0.8355
    2MOL   H464 1186   4.735   4.835   0.843  0.4749 -0.2511 -0.4750
    2MOL   H465 1187   4.651   4.966   0.642 -2.0649 -0.7316  1.3970
    2MOL   H466 1188   4.770   4.875   0.582  0.4846  2.0434  0.8709
    2MOL   H467 1189   4.618   4.684   0.513  1.1109  0.3197 -0.7038
    2MOL   H468 1190   4.981   4.834   1.271 -1.6458 -2.6413  0.3841
    2MOL   H469 1191   5.020   5.047   1.379 -1.2224  0.7591 -4.1235
    2MOL   C470 1192   4.506   4.829   0.443  0.2028  0.0102 -0.1604
    2MOL   O471 1193   4.476   4.952   0.433 -0.4144  0.0440 -0.4310
    2MOL   C472 1194   4.444   4.740   0.345  0.2289 -0.3587  0.4132
    2MOL   C473 1195   4.367   4.633   0.395 -0.1291 -0.3128 -0.1293
    2MOL   C474 1196   4.304   4.551   0.300  0.3677 -0.0924 -0.2617
    2MOL   C475 1197   4.312   4.566   0.166 -0.9338 -0.8235 -0.2949
    2MOL   C476 1198   4.245   4.471   0.068 -0.5006  0.5440 -0.8821
    2MOL   O477 1199   4.219   4.354   0.110  0.3943 -0.0505 -0.1677
    2MOL   N478 1200   4.219   4.516   7.833  0.1586 -0.5043 -0.0056
    2MOL   C479 1201   4.143   4.433   7.734  0.1541  0.0063  0.1301
    2MOL   C480 1202   3.991   4.432   7.776 -0.1892  0.4761  0.0886
    2MOL   C481 1203   3.913   4.562   7.748  0.4894  0.4035 -0.0486
    2MOL   C482 1204   3.760   4.534   7.772  0.4775  0.4961 -0.1621
    2MOL   C483 1205   3.677   4.456   7.673  0.6892 -0.1100 -0.6144
    2MOL   C484 1206   3.640   4.520   7.539  0.2521 -0.3118 -0.0276
    2MOL   N485 1207   3.557   4.448   7.448 -0.0913 -0.2771  0.3943
    2MOL   C486 1208   4.393   4.674   0.117 -0.1035  0.1851  0.0585
    2MOL   C487 1209   4.453   4.772   0.202 -0.4534 -0.2086 -0.2758
    2MOL   H488 1210   4.359   4.611   0.500  1.6449  2.5917  0.6825
    2MOL   H489 1211   4.244   4.468   0.336 -1.4173  1.0688 -0.5526
    2MOL   H490 1212   4.268   4.600   7.805  1.9319 -1.3611  0.4466
    2MOL   H491 1213   4.144   4.489   7.641 -1.9113 -0.9848 -0.5188
    2MOL   H492 1214   4.178   4.333   7.711 -1.2463 -0.5859  0.4957
    2MOL   H493 1215   3.977   4.396   7.878 -0.9126  0.8391  0.1195
    2MOL   H494 1216   3.946   4.350   7.721  0.2990  0.4127 -0.2190
    2MOL   H495 1217   3.944   4.635   7.823 -1.7332  1.5868 -0.2484
    2MOL   H496 1218   3.921   4.605   7.648 -0.8172 -0.2933 -0.4686
    2MOL   H497 1219   3.702   4.624   7.791  0.7544  1.1310 -2.2064
    2MOL   H498 1220   3.747   4.490   7.871 -1.6444 -0.0433 -0.6577
    2MOL   H499 1221   3.586   4.425   7.724  0.4346  1.8408  0.1881
    2MOL   H500 1222   3.726   4.363   7.643 -1.4699 -1.7316  0.7800
    2MOL   H501 1223   3.590   4.616   7.558 -1.7234 -1.1369 -0.8709
    2MOL   H502 1224   3.728   4.545   7.481  0.8976 -1.3515  0.4758
    2MOL   H503 1225   3.560   4.348   7.462 -2.1302 -0.4224 -0.0416
    2MOL   H504 1226   4.398   4.687   0.010 -2.3845  0.1625 -0.0769
    2MOL   H505 1227   4.501   4.862   0.167 -0.7354 -0.1116 -0.4074
    2MOL   C506 1228   3.438   4.491   7.400  0.3408 -0.2059 -0.3297
    2MOL   O507 1229   3.408   4.614   7.398  0.7505 -0.6974  0.0061
    2MOL   C508 1230   3.340   4.388   7.348 -0.1134  0.0554 -0.2128
    2MOL   C509 1231   3.340   4.255   7.388 -0.1092 -0.8128 -0.3669
    2MOL   C510 1232   3.234   4.168   7.358  0.1508  0.0048  0.2056
    2MOL   C511 1233   3.128   4.207   7.277 -0.0340  0.2170 -0.5262
    2MOL   C512 1234   3.014   4.119   7.240  0.7470 -0.0504  0.0342
    2MOL   O513 1235   2.912   4.177   7.198 -0.1482  0.6474 -0.1199
    2MOL   N514 1236   3.024   3.988   7.257 -0.0027  0.1339 -0.0156
    2MOL   C515 1237   2.912   3.896   7.280 -0.6103 -0.4966  0.3470
    2MOL   C516 1238   2.918   3.837   7.422  1.1026  0.2056  0.0249
    2MOL   C517 1239   3.023   3.724   7.450  0.1651 -0.1033 -0.0552
    2MOL   C518 1240   3.040   3.696   7.604 -0.2090  0.6359  0.0227
    2MOL   C519 1241   3.136   3.786   7.686 -0.6666  0.2487 -0.6896
    2MOL   C520 1242   3.147   3.761   7.834 -0.2838 -0.0544 -0.4779
    2MOL   N521 1243   3.025   3.784   0.020  0.2314  0.2413  0.4705
    2MOL   C522 1244   3.127   4.341   7.233 -0.8856  0.0292 -0.1601
    2MOL   C523 1245   3.235   4.430   7.269 -0.6392  0.3563  0.0296
    2MOL   H524 1246   3.416   4.225   7.459  0.4089  1.8486  0.2314
    2MOL   H525 1247   3.235   4.073   7.409  1.6443  1.0204  2.1547
    2MOL   H526 1248   3.109   3.942   7.286  0.6204  1.5579  0.4911
    2MOL   H527 1249   2.829   3.966   7.274  1.3660  1.8127 -0.8654
    2MOL   H528 1250   2.926   3.824   7.199  1.9028 -0.2415  0.5093
    2MOL   H529 1251   2.820   3.804   7.456  1.4693 -0.9977 -0.0781
    2MOL   H530 1252   2.931   3.912   7.500  0.7343 -0.9413  1.1991
    2MOL   H531 1253   2.986   3.631   7.407 -1.6287  0.0976  1.0068
    2MOL   H532 1254   3.125   3.748   7.421  0.4644 -1.5284 -0.2605
    2MOL   H533 1255   3.057   3.591   7.628  0.2613  0.7981  0.4051
    2MOL   H534 1256   2.949   3.712   7.660  1.2808  1.5260  2.2469
    2MOL   H535 1257   3.113   3.892   7.672  0.9843  1.1009  2.6385
    2MOL   H536 1258   3.236   3.795   7.643 -0.6516  0.8827 -0.5375
    2MOL   H537 1259   3.185   3.660   7.851 -1.8820 -0.5619  0.2227
    2MOL   H538 1260   3.226   3.815   7.885 -1.8278 -1.2953  3.4023
    2MOL   H539 1261   2.963   3.705   0.025 -0.0517  0.3377 -1.2329
    2MOL   H540 1262   3.048   4.375   7.169 -2.4925 -1.7591  0.8252
    2MOL   H541 1263   3.230   4.530   7.228 -0.4736 -0.1829 -1.3197
    2MOL   C542 1264   2.989   3.896   0.080 -0.9514 -0.0197 -0.3111
    2MOL   O543 1265   3.059   3.997   0.087  0.2672  0.3273 -0.5276
    2MOL   C544 1266   2.864   3.892   0.160 -0.1284  0.6585 -0.4796
    2MOL   C545 1267   2.752   3.825   0.117  0.3315 -1.2620  0.0241
    2MOL   C546 1268   2.633   3.808   0.191  0.1659 -0.0237  0.1448
    2MOL   C547 1269   2.628   3.870   0.322 -0.0516  0.0618  0.2182
    2MOL   C548 1270   2.511   3.860   0.418 -0.0097 -0.0295  0.0718
    2MOL   O549 1271   2.497   3.947   0.506 -0.4870 -0.0381  0.5048
    2MOL   N550 1272   2.448   3.747   0.410 -0.3630  0.9552 -0.3866
    2MOL   C551 1273   2.347   3.709   0.506 -0.2224  0.2560 -0.3284
    2MOL   C552 1274   2.377   3.571   0.562 -0.1298  0.2638  0.5802
    2MOL   C553 1275   2.508   3.570   0.638  0.1185  0.8686  0.0510
    2MOL   C554 1276   2.518   3.450   0.737  0.2865  0.0126  0.4760
    2MOL   C555 1277   2.656   3.461   0.809  0.1197  0.6015  0.1184
    2MOL   C556 1278   2.689   3.344   0.893 -0.3187  0.2655 -0.8524
    2MOL   N557 1279   2.800   3.375   0.989 -0.3542  0.3666 -0.5340
    2MOL   C558 1280   2.741   3.950   0.366  0.2674  0.3412 -0.4906
    2MOL   C559 1281   2.856   3.954   0.283 -0.3209 -0.0549  0.0875
    2MOL   H560 1282   2.757   3.776   0.021 -0.1372  2.7773 -2.1855
    2MOL   H561 1283   2.555   3.747   0.148  1.4554 -0.5195 -1.5465
    2MOL   H562 1284   2.486   3.679   0.346  2.3938  1.2190  0.9313
    2MOL   H563 1285   2.333   3.785   0.583 -1.2823 -0.5814  0.3090
    2MOL   H564 1286   2.252   3.713   0.451 -0.4409  0.6081  0.0722
    2MOL   H565 1287   2.382   3.490   0.489  3.5684  0.7415  0.2370
    2MOL   H566 1288   2.290   3.548   0.623 -1.2696  1.6320 -0.4922
    2MOL   H567 1289   2.590   3.557   0.567  0.1808 -0.8504  0.4315
    2MOL   H568 1290   2.524   3.665   0.688  1.4889  0.2095  0.8666
    2MOL   H569 1291   2.516   3.349   0.696 -0.1784  0.1769  0.0830
    2MOL   H570 1292   2.436   3.454   0.808 -1.2459  0.8991 -1.2805
    2MOL   H571 1293   2.670   3.558   0.857  1.7891  0.8101 -0.7726
    2MOL   H572 1294   2.733   3.452   0.732  0.8525  0.0857  0.9120
    2MOL   H573 1295   2.601   3.318   0.951  0.5846 -0.2020  0.3259
    2MOL   H574 1296   2.708   3.255   0.833  1.4410 -0.0703  0.1509
    2MOL   H575 1297   2.838   3.469   0.988 -2.4423  1.3332  2.1510
    2MOL   H576 1298   2.725   3.994   0.464 -3.1884  0.1731 -0.9365
    2MOL   H577 1299   2.936   3.999   0.340 -1.5647 -0.7723  2.4691
    2MOL   C578 1300   2.872   3.275   1.041 -0.5346 -0.0337 -0.2157
    2MOL   O579 1301   2.824   3.165   1.039  0.6952 -0.9047  0.1093
    2MOL   C580 1302   3.002   3.294   1.114 -0.4077  0.5352 -0.2480
    2MOL   C581 1303   3.048   3.199   1.204 -0.6986  0.6084  0.0498
    2MOL   C582 1304   3.167   3.223   1.270  0.0425  0.1575  0.8124
    2MOL   C583 1305   3.235   3.346   1.255 -0.1305 -0.5275 -0.1719
    2MOL   C584 1306   3.347   3.376   1.347 -0.4963  0.0418  0.7559
    2MOL   O585 1307   3.385   3.490   1.369  0.1104 -0.3328 -0.3153
    2MOL   N586 1308   3.404   3.279   1.417  0.4968 -0.2042  0.2652
    2MOL   C587 1309   3.522   3.289   1.506 -0.4756 -0.3337  0.0105
    2MOL   C588 1310   3.469   3.241   1.641 -0.7367 -0.0725 -1.1162
    2MOL   C589 1311   3.596   3.220   1.732  0.2599 -0.1901 -0.0237
    2MOL   C590 1312   3.571   3.131   1.854 -0.0232  0.3745 -0.2636
    2MOL   C591 1313   3.604   2.980   1.830 -0.2024 -0.6588 -0.0589
    2MOL   C592 1314   3.574   2.892   1.960  0.1242  0.8298 -0.4945
    2MOL   N593 1315   3.565   2.759   1.909 -0.1785  0.7383  0.4398
    2MOL   C594 1316   3.185   3.441   1.164  0.1614  0.1573  0.5052
    2MOL   C595 1317   3.071   3.410   1.089 -0.2059  0.5659 -0.7365
    2MOL   H596 1318   2.987   3.112   1.224 -0.6581  0.9145  1.5715
    2MOL   H597 1319   3.198   3.146   1.339  0.5559  0.5494  1.0220
    2MOL   H598 1320   3.388   3.185   1.385 -0.8383  0.1572 -0.1852
    2MOL   H599 1321   3.608   3.228   1.478  1.1341  0.4396  3.0367
    2MOL   H600 1322   3.560   3.391   1.512 -0.1050 -0.6495  4.2696
    2MOL   H601 1323   3.418   3.146   1.625  0.9733 -1.2999  0.4857
    2MOL   H602 1324   3.407   3.323   1.676 -0.5254  0.5636 -2.2177
    2MOL   H603 1325   3.685   3.191   1.676 -0.1079 -1.3455 -0.0215
    2MOL   H604 1326   3.615   3.323   1.764  0.1183  0.3927 -1.7478
    2MOL   H605 1327   3.467   3.135   1.888  0.7622 -1.5191  2.5305
    2MOL   H606 1328   3.632   3.169   1.936  1.1052 -1.0156 -0.4523
    2MOL   H607 1329   3.708   2.963   1.805 -0.0384 -0.6902  0.6321
    2MOL   H608 1330   3.551   2.947   1.740 -0.3912  0.1260 -0.2374
    2MOL   H609 1331   3.649   2.910   2.037  0.5041 -0.1201 -0.6238
    2MOL   H610 1332   3.476   2.920   1.997  1.2989  2.0374  1.8032
    2MOL   H611 1333   3.525   2.741   1.818  3.2767 -2.7678 -0.4880
    2MOL   H612 1334   3.226   3.540   1.156 -2.0602  1.0472 -0.5453
    2MOL   H613 1335   3.034   3.497   1.036  0.9783  1.1393 -0.6438
    2MOL   C614 1336   3.623   2.654   1.967 -0.2389 -0.5546 -0.2251
    2MOL   O615 1337   3.676   2.658   2.076 -0.1786  0.5004 -0.2511
    2MOL   C616 1338   3.622   2.527   1.889  0.4036 -0.8806 -0.4218
    2MOL   C617 1339   3.596   2.410   1.959 -0.0728 -0.3516  0.9223
    2MOL   C618 1340   3.581   2.288   1.883  0.3604 -0.6966 -0.2708
    2MOL   C619 1341   3.595   2.283   1.742  0.4044  0.2105 -0.0654
    2MOL   C620 1342   3.580   2.155   1.670 -0.3628 -0.6093  0.8644
    2MOL   O621 1343   3.558   2.152   1.551 -0.2297 -0.0942  0.2865
    2MOL   N622 1344   3.609   2.045   1.735  0.2240  0.2302  0.1062
    2MOL   C623 1345   3.587   1.912   1.691 -0.0843  0.1333 -0.1503
    2MOL   C624 1346   3.447   1.865   1.721 -0.3232 -0.0856 -0.1650
    2MOL   C625 1347   3.409   1.736   1.655 -0.6957  0.2832 -0.2029
    2MOL   C626 1348   3.383   1.752   1.508 -0.2793 -1.0246  0.2616
    2MOL   C627 1349   3.372   1.621   1.442  0.2296 -0.1715 -0.3575
    2MOL   C628 1350   3.348   1.625   1.292 -0.2040  0.0487  0.1450
    2MOL   N629 1351   3.345   1.490   1.229 -0.1334  0.0222 -0.1639
    2MOL   C630 1352   3.624   2.406   1.669  0.4436 -0.3983  0.0065
    2MOL   C631 1353   3.639   2.522   1.749 -0.7332  0.5362  0.2130
    2MOL   H632 1354   3.585   2.411   2.067 -0.6763 -1.0343  0.8720
    2MOL   H633 1355   3.554   2.195   1.931  0.8878 -1.5586 -1.6206
    2MOL   H634 1356   3.637   2.047   1.832  2.1992 -0.4583 -0.4084
    2MOL   H635 1357   3.601   1.902   1.583 -1.2876 -0.1817 -0.2841
    2MOL   H636 1358   3.654   1.848   1.749 -1.0711 -1.4383 -0.7165
    2MOL   H637 1359   3.375   1.941   1.692 -2.2419 -1.8912 -0.2558
    2MOL   H638 1360   3.439   1.858   1.830  3.6585 -2.5297  0.0753
    2MOL   H639 1361   3.491   1.665   1.668 -0.8024  0.3460  0.8648
    2MOL   H640 1362   3.322   1.695   1.706  0.5975 -3.0368 -0.5162
    2MOL   H641 1363   3.446   1.821   1.452 -3.0334  1.8417  0.5808
    2MOL   H642 1364   3.285   1.798   1.508 -0.3679 -1.1860 -1.3834
    2MOL   H643 1365   3.293   1.570   1.497 -0.1988  0.8835  0.0236
    2MOL   H644 1366   3.460   1.564   1.473  1.8065  0.9259 -2.6549
    2MOL   H645 1367   3.245   1.652   1.271 -0.8964 -1.6680  1.2713
    2MOL   H646 1368   3.408   1.697   1.234 -0.4204  0.1366  0.0309
    2MOL   H647 1369   3.309   1.412   1.282  0.8534 -0.6790 -0.5244
    2MOL   H648 1370   3.646   2.416   1.563  0.5506 -1.0046 -0.0280
    2MOL   H649 1371   3.657   2.611   1.691  0.0116 -0.9500 -1.8845
    2MOL   C650 1372   3.368   1.459   1.100  0.3393 -0.2737  0.1074
    2MOL   O651 1373   3.384   1.533   1.004 -0.1797  0.6223  0.0308
    2MOL   C652 1374   3.360   1.313   1.073  0.2472  0.0848 -0.2004
    2MOL   C653 1375   3.300   1.268   0.950 -0.8405 -0.2085 -0.1564
    2MOL   C654 1376   3.302   1.125   0.924 -0.6247 -0.0127  0.4309
    2MOL   C655 1377   3.362   1.033   1.012  0.4762 -0.0671 -0.1014
    2MOL   C656 1378   3.367   0.884   0.980 -0.2493 -0.8226 -0.5489
    2MOL   O657 1379   3.454   0.812   1.030 -1.4570  0.2279 -0.6417
    2MOL   N658 1380   3.264   0.841   0.907  0.0751  0.3774  0.4365
    2MOL   C659 1381   3.232   0.698   0.887  0.0254 -0.6344 -0.9508
    2MOL   C660 1382   3.107   0.664   0.969  0.1613  0.5846  0.4809
    2MOL   C661 1383   3.132   0.664   1.118 -0.1384  0.2759  0.0444
    2MOL   C662 1384   2.994   0.666   1.180 -0.3748 -0.1385 -0.2860
    2MOL   C663 1385   3.011   0.663   1.328  0.2392 -0.4691 -0.0824
    2MOL   C664 1386   2.877   0.658   1.403 -1.2150 -0.6747  0.7738
    2MOL   N665 1387   2.890   0.665   1.547  0.0172  0.2852 -0.1435
    2MOL   C666 1388   3.429   1.082   1.125  0.6228 -0.9099 -0.2721
    2MOL   C667 1389   3.427   1.217   1.157 -0.1033  0.5165  0.0406
    2MOL   H668 1390   3.255   1.336   0.879 -1.0104  2.4265  2.4030
    2MOL   H669 1391   3.252   1.085   0.837  0.8421 -2.3319  0.6142
    2MOL   H670 1392   3.195   0.907   0.874 -0.5677 -0.3255  0.3431
    2MOL   H671 1393   3.222   0.687   0.779 -0.4041  2.2284 -1.2462
    2MOL   H672 1394   3.319   0.638   0.913  1.5929  2.2511  0.7191
    2MOL   H673 1395   3.082   0.559   0.951  3.6694 -0.5374  1.7375
    2MOL   H674 1396   3.028   0.734   0.944 -0.4369 -0.1569  0.2717
    2MOL   H675 1397   3.196   0.584   1.155 -0.3610 -0.1113 -0.3875
    2MOL   H676 1398   3.186   0.753   1.148  0.4647 -0.2714  0.5831
    2MOL   H677 1399   2.945   0.571   1.159  0.6255 -0.6537 -0.2907
    2MOL   H678 1400   2.936   0.753   1.149  1.1380  0.5051 -1.4008
    2MOL   H679 1401   3.068   0.749   1.365  2.2824 -1.0945 -1.6825
    2MOL   H680 1402   3.058   0.568   1.354 -0.0710 -0.0474  2.1383
    2MOL   H681 1403   2.812   0.741   1.377 -1.1662 -0.5573  1.0250
    2MOL   H682 1404   2.821   0.568   1.379 -0.1795 -1.4999  1.3873
    2MOL   H683 1405   2.896   0.573   1.589  2.2092  0.4700 -0.0321
    2MOL   H684 1406   3.487   1.011   1.183 -0.8669 -0.1906  2.1856
    2MOL   H685 1407   3.486   1.238   1.244  3.6997  0.7045 -2.4474
    2MOL   C686 1408   2.929   0.776   1.612  0.9845  0.0940 -0.2379
    2MOL   O687 1409   2.940   0.888   1.554 -0.0083  0.6200 -0.0996
    2MOL   C688 1410   2.956   0.757   1.762 -0.4156  0.4476 -0.1849
    2MOL   C689 1411   2.930   0.871   1.848 -0.1402 -0.4038  0.3279
    2MOL   C690 1412   2.966   0.866   1.980  0.1734 -0.2424 -0.6908
    2MOL   C691 1413   3.019   0.750   2.035  0.2410 -0.7633  0.1667
    2MOL   C692 1414   3.040   0.742   2.191  0.0796 -0.3757 -0.6577
    2MOL   O693 1415   3.045   0.631   2.246 -0.2167  0.1230  0.9796
    2MOL   N694 1416   3.061   0.856   2.257 -0.3618  0.0139  0.6517
    2MOL   C695 1417   3.075   0.872   2.402  0.9476 -0.4429 -0.5601
    2MOL   C696 1418   3.227   0.885   2.422  0.1097 -0.4700 -0.0552
    2MOL   C697 1419   3.259   0.900   2.568  0.2258 -0.0826  0.1750
    2MOL   C698 1420   3.404   0.884   2.611 -0.0304 -0.3092  0.0897
    2MOL   C699 1421   3.437   0.923   2.756 -0.0792 -0.3022 -0.2023
    2MOL   C700 1422   3.566   0.856   2.815 -0.0265  0.2054 -0.3941
    2MOL   N701 1423   3.682   0.891   2.738 -0.5734 -0.3434 -0.2786
    2MOL   C702 1424   3.042   0.643   1.953  0.2864 -0.6789 -0.1016
    2MOL   C703 1425   3.016   0.641   1.818  0.1757 -0.0929 -0.0892
    2MOL   H704 1426   2.888   0.965   1.816 -1.8299 -1.2416  0.0542
    2MOL   H705 1427   2.952   0.949   2.048 -1.2630 -2.9271  2.4671
    2MOL   H706 1428   3.057   0.940   2.201  2.0377  0.4911  1.1473
    2MOL   H707 1429   3.025   0.963   2.433  0.7675 -1.3220  1.8358
    2MOL   H708 1430   3.041   0.790   2.465 -0.4861 -0.9717 -1.9897
    2MOL   H709 1431   3.262   0.980   2.381  0.3809 -0.8277 -0.6536
    2MOL   H710 1432   3.280   0.805   2.371  1.6206  0.3212  0.2255
    2MOL   H711 1433   3.226   0.998   2.602  2.7402  0.0172  2.5071
    2MOL   H712 1434   3.199   0.832   2.627  0.6183 -3.0165 -2.6462
    2MOL   H713 1435   3.471   0.942   2.547 -0.7539 -3.0375 -3.3072
    2MOL   H714 1436   3.438   0.781   2.596  3.3142  0.5854  0.9767
    2MOL   H715 1437   3.353   0.880   2.809 -0.0471  2.4494  2.2038
    2MOL   H716 1438   3.440   1.031   2.773  0.9843 -0.2619 -0.5471
    2MOL   H717 1439   3.575   0.886   2.920 -0.8533  0.8847 -0.5164
    2MOL   H718 1440   3.557   0.748   2.814  0.7468  0.1378 -0.6498
    2MOL   H719 1441   3.695   0.809   2.681 -1.0958 -1.7310  1.5488
    2MOL   H720 1442   3.083   0.559   2.007 -1.6508 -1.2252  0.5366
    2MOL   H721 1443   3.042   0.553   1.759 -0.9573 -0.2452 -0.3621
    2MOL   H722 1444   3.760   0.884   2.801  0.6633  0.7155 -1.6478
    3MOL     C1 1445   1.365   6.789   7.248  0.3957  0.0240 -0.8893
    3MOL     O2 1446   1.488   6.796   7.245 -0.0205  0.4808 -0.0820
    3MOL     C3 1447   1.278   6.843   7.147  0.0321 -0.6611  0.3204
    3MOL     C4 1448   1.139   6.848   7.166 -0.0652  0.8606 -0.0818
    3MOL     C5 1449   1.053   6.901   7.067  0.3057  0.2216  0.2555
    3MOL     C6 1450   1.109   6.972   6.961 -0.2784 -0.1064  0.1529
    3MOL     C7 1451   1.031   7.047   6.858  0.3837  0.8218  0.2284
    3MOL     O8 1452   0.961   6.987   6.782 -0.1772  0.4231  0.4290
    3MOL     N9 1453   1.063   7.178   6.867  0.2824 -0.2040  1.1617
    3MOL    C10 1454   1.003   7.271   6.768  0.0995 -0.2901 -0.1667
    3MOL    C11 1455   1.068   7.260   6.622  0.7528  0.6106 -0.2823
    3MOL    C12 1456   1.005   7.363   6.521  0.2270  0.1501 -0.0862
    3MOL    C13 1457   1.045   7.329   6.371  0.0856 -0.7399  0.1439
    3MOL    C14 1458   0.976   7.425   6.275 -0.4863  0.3940  0.1794
    3MOL    C15 1459   1.034   7.428   6.140 -0.7679  0.2750  0.7491
    3MOL    N16 1460   1.134   7.539   6.133  0.4534  0.7049 -0.5257
    3MOL    C17 1461   1.248   6.952   6.940  0.3449  0.4646 -1.0387
    3MOL    C18 1462   1.334   6.897   7.037  0.1916  0.3606 -0.2702
    3MOL    H19 1463   1.095   6.799   7.252  0.7437 -0.3611 -0.3553
    3MOL    H20 1464   0.945   6.911   7.074  0.4222  0.5352  1.7301
    3MOL    H21 1465   1.116   7.219   6.942  1.5435  2.1767 -0.9717
    3MOL    H22 1466   0.900   7.236   6.768 -0.3285  0.9436 -0.2249
    3MOL    H23 1467   1.012   7.377   6.792  1.0585 -0.4571  0.2212
    3MOL    H24 1468   1.047   7.155   6.598  2.6461 -0.1373  1.2306
    3MOL    H25 1469   1.176   7.271   6.626  0.5795  2.2764  0.0286
    3MOL    H26 1470   0.898   7.371   6.538  0.0008 -4.0632  1.0641
    3MOL    H27 1471   1.045   7.463   6.539  1.2371 -0.5967  2.0548
    3MOL    H28 1472   1.041   7.227   6.335  3.4368 -0.4084 -1.3722
    3MOL    H29 1473   1.152   7.351   6.372  0.6841 -3.4675  3.4837
    3MOL    H30 1474   0.970   7.526   6.316  0.1269 -0.8038  3.3651
    3MOL    H31 1475   0.873   7.390   6.261 -0.4301  0.7911 -1.3926
    3MOL    H32 1476   1.079   7.330   6.129 -1.1843  0.2515 -0.8890
    3MOL    H33 1477   0.955   7.447   6.067 -0.6475  0.7263  0.7336
    3MOL    H34 1478   1.189   7.558   6.216  1.7049 -1.9059 -0.6964
    3MOL    H35 1479   1.292   6.990   6.850 -1.4693  0.2086 -2.0562
    3MOL    H36 1480   1.441   6.899   7.021  0.4378 -1.2262  1.0904
    3MOL    H37 1481   1.321   6.741   7.335  1.9043 -0.7227 -0.5284
    3MOL    C38 1482   1.174   7.587   6.016 -0.0566  0.0388  0.0375
    3MOL    O39 1483   1.124   7.557   5.904 -0.4181  0.1009  0.0166
    3MOL    C40 1484   1.274   7.704   6.036  0.0920 -0.5559  0.3393
    3MOL    C41 1485   1.369   7.707   6.138  0.0972  0.1309 -0.9393
    3MOL    C42 1486   1.473   7.806   6.139  1.1870 -0.0981  0.1348
    3MOL    C43 1487   1.463   0.023   6.045  0.2360  0.0469  0.3759
    3MOL    C44 1488   1.550   0.149   6.055  0.3843  0.2000 -0.0481
    3MOL    O45 1489   1.641   0.151   6.134 -0.1339  0.7849  0.1741
    3MOL    N46 1490   1.508   0.264   5.995 -0.2970 -0.8793 -0.0652
    3MOL    C47 1491   1.554   0.395   6.032  0.6808  0.1491  0.0026
    3MOL    C48 1492   1.547   0.495   5.917  0.0330  0.0455 -0.9210
    3MOL    C49 1493   1.629   0.457   5.794  0.2758  0.4423  0.0726
    3MOL    C50 1494   1.779   0.477   5.797 -0.6393 -0.3384  0.8688
    3MOL    C51 1495   1.839   0.469   5.655 -0.1079 -0.2256 -1.0291
    3MOL    C52 1496   1.991   0.449   5.646 -1.0753 -0.5055  0.0078
    3MOL    N53 1497   2.038   0.448   5.513 -0.0520 -0.2849 -0.1121
    3MOL    C54 1498   1.368   0.026   5.946 -0.3580  0.8046  0.0527
    3MOL    C55 1499   1.272   7.810   5.938 -0.4059  0.3793 -0.4199
    3MOL    H56 1500   1.368   7.623   6.205  0.8332 -0.1162 -1.2283
    3MOL    H57 1501   1.549   7.810   6.216  1.1361 -0.6879  0.2181
    3MOL    H58 1502   1.423   0.263   5.941  0.4597 -2.2880 -1.2949
    3MOL    H59 1503   1.487   0.412   6.116 -0.0660  0.7026 -0.6862
    3MOL    H60 1504   1.654   0.396   6.075  0.1360  2.0894  1.3070
    3MOL    H61 1505   1.577   0.597   5.941  1.6567 -0.4795 -0.6420
    3MOL    H62 1506   1.444   0.503   5.882 -1.0685  0.7756  2.3102
    3MOL    H63 1507   1.610   0.353   5.766 -0.1416 -0.1628  2.4656
    3MOL    H64 1508   1.594   0.506   5.704  1.3960  0.0878 -0.5662
    3MOL    H65 1509   1.814   0.396   5.862 -1.2995 -0.7963  0.6553
    3MOL    H66 1510   1.808   0.564   5.855 -0.9703 -0.6960  1.5801
    3MOL    H67 1511   1.816   0.564   5.606  0.1532  0.0415 -0.6419
    3MOL    H68 1512   1.786   0.385   5.611  1.6832 -2.3283  0.7006
    3MOL    H69 1513   2.035   0.529   5.706 -4.1205  0.9956  0.3208
    3MOL    H70 1514   2.028   0.364   5.704  0.2395 -0.2644 -0.4695
    3MOL    H71 1515   1.973   0.470   5.439 -1.4452  1.5765  1.6109
    3MOL    H72 1516   1.365   0.093   5.861 -1.5445 -0.1860 -0.7210
    3MOL    H73 1517   1.202   7.804   5.856 -2.9043  0.4792  1.6603
    3MOL    C74 1518   2.169   0.424   5.482  0.0316 -0.4141 -0.1489
    3MOL    O75 1519   2.256   0.416   5.567 -0.2960  0.5615  0.1112
    3MOL    C76 1520   2.204   0.447   5.341  0.2252  0.5597  0.4553
    3MOL    C77 1521   2.119   0.407   5.237 -0.2331  0.6160  0.8595
    3MOL    C78 1522   2.149   0.432   5.109 -0.0008  0.3115 -0.0039
    3MOL    C79 1523   2.269   0.503   5.071  0.3194 -0.2689 -0.5181
    3MOL    C80 1524   2.299   0.518   4.925 -0.5315 -0.1643 -0.1994
    3MOL    O81 1525   2.416   0.536   4.890  0.0535  0.0209  0.5223
    3MOL    N82 1526   2.196   0.519   4.846 -1.1851 -0.4808  0.1975
    3MOL    C83 1527   2.196   0.538   4.702  0.2285  0.0093 -0.4442
    3MOL    C84 1528   2.079   0.631   4.671 -0.2925 -0.5274  0.4268
    3MOL    C85 1529   2.104   0.772   4.730 -0.3589 -0.4745 -0.1026
    3MOL    C86 1530   2.001   0.873   4.678 -0.1341  0.3756  0.0760
    3MOL    C87 1531   2.026   1.017   4.736  0.3078  0.3303 -0.4908
    3MOL    C88 1532   1.972   1.047   4.879 -0.2261 -0.6208  0.3555
    3MOL    N89 1533   1.826   1.041   4.895  0.1483 -0.0342  0.3416
    3MOL    C90 1534   2.361   0.535   5.175 -0.6648 -0.3602  0.0176
    3MOL    C91 1535   2.329   0.507   5.309  0.0461 -0.3118  0.1843
    3MOL    H92 1536   2.024   0.359   5.252 -0.0506 -0.6211 -1.6280
    3MOL    H93 1537   2.086   0.394   5.030  3.4165 -0.9950 -2.2331
    3MOL    H94 1538   2.104   0.497   4.883 -0.6743 -1.4321  0.9252
    3MOL    H95 1539   2.286   0.592   4.674  1.2419 -1.0698  0.6685
    3MOL    H96 1540   2.184   0.442   4.652 -0.0975 -0.0402 -0.2810
    3MOL    H97 1541   1.986   0.590   4.710  0.3070 -1.1355  1.2272
    3MOL    H98 1542   2.075   0.642   4.563  0.2176 -2.1627  0.2269
    3MOL    H99 1543   2.114   0.771   4.838 -1.5070  0.0398  0.0056
    3MOL   H100 1544   2.202   0.809   4.700  0.2795  0.2139  2.7202
    3MOL   H101 1545   1.898   0.846   4.705 -0.6880  3.4303  1.1308
    3MOL   H102 1546   2.016   0.874   4.570  0.7453  0.0390  0.1913
    3MOL   H103 1547   1.960   1.074   4.671 -0.9979 -0.0473  0.4925
    3MOL   H104 1548   2.129   1.051   4.723  0.8417 -1.2548 -0.5003
    3MOL   H105 1549   2.017   0.973   4.947 -0.0635  0.2438  1.2054
    3MOL   H106 1550   2.015   1.139   4.919  1.1307 -1.2179  0.3020
    3MOL   H107 1551   1.774   0.983   4.830  0.9300 -1.3727  0.8983
    3MOL   H108 1552   2.463   0.569   5.160 -1.5651  2.0683 -0.9969
    3MOL   H109 1553   2.397   0.529   5.390 -1.1356  1.2308  0.7781
    3MOL   C110 1554   1.758   1.051   5.010  0.8241 -0.6605  0.3368
    3MOL   O111 1555   1.815   1.103   5.103  0.0394  0.0146 -0.3136
    3MOL   C112 1556   1.615   1.023   4.998  0.7617 -0.0491 -0.4666
    3MOL   C113 1557   1.563   0.977   4.875 -0.6731  0.8898  0.0136
    3MOL   C114 1558   1.424   0.973   4.849  0.1750 -0.7639 -0.0925
    3MOL   C115 1559   1.333   1.001   4.953  0.9176 -0.2191  0.3683
    3MOL   C116 1560   1.180   0.992   4.927 -0.1866  0.1627  0.3786
    3MOL   O117 1561   1.100   0.975   5.020  0.0314 -0.4300 -0.0308
    3MOL   N118 1562   1.146   1.015   4.800  0.2917 -0.8768 -0.0089
    3MOL   C119 1563   1.018   1.064   4.747 -0.1016  0.6087  0.2466
    3MOL   C120 1564   0.981   0.992   4.613  0.0217  1.0750  0.0079
    3MOL   C121 1565   0.982   0.835   4.631 -1.0438 -0.3879 -0.5177
    3MOL   C122 1566   0.863   0.750   4.675  0.3684 -0.6717 -0.3009
    3MOL   C123 1567   0.811   0.775   4.819  0.0011 -0.5162  0.1987
    3MOL   C124 1568   0.883   0.698   4.924 -0.1406 -0.8118 -0.6039
    3MOL   N125 1569   0.838   0.561   4.917  0.2825 -0.8869 -0.3508
    3MOL   C126 1570   1.385   1.026   5.079 -0.0887  0.3248  0.2780
    3MOL   C127 1571   1.523   1.047   5.101  0.2972 -0.5512  0.0816
    3MOL   H128 1572   1.621   0.932   4.796 -1.3574 -2.9120  1.5519
    3MOL   H129 1573   1.381   0.935   4.757 -0.4623  3.4597 -1.6337
    3MOL   H130 1574   1.231   1.029   4.748  0.8367  0.5474  1.2215
    3MOL   H131 1575   0.948   1.046   4.828 -1.3186 -0.7707 -1.0779
    3MOL   H132 1576   1.027   1.172   4.733 -1.3011  0.8559  1.4052
    3MOL   H133 1577   1.047   1.030   4.535 -0.0310  3.2704  0.9877
    3MOL   H134 1578   0.879   1.018   4.583 -0.5178  1.6002  2.2355
    3MOL   H135 1579   1.016   0.789   4.538  0.7878  0.4248 -0.2789
    3MOL   H136 1580   1.055   0.809   4.708  0.6360 -0.1135 -1.9707
    3MOL   H137 1581   0.879   0.644   4.657  1.0862 -0.9165  1.7328
    3MOL   H138 1582   0.785   0.781   4.605  0.9201  0.2280 -0.5270
    3MOL   H139 1583   0.705   0.758   4.835  0.0614  0.9082  2.2289
    3MOL   H140 1584   0.822   0.883   4.829 -1.1815 -0.2137 -1.5206
    3MOL   H141 1585   0.990   0.698   4.906  0.1259  0.0531  0.9105
    3MOL   H142 1586   0.855   0.739   5.021 -1.3620  0.6415 -1.5324
    3MOL   H143 1587   0.801   0.533   4.827  1.9216 -0.5335 -1.1528
    3MOL   H144 1588   1.317   1.033   5.163 -1.0343  0.3630 -0.4841
    3MOL   H145 1589   1.561   1.075   5.198  0.5229 -0.4944 -0.0223
    3MOL   C146 1590   0.827   0.476   5.021 -0.2930  0.0332 -0.5660
    3MOL   O147 1591   0.849   0.504   5.137 -0.7678 -0.0225 -0.5500
    3MOL   C148 1592   0.773   0.336   4.978 -0.3810  0.2308 -0.1300
    3MOL   C149 1593   0.741   0.237   5.079  0.7800 -0.3478  0.0535
    3MOL   C150 1594   0.707   0.108   5.033 -0.1246 -0.8949  0.3524
    3MOL   C151 1595   0.712   0.069   4.898 -0.0314  0.4068  0.4925
    3MOL   C152 1596   0.673   7.817   4.843 -0.8646  0.3134  0.3559
    3MOL   O153 1597   0.626   7.796   4.732 -0.4010  1.0087 -0.4680
    3MOL   N154 1598   0.708   7.717   4.933 -0.7524 -0.4438 -0.3644
    3MOL   C155 1599   0.694   7.575   4.914  0.1324  0.5774 -0.0845
    3MOL   C156 1600   0.722   7.494   5.038 -0.3622  0.2256 -0.0063
    3MOL   C157 1601   0.639   7.547   5.155  0.0281  0.3529  0.0863
    3MOL   C158 1602   0.651   7.471   5.290 -0.2537 -0.0094 -0.2135
    3MOL   C159 1603   0.585   7.335   5.282  0.4187  0.2998 -0.3951
    3MOL   C160 1604   0.589   7.266   5.418  0.2364 -0.8674  0.3243
    3MOL   N161 1605   0.727   7.237   5.462  0.0140 -0.4914  0.4332
    3MOL   C162 1606   0.743   0.171   4.803 -0.0865 -0.4083 -0.3465
    3MOL   C163 1607   0.770   0.303   4.839  0.1539  0.4164  0.0725
    3MOL   H164 1608   0.729   0.275   5.179 -0.4971 -2.4133  0.7161
    3MOL   H165 1609   0.680   0.035   5.108  0.1464 -1.5256 -0.1626
    3MOL   H166 1610   0.752   7.747   5.018  0.4724  2.3602 -1.8919
    3MOL   H167 1611   0.599   7.546   4.869 -1.8401  4.1876  1.5555
    3MOL   H168 1612   0.766   7.558   4.834 -1.2484 -0.0402 -1.2142
    3MOL   H169 1613   0.831   7.492   5.048 -0.3913  1.0853  0.5188
    3MOL   H170 1614   0.702   7.387   5.026  0.9078 -0.0437  0.1416
    3MOL   H171 1615   0.670   7.650   5.174 -0.3692  0.5591 -0.3490
    3MOL   H172 1616   0.536   7.556   5.119 -0.0113  0.5288  0.2442
    3MOL   H173 1617   0.597   7.525   5.368 -0.4484 -1.0340  0.3618
    3MOL   H174 1618   0.756   7.455   5.314 -0.1025  1.0958 -0.0940
    3MOL   H175 1619   0.636   7.278   5.204 -2.0667  0.5757 -2.2981
    3MOL   H176 1620   0.482   7.341   5.248  0.2009  1.4628  0.4291
    3MOL   H177 1621   0.527   7.322   5.488 -1.6347 -0.8263 -1.3325
    3MOL   H178 1622   0.540   7.169   5.411  0.6156 -1.2475  2.5989
    3MOL   H179 1623   0.770   7.162   5.410  0.7608  1.4071 -1.7968
    3MOL   H180 1624   0.741   0.146   4.698 -1.8376 -0.3777 -0.3257
    3MOL   H181 1625   0.803   0.372   4.762  1.4529  0.0472  0.2797
    3MOL   C182 1626   0.787   7.287   5.574  0.0256  0.2453  0.4535
    3MOL   O183 1627   0.730   7.372   5.640 -0.3624 -0.5424 -0.3107
    3MOL   C184 1628   0.926   7.240   5.599  0.3787 -0.2850 -0.7415
    3MOL   C185 1629   0.984   7.291   5.715  0.2207  0.8318  0.1984
    3MOL   C186 1630   1.111   7.239   5.751 -0.1444 -0.0561  0.5243
    3MOL   C187 1631   1.189   7.154   5.664 -0.5608  0.8115  0.2949
    3MOL   C188 1632   1.326   7.102   5.701  0.1340 -0.1085  0.3054
    3MOL   O189 1633   1.367   6.988   5.678  0.3495  0.3137  0.1354
    3MOL   N190 1634   1.399   7.202   5.747 -0.0562  0.5097  0.2800
    3MOL   C191 1635   1.533   7.182   5.787 -0.1709  0.2163 -0.3582
    3MOL   C192 1636   1.611   7.314   5.789 -0.0362  0.1965  0.1196
    3MOL   C193 1637   1.753   7.309   5.833  0.5173  0.4638  0.1853
    3MOL   C194 1638   1.810   7.453   5.825  0.1751  0.4093  0.2926
    3MOL   C195 1639   1.930   7.485   5.912  0.0147 -0.2203 -0.0061
    3MOL   C196 1640   1.992   7.618   5.872 -0.0936  0.1943 -0.1847
    3MOL   N197 1641   2.064   7.605   5.741  1.0536  0.2003 -0.2708
    3MOL   C198 1642   1.121   7.107   5.553  0.1636 -0.6898 -0.1733
    3MOL   C199 1643   0.990   7.144   5.520  0.2595  0.1985 -0.2656
    3MOL   H200 1644   0.935   7.360   5.782  0.1655  1.4699 -0.4897
    3MOL   H201 1645   1.149   7.261   5.849  1.7936 -2.5361  0.3933
    3MOL   H202 1646   1.357   7.290   5.771 -3.2071 -0.2571 -2.0379
    3MOL   H203 1647   1.541   7.131   5.883 -0.2218  0.3077 -0.3069
    3MOL   H204 1648   1.581   7.123   5.708  0.9815  2.7643 -1.6103
    3MOL   H205 1649   1.553   7.360   5.869 -0.0760 -1.5343  1.1293
    3MOL   H206 1650   1.600   7.373   5.699  1.2755  0.6027  0.2179
    3MOL   H207 1651   1.750   7.270   5.935 -1.5603  2.1688  0.8173
    3MOL   H208 1652   1.809   7.242   5.768  1.7415  1.7783 -0.1363
    3MOL   H209 1653   1.740   7.526   5.866 -0.1846 -0.0398  0.4930
    3MOL   H210 1654   1.827   7.484   5.722  1.9280 -0.0486  0.4295
    3MOL   H211 1655   1.997   7.400   5.898 -3.9203 -3.1146 -2.1259
    3MOL   H212 1656   1.905   7.477   6.018 -0.1446 -2.2727 -0.1723
    3MOL   H213 1657   1.924   7.702   5.872  1.1736  1.2517 -1.1202
    3MOL   H214 1658   2.059   7.651   5.952  0.2882 -0.6016 -0.1664
    3MOL   H215 1659   2.006   7.574   5.664 -0.4108 -0.2306  0.9839
    3MOL   H216 1660   1.156   7.026   5.490 -1.0676 -1.4108  0.0530
    3MOL   H217 1661   0.943   7.103   5.432 -0.4740 -1.6636  0.9671
    3MOL   C218 1662   2.193   7.628   5.723 -0.7308  0.2108  0.8450
    3MOL   O219 1663   2.264   7.665   5.819  0.0367 -0.2164 -0.2478
    3MOL   C220 1664   2.245   7.620   5.578 -0.2452  0.2219 -0.1728
    3MOL   C221 1665   2.154   7.591   5.472 -0.5791 -0.1091 -0.2438
    3MOL   C222 1666   2.205   7.583   5.344 -0.5429  0.2206 -0.5536
    3MOL   C223 1667   2.347   7.585   5.317  0.3294 -0.4282  0.9868
    3MOL   C224 1668   2.394   7.592   5.175 -0.6406 -0.2633  0.6216
    3MOL   O225 1669   2.507   7.551   5.153 -0.0737 -0.0649 -0.0340
    3MOL   N226 1670   2.313   7.635   5.081 -0.2448 -0.4140 -0.2252
    3MOL   C227 1671   2.347   7.647   4.941 -0.2429  0.5641 -0.3950
    3MOL   C228 1672   2.434   7.767   4.907  0.1902  0.0787  0.5096
    3MOL   C229 1673   2.475   7.771   4.754 -0.8751 -0.2714  0.7730
    3MOL   C230 1674   2.566   0.002   4.712 -0.3753  0.4450 -0.0171
    3MOL   C231 1675   2.502   0.135   4.707  0.6169 -0.3857 -0.2749
    3MOL   C232 1676   2.598   0.252   4.695  0.1471 -0.4551  0.4214
    3MOL   N233 1677   2.656   0.289   4.818  0.0938 -0.5901 -1.1626
    3MOL   C234 1678   2.434   7.598   5.428  0.5036  0.3022  0.0607
    3MOL   C235 1679   2.385   7.617   5.556  0.2624  0.5985  0.2781
    3MOL   H236 1680   2.047   7.590   5.478 -0.6244  0.9322 -0.8486
    3MOL   H237 1681   2.129   7.581   5.267 -2.1952  1.8091  1.0006
    3MOL   H238 1682   2.219   7.665   5.099 -0.8603 -1.4562 -1.5738
    3MOL   H239 1683   2.409   7.562   4.911  1.1574  1.9952 -1.6523
    3MOL   H240 1684   2.259   7.656   4.878  0.9233  2.1040 -1.8529
    3MOL   H241 1685   2.526   7.777   4.965  1.4706  1.2416 -1.6343
    3MOL   H242 1686   2.371   7.849   4.941  1.5192  0.3991  2.2249
    3MOL   H243 1687   2.520   7.680   4.713  2.5473  1.9439 -0.6189
    3MOL   H244 1688   2.386   7.778   4.692 -1.5675 -1.5726  1.5952
    3MOL   H245 1689   2.604   7.868   4.612  0.1315 -1.4681  0.5241
    3MOL   H246 1690   2.651   7.878   4.780 -0.2953 -0.5916 -0.2645
    3MOL   H247 1691   2.449   0.164   4.798  2.2300 -1.3808  1.0169
    3MOL   H248 1692   2.428   0.140   4.627  2.2102  1.0564 -1.6939
    3MOL   H249 1693   2.680   0.234   4.626  1.4074  1.4553  1.3912
    3MOL   H250 1694   2.551   0.342   4.654 -2.2075 -1.6354  0.4572
    3MOL   H251 1695   2.593   0.348   4.871  1.3515 -0.2746 -0.0040
    3MOL   H252 1696   2.539   7.616   5.409  0.6031  0.4742  0.7634
    3MOL   H253 1697   2.440   7.658   5.640 -3.3773  0.2238  2.9864
    3MOL   C254 1698   2.775   0.253   4.873 -0.8657  0.4734  0.1417
    3MOL   O255 1699   2.860   0.176   4.832 -0.2867 -0.2450 -0.0003
    3MOL   C256 1700   2.787   0.297   5.017  0.2763 -0.6878 -0.0998
    3MOL   C257 1701   2.846   0.216   5.117 -0.0500 -0.5822 -1.1510
    3MOL   C258 1702   2.874   0.257   5.255  0.0055 -0.5138  0.2249
    3MOL   C259 1703   2.840   0.387   5.292  0.0966 -0.7102 -0.3390
    3MOL   C260 1704   2.874   0.460   5.426  0.9330 -0.1769  0.6540
    3MOL   O261 1705   2.860   0.582   5.448  0.3420 -0.5506  0.3811
    3MOL   N262 1706   2.905   0.377   5.523 -0.0938  0.5898 -0.7492
    3MOL   C263 1707   2.929   0.422   5.664 -0.2630 -0.7308  0.2529
    3MOL   C264 1708   2.995   0.310   5.753 -0.2434  0.2441  0.1662
    3MOL   C265 1709   3.129   0.244   5.709 -0.2592 -0.0463 -0.2489
    3MOL   C266 1710   3.177   0.118   5.785 -0.6332 -0.1856 -0.6662
    3MOL   C267 1711   3.328   0.099   5.781 -0.3452  0.0512 -0.3266
    3MOL   C268 1712   3.383   0.015   5.669 -0.4504  0.3097 -0.0591
    3MOL   N269 1713   3.346   0.064   5.535 -0.0171  0.2170 -0.5909
    3MOL   C270 1714   2.776   0.469   5.191 -0.6187 -0.0274  0.1403
    3MOL   C271 1715   2.747   0.424   5.064 -1.1632 -1.5025  0.2991
    3MOL   H272 1716   2.879   0.119   5.084  1.3334 -0.3169 -0.5927
    3MOL   H273 1717   2.938   0.195   5.316 -0.4236 -1.5856 -0.4003
    3MOL   H274 1718   2.926   0.280   5.504  2.9023  1.3493 -1.4693
    3MOL   H275 1719   3.005   0.500   5.664 -2.9504  1.9684  0.5828
    3MOL   H276 1720   2.837   0.466   5.701  1.2066  0.4986  2.5678
    3MOL   H277 1721   2.916   0.236   5.764 -0.3733  0.3464 -0.0932
    3MOL   H278 1722   3.020   0.354   5.850  1.1649  2.7516 -1.3125
    3MOL   H279 1723   3.116   0.222   5.603 -1.0907  1.7798 -0.5515
    3MOL   H280 1724   3.209   0.319   5.707 -0.1065 -0.2247 -0.9622
    3MOL   H281 1725   3.134   0.028   5.739 -2.4840  1.7515 -2.8885
    3MOL   H282 1726   3.152   0.120   5.891  2.5284 -0.3958  0.1127
    3MOL   H283 1727   3.351   0.061   5.881 -1.6809 -0.7513 -0.3200
    3MOL   H284 1728   3.364   0.202   5.789  1.2395 -0.2472 -3.0434
    3MOL   H285 1729   3.490   7.881   5.676 -0.4700  0.2631  0.1026
    3MOL   H286 1730   3.340   7.801   5.669  1.6544 -0.6165 -0.4069
    3MOL   H287 1731   3.264   0.030   5.486  0.7550 -3.3567  0.4983
    3MOL   H288 1732   2.758   0.572   5.220  3.7150  0.7404  0.4190
    3MOL   H289 1733   2.693   0.483   4.991  1.2861  1.4889  0.8031
    3MOL   C290 1734   3.425   0.150   5.469  0.1786 -0.0407  0.0881
    3MOL   O291 1735   3.518   0.216   5.520 -0.1024  0.6413 -0.0220
    3MOL   C292 1736   3.381   0.175   5.329  0.1357  0.9235  1.1307
    3MOL   C293 1737   3.254   0.227   5.295  0.0399  0.2935 -0.0454
    3MOL   C294 1738   3.218   0.248   5.156 -0.1269  0.0832 -0.1532
    3MOL   C295 1739   3.315   0.231   5.058 -0.4337 -0.2185  0.8159
    3MOL   C296 1740   3.298   0.264   4.913 -0.6281 -0.3327 -0.1591
    3MOL   O297 1741   3.392   0.301   4.843 -0.1068  0.0183 -0.4880
    3MOL   N298 1742   3.187   0.222   4.860  0.0687  0.7169 -0.7154
    3MOL   C299 1743   3.158   0.227   4.723 -0.3403  0.8128  0.5141
    3MOL   C300 1744   3.090   0.363   4.693 -0.2657 -0.1785 -0.7848
    3MOL   C301 1745   2.995   0.357   4.569  0.3770 -0.2246  0.2298
    3MOL   C302 1746   2.934   0.485   4.526 -0.1019 -0.1895  0.6544
    3MOL   C303 1747   3.035   0.595   4.491  1.2222 -0.1810 -0.7799
    3MOL   C304 1748   3.146   0.558   4.380  0.1037  0.0712  0.8997
    3MOL   N305 1749   3.267   0.507   4.432  0.8698 -0.4603 -0.3082
    3MOL   C306 1750   3.446   0.178   5.093 -0.3387  0.1780  0.0130
    3MOL   C307 1751   3.473   0.145   5.228  0.3792 -0.1085 -0.3601
    3MOL   H308 1752   3.175   0.235   5.368  0.0518 -0.6723  0.0760
    3MOL   H309 1753   3.115   0.279   5.145 -0.0705  0.1574 -0.4845
    3MOL   H310 1754   3.107   0.201   4.918 -0.3250 -0.2046 -1.5787
    3MOL   H311 1755   3.246   0.227   4.659 -0.3052 -0.0475  0.5510
    3MOL   H312 1756   3.102   0.134   4.711  1.0476 -0.2469  1.9979
    3MOL   H313 1757   3.173   0.431   4.673  0.1570 -0.4719 -0.0679
    3MOL   H314 1758   3.045   0.406   4.782 -0.5328 -2.8820  0.4452
    3MOL   H315 1759   3.061   0.327   4.487 -0.4709 -2.0321  0.1695
    3MOL   H316 1760   2.924   0.277   4.591  0.9009 -0.2163  2.0100
    3MOL   H317 1761   2.866   0.521   4.603 -1.1396 -2.7057  0.9451
    3MOL   H318 1762   2.872   0.464   4.439 -1.0051  1.5052  0.8508
    3MOL   H319 1763   3.084   0.626   4.583 -1.2410  1.8270 -0.0984
    3MOL   H320 1764   2.988   0.690   4.465  1.1946  0.6513  2.1831
    3MOL   H321 1765   3.113   0.488   4.303  1.9695 -0.4368  0.5426
    3MOL   H322 1766   3.182   0.642   4.322  0.5202  0.6435  1.9642
    3MOL   H323 1767   3.281   0.408   4.448 -0.0137 -0.6694 -0.8459
    3MOL   H324 1768   3.514   0.152   5.013 -2.2155 -0.1369 -1.5301
    3MOL   H325 1769   3.566   0.097   5.253  0.4508  1.4386  2.5629
    3MOL   C326 1770   3.375   0.578   4.471  0.0547  0.1718  0.0556
    3MOL   O327 1771   3.378   0.701   4.467 -0.1189 -0.9108 -0.4773
    3MOL   C328 1772   3.492   0.497   4.530 -0.1326  0.3588  0.9342
    3MOL   C329 1773   3.494   0.357   4.522  0.2077 -1.0200  0.1249
    3MOL   C330 1774   3.602   0.280   4.577  0.7085 -0.6991 -0.9809
    3MOL   C331 1775   3.711   0.345   4.639  0.3180 -0.6391  0.1571
    3MOL   C332 1776   3.820   0.270   4.714 -0.3828 -0.1507 -0.0359
    3MOL   O333 1777   3.930   0.327   4.728  0.4007  0.1220  0.3447
    3MOL   N334 1778   3.783   0.148   4.760  0.6686 -0.2267  0.0945
    3MOL   C335 1779   3.889   0.058   4.822 -0.0595  0.5664 -0.6798
    3MOL   C336 1780   3.892   0.061   4.971  0.3795 -0.1633  0.2087
    3MOL   C337 1781   3.972   7.835   5.039 -0.5245 -0.2675 -0.7420
    3MOL   C338 1782   3.964   7.839   5.197  0.9306  0.3836  0.4925
    3MOL   C339 1783   3.992   7.709   5.269 -0.4256 -0.7350  0.6885
    3MOL   C340 1784   3.860   7.637   5.293 -0.0984 -0.0894  0.7167
    3MOL   N341 1785   3.885   7.504   5.347  0.2528 -0.8345  0.4977
    3MOL   C342 1786   3.706   0.491   4.641  1.0917  0.1343 -0.4113
    3MOL   C343 1787   3.596   0.564   4.593  0.2887  0.5097  0.8567
    3MOL   H344 1788   3.410   0.304   4.482 -0.3420 -0.2918  0.3053
    3MOL   H345 1789   3.599   0.172   4.571  1.5331 -0.8188  0.7647
    3MOL   H346 1790   3.684   0.130   4.759 -0.0106  3.1510 -0.7752
    3MOL   H347 1791   3.868   7.846   4.781 -0.8158  0.7709 -0.7784
    3MOL   H348 1792   3.985   0.093   4.783  0.5065 -0.7242 -0.4802
    3MOL   H349 1793   3.788   0.055   5.001 -0.4882  0.7901 -2.4864
    3MOL   H350 1794   3.934   0.156   5.003 -1.1054  0.7060 -0.4076
    3MOL   H351 1795   3.921   7.743   5.011  1.5967 -1.1468 -1.8569
    3MOL   H352 1796   4.076   7.839   5.007 -1.1770  3.1488 -2.6000
    3MOL   H353 1797   3.867   7.884   5.216  1.7243  3.0704 -1.4715
    3MOL   H354 1798   4.035   0.025   5.237  2.9073 -1.8051  1.0593
    3MOL   H355 1799   4.027   7.738   5.368 -1.5554  0.3322  0.7802
    3MOL   H356 1800   4.058   7.644   5.211 -1.1229 -0.3544 -0.5523
    3MOL   H357 1801   3.797   7.698   5.357 -0.0739  0.9722 -0.2518
    3MOL   H358 1802   3.813   7.635   5.194  1.3694  0.6712 -0.0149
    3MOL   H359 1803   3.969   7.450   5.329  0.2611 -0.4493 -0.6818
    3MOL   H360 1804   3.783   0.543   4.696  0.7543 -0.2258  0.4024
    3MOL   H361 1805   3.585   0.672   4.599 -0.5282  0.4664  0.2628
    3MOL   C362 1806   3.793   7.431   5.409 -0.6993 -0.7632 -0.1603
    3MOL   O363 1807   3.695   7.483   5.459  0.1722 -0.0680 -0.1844
    3MOL   C364 1808   3.820   7.284   5.414 -0.4670 -0.0007  0.0461
    3MOL   C365 1809   3.774   7.210   5.525  0.6460 -0.2736 -0.1925
    3MOL   C366 1810   3.786   7.069   5.525  0.4100 -0.2955 -0.0469
    3MOL   C367 1811   3.859   6.999   5.426  0.0763 -0.3745  0.5965
    3MOL   C368 1812   3.875   6.846   5.437 -0.2328 -0.1520 -0.3033
    3MOL   O369 1813   3.961   6.781   5.377  0.0819  0.3024 -0.1390
    3MOL   N370 1814   3.778   6.783   5.499  0.4133 -0.4976  0.2097
    3MOL   C371 1815   3.754   6.644   5.517  0.0970  0.4595  0.9259
    3MOL   C372 1816   3.643   6.614   5.618 -1.0270 -0.0024 -0.4348
    3MOL   C373 1817   3.683   6.622   5.769  0.1203  0.4185 -0.4756
    3MOL   C374 1818   3.733   6.766   5.806  0.2620  0.6070  0.4087
    3MOL   C375 1819   3.694   6.808   5.945 -0.4288 -0.0508  0.3082
    3MOL   C376 1820   3.761   6.725   6.057  0.3224  0.0013 -0.6483
    3MOL   N377 1821   3.736   6.783   6.189  0.0851  0.0777 -0.1232
    3MOL   C378 1822   3.905   7.069   5.315  0.0472  0.3464 -0.1642
    3MOL   C379 1823   3.892   7.213   5.313 -0.1779  0.5419 -0.4584
    3MOL   H380 1824   3.727   7.264   5.606  2.2758  2.3838 -0.9490
    3MOL   H381 1825   3.739   7.022   5.611  1.4905 -0.6069  0.3849
    3MOL   H382 1826   3.702   6.844   5.523 -0.2433 -0.5718 -1.6479
    3MOL   H383 1827   3.728   6.596   5.423  1.6134  0.7647  0.3332
    3MOL   H384 1828   3.843   6.601   5.563  1.4616 -0.5535 -2.5020
    3MOL   H385 1829   3.602   6.514   5.605 -2.3691  0.6619 -1.5874
    3MOL   H386 1830   3.555   6.678   5.604 -0.6193  0.3597 -1.4363
    3MOL   H387 1831   3.607   6.592   5.840  1.8427 -3.0376 -0.0065
    3MOL   H388 1832   3.767   6.553   5.777 -0.8495 -0.7645 -0.5523
    3MOL   H389 1833   3.695   6.841   5.737  1.1411 -2.1008 -3.1602
    3MOL   H390 1834   3.841   6.776   5.795  0.2681 -0.9558 -1.3631
    3MOL   H391 1835   3.586   6.813   5.961 -0.3393  1.7012  0.4728
    3MOL   H392 1836   3.736   6.908   5.949  0.5827 -0.4190 -1.0200
    3MOL   H393 1837   3.711   6.628   6.059 -1.7122  1.0654  1.4535
    3MOL   H394 1838   3.868   6.711   6.037  0.0101 -2.4560 -0.7842
    3MOL   H395 1839   3.670   6.859   6.194 -1.2597 -1.1103  0.2239
    3MOL   H396 1840   3.950   7.019   5.230  1.3287  1.4234 -0.1428
    3MOL   H397 1841   3.947   7.263   5.235  0.9411 -1.1014 -0.7706
    3MOL   C398 1842   3.787   6.726   6.297 -0.0502 -0.3116 -0.3809
    3MOL   O399 1843   3.886   6.652   6.298  0.2462  0.6645 -0.4028
    3MOL   C400 1844   3.713   6.766   6.424  0.4349 -0.0443 -0.0386
    3MOL   C401 1845   3.765   6.743   6.550 -0.3138 -0.1615  0.3538
    3MOL   C402 1846   3.696   6.762   6.672  0.3243  0.1254  0.3010
    3MOL   C403 1847   3.566   6.815   6.666  0.0966  1.2320  0.0033
    3MOL   C404 1848   3.484   6.842   6.794 -0.6466 -0.0855 -0.1486
    3MOL   O405 1849   3.536   6.878   6.901  0.5092 -0.1498 -0.1835
    3MOL   N406 1850   3.361   6.803   6.791 -0.4653 -0.2273  0.4407
    3MOL   C407 1851   3.253   6.829   6.889 -0.2323 -0.3915  0.5394
    3MOL   C408 1852   3.163   6.948   6.852 -0.3501  0.2271  0.2924
    3MOL   C409 1853   3.086   6.910   6.721  0.0161 -0.2111 -0.4846
    3MOL   C410 1854   2.984   7.016   6.662 -0.4518 -0.0750 -0.2808
    3MOL   C411 1855   2.893   6.955   6.559  0.7504 -0.4198  0.4712
    3MOL   C412 1856   2.952   6.947   6.421 -0.1194  0.4661 -0.5238
    3MOL   N413 1857   2.993   7.080   6.372  0.3152 -0.3150  0.4875
    3MOL   C414 1858   3.513   6.847   6.539 -0.6980 -0.6223  0.1809
    3MOL   C415 1859   3.587   6.830   6.421 -0.0352  0.6970 -0.0537
    3MOL   H416 1860   3.867   6.709   6.565 -0.3424 -0.8218 -0.9508
    3MOL   H417 1861   3.744   6.741   6.767  1.1718 -0.5634 -0.2748
    3MOL   H418 1862   3.328   6.763   6.705 -2.2040 -0.1470  1.0609
    3MOL   H419 1863   3.192   6.739   6.895 -1.3073  0.3767  1.3649
    3MOL   H420 1864   3.296   6.836   6.989  0.5969  4.4603 -0.0423
    3MOL   H421 1865   3.232   7.030   6.829 -1.0719  1.3216  1.9651
    3MOL   H422 1866   3.098   6.978   6.934  0.5543  0.0828  1.0687
    3MOL   H423 1867   3.152   6.892   6.636  0.4732 -0.5075 -0.0665
    3MOL   H424 1868   3.030   6.819   6.741  0.4294 -0.7339 -1.6393
    3MOL   H425 1869   3.039   7.098   6.616 -1.5203  0.8094 -0.0314
    3MOL   H426 1870   2.927   7.077   6.733 -0.6347 -0.6313  0.0482
    3MOL   H427 1871   2.803   7.016   6.559  0.4911 -0.7977  1.4636
    3MOL   H428 1872   2.857   6.858   6.593 -1.0839 -1.2234 -3.4791
    3MOL   H429 1873   3.039   6.881   6.419  0.1340  0.8145 -2.6440
    3MOL   H430 1874   2.884   6.910   6.344 -0.8230  2.4783 -0.9025
    3MOL   H431 1875   2.919   7.138   6.336  1.3948  1.0747  0.5080
    3MOL   H432 1876   3.414   6.889   6.528 -0.4031  0.2819  0.8812
    3MOL   H433 1877   3.537   6.841   6.326 -1.4723 -1.3551  0.4200
    3MOL   C434 1878   3.119   7.122   6.345 -0.1986  0.2398 -0.4218
    3MOL   O435 1879   3.217   7.053   6.372  0.3152  0.6180  0.1665
    3MOL   C436 1880   3.124   7.267   6.307 -0.3184 -0.3624  0.0475
    3MOL   C437 1881   3.240   7.308   6.244 -0.0573 -0.3544  0.1166
    3MOL   C438 1882   3.254   7.439   6.194 -0.2983 -0.6521 -0.8198
    3MOL   C439 1883   3.145   7.531   6.212  0.7567  0.8648 -0.1972
    3MOL   C440 1884   3.150   7.665   6.145  0.3830  0.4170  0.0718
    3MOL   O441 1885   3.256   7.703   6.093  0.1827 -0.8708 -0.5126
    3MOL   N442 1886   3.038   7.732   6.139  0.5319  0.1237  0.6081
    3MOL   C443 1887   3.013   7.859   6.080  0.3177 -0.0762 -0.8165
    3MOL   C444 1888   2.895   0.049   6.156 -0.1963  0.2573 -0.0307
    3MOL   C445 1889   2.865   0.174   6.081  0.6948 -0.0215  0.1544
    3MOL   C446 1890   2.749   0.247   6.151 -0.0514 -0.0199 -0.3137
    3MOL   C447 1891   2.678   0.347   6.054  0.5256  0.8398 -0.0440
    3MOL   C448 1892   2.537   0.398   6.106 -0.4439  0.2896  0.4082
    3MOL   N449 1893   2.465   0.477   6.004  0.6879 -0.3628  0.1314
    3MOL   C450 1894   3.030   7.492   6.276 -0.3339  0.1073  0.8239
    3MOL   C451 1895   3.024   7.362   6.334 -0.3398  0.6749 -0.5342
    3MOL   H452 1896   3.322   7.238   6.231 -0.3162 -0.3192 -1.8655
    3MOL   H453 1897   3.337   7.474   6.134 -0.1401  1.7542  0.7081
    3MOL   H454 1898   2.964   7.691   6.195  1.3018 -0.7092  1.0329
    3MOL   H455 1899   3.105   0.030   6.094  0.2341 -0.2181  0.3265
    3MOL   H456 1900   3.008   7.853   5.971 -0.7292 -0.2129 -0.7648
    3MOL   H457 1901   2.917   0.075   6.259  0.1994 -0.1696 -0.0060
    3MOL   H458 1902   2.812   7.865   6.147  1.2595 -1.3870 -0.7658
    3MOL   H459 1903   2.953   0.238   6.084  1.3422 -0.9731  1.5130
    3MOL   H460 1904   2.838   0.160   5.976  0.3558 -1.1715  0.3969
    3MOL   H461 1905   2.788   0.292   6.242 -2.2903  0.3755  0.4926
    3MOL   H462 1906   2.674   0.170   6.173  0.5980 -1.1834 -2.0629
    3MOL   H463 1907   2.670   0.302   5.955  0.1818 -0.0167  0.3646
    3MOL   H464 1908   2.745   0.432   6.038  2.1306 -0.0420  1.6812
    3MOL   H465 1909   2.472   0.321   6.145  1.0362 -1.3312 -0.2578
    3MOL   H466 1910   2.563   0.460   6.192 -0.4680 -0.9977  1.3568
    3MOL   H467 1911   2.433   0.430   5.920  0.7197  0.5781 -0.4119
    3MOL   H468 1912   2.946   7.559   6.283  0.1263  0.9755 -1.6432
    3MOL   H469 1913   2.931   7.335   6.384  0.6327  0.4148  1.1758
    3MOL   C470 1914   2.411   0.597   6.023 -0.4448  0.1105 -0.1211
    3MOL   O471 1915   2.415   0.657   6.129  0.1721 -0.2051 -0.1648
    3MOL   C472 1916   2.345   0.667   5.906  0.2169 -0.2546 -0.6905
    3MOL   C473 1917   2.249   0.767   5.942 -0.1673  0.1087 -0.4548
    3MOL   C474 1918   2.170   0.822   5.843 -0.0335 -0.0157  0.2483
    3MOL   C475 1919   2.202   0.797   5.707 -0.8240 -0.3355 -0.1901
    3MOL   C476 1920   2.139   0.879   5.595  0.3581  0.6161  0.0539
    3MOL   O477 1921   2.017   0.905   5.587 -0.3241 -0.0988  0.3496
    3MOL   N478 1922   2.227   0.905   5.496 -0.2101 -0.2050  0.0038
    3MOL   C479 1923   2.188   0.973   5.371  0.0795  0.1393  0.5267
    3MOL   C480 1924   2.258   1.107   5.352  0.0325 -0.3981  0.6517
    3MOL   C481 1925   2.241   1.166   5.207  0.1141  0.0718  0.1702
    3MOL   C482 1926   2.339   1.287   5.191  0.0035  0.8447 -0.5525
    3MOL   C483 1927   2.343   1.364   5.054 -0.6453  0.4341 -0.1132
    3MOL   C484 1928   2.205   1.397   5.002 -0.5175 -0.0349 -0.0050
    3MOL   N485 1929   2.208   1.506   4.903  0.3820 -0.2847 -0.3434
    3MOL   C486 1930   2.298   0.694   5.672 -0.6522 -0.0465 -0.7330
    3MOL   C487 1931   2.371   0.635   5.775  0.6032 -0.3619  0.2332
    3MOL   H488 1932   2.241   0.799   6.045 -1.1335  2.4210 -1.2131
    3MOL   H489 1933   2.090   0.892   5.860 -0.9562 -0.7904 -0.8130
    3MOL   H490 1934   2.326   0.890   5.511 -0.2649  0.0206  0.6280
    3MOL   H491 1935   2.223   0.909   5.290 -0.8805 -1.8660  1.6689
    3MOL   H492 1936   2.081   0.988   5.358  0.5578  2.3939 -1.3088
    3MOL   H493 1937   2.366   1.095   5.350  0.2013  1.2790 -1.7913
    3MOL   H494 1938   2.230   1.176   5.432  0.7465  2.2153 -1.2768
    3MOL   H495 1939   2.271   1.093   5.132  0.2536 -0.4347  0.7148
    3MOL   H496 1940   2.135   1.190   5.192  0.4365  2.6316  1.7778
    3MOL   H497 1941   2.441   1.255   5.211  0.3608  0.6819 -2.4937
    3MOL   H498 1942   2.320   1.364   5.265  2.7653  0.4075  0.6810
    3MOL   H499 1943   2.403   1.307   4.983 -1.5638  0.3527 -0.8478
    3MOL   H500 1944   2.402   1.454   5.064  0.2698  0.3835 -3.9868
    3MOL   H501 1945   2.151   1.309   4.967  1.6669 -1.2535 -0.4062
    3MOL   H502 1946   2.151   1.437   5.088  0.8805 -1.1343  1.4108
    3MOL   H503 1947   2.177   1.481   4.810 -0.1581  2.2194 -0.8777
    3MOL   H504 1948   2.334   0.676   5.572  0.8241  1.9120 -0.5842
    3MOL   H505 1949   2.443   0.557   5.753  1.6671  0.7789 -0.4038
    3MOL   C506 1950   2.247   1.632   4.933 -0.2053 -0.4236 -0.3403
    3MOL   O507 1951   2.278   1.662   5.050  0.6002 -0.2242  0.4157
    3MOL   C508 1952   2.254   1.734   4.826  0.2183  0.0997 -0.6288
    3MOL   C509 1953   2.329   1.848   4.829 -0.1459 -1.1281  0.1499
    3MOL   C510 1954   2.330   1.941   4.723  0.1197  0.1658 -0.2150
    3MOL   C511 1955   2.262   1.915   4.597 -0.9186  0.5516  0.0604
    3MOL   C512 1956   2.266   2.012   4.482 -0.5507  0.5038 -0.4688
    3MOL   O513 1957   2.281   1.973   4.368 -0.1530  0.0181  0.3582
    3MOL   N514 1958   2.262   2.136   4.514  0.1528 -0.3002 -0.4527
    3MOL   C515 1959   2.261   2.241   4.419  0.0365  0.3225 -0.5155
    3MOL   C516 1960   2.324   2.367   4.483  1.0695  0.4143 -0.3091
    3MOL   C517 1961   2.294   2.507   4.427  0.1370  0.2786 -0.7991
    3MOL   C518 1962   2.306   2.628   4.519  0.4045 -0.3453 -0.3477
    3MOL   C519 1963   2.248   2.757   4.467 -0.3819  0.3858 -0.1785
    3MOL   C520 1964   2.256   2.877   4.556  0.2648 -0.5809 -0.2286
    3MOL   N521 1965   2.183   2.985   4.504  0.0780 -0.0159  0.0060
    3MOL   C522 1966   2.189   1.792   4.588 -0.0562 -0.6075 -0.1981
    3MOL   C523 1967   2.186   1.703   4.702 -0.1698 -0.5789 -0.2316
    3MOL   H524 1968   2.377   1.879   4.921 -2.9953  0.6056  1.1051
    3MOL   H525 1969   2.381   2.036   4.735 -1.4616  0.7965  1.7000
    3MOL   H526 1970   2.247   2.150   4.613 -1.9222  0.4929 -0.8524
    3MOL   H527 1971   2.317   2.205   4.332  1.8219 -2.9490  1.8682
    3MOL   H528 1972   2.158   2.263   4.391 -0.3649 -0.6635  0.1695
    3MOL   H529 1973   2.433   2.362   4.484  1.1310  1.6447 -0.3513
    3MOL   H530 1974   2.296   2.375   4.588  0.0396  1.7870 -0.6882
    3MOL   H531 1975   2.366   2.527   4.347 -1.4105  1.6177 -1.8910
    3MOL   H532 1976   2.200   2.506   4.372 -0.0708  1.0297 -0.4649
    3MOL   H533 1977   2.410   2.647   4.549 -0.0181  1.9466 -0.2205
    3MOL   H534 1978   2.254   2.606   4.613 -1.6903  0.1519 -1.3678
    3MOL   H535 1979   2.143   2.734   4.449 -0.0148 -1.8546  0.3860
    3MOL   H536 1980   2.301   2.779   4.374  0.6158 -0.0688  0.2769
    3MOL   H537 1981   2.223   2.843   4.654  0.1792  0.3180  0.0656
    3MOL   H538 1982   2.357   2.917   4.550  0.3450 -0.9141 -1.0740
    3MOL   H539 1983   2.121   2.973   4.424 -0.3325  0.7250  0.2157
    3MOL   H540 1984   2.134   1.758   4.502  0.1278 -1.7244  0.1173
    3MOL   H541 1985   2.129   1.612   4.694  1.3903 -1.4508 -2.0897
    3MOL   C542 1986   2.183   3.115   4.544  0.2066 -0.1655 -0.2297
    3MOL   O543 1987   2.266   3.156   4.630  0.3583  0.4094  0.0853
    3MOL   C544 1988   2.088   3.208   4.481  0.5172 -0.3085  0.4337
    3MOL   C545 1989   1.959   3.171   4.445  0.0179  0.3912 -0.1891
    3MOL   C546 1990   1.876   3.257   4.379 -0.0730 -0.4029 -0.6040
    3MOL   C547 1991   1.919   3.389   4.347 -0.3943  0.4337  0.8393
    3MOL   C548 1992   1.832   3.483   4.264 -0.2472  0.3171  0.5019
    3MOL   O549 1993   1.713   3.466   4.256 -0.0165 -0.0686 -0.0644
    3MOL   N550 1994   1.896   3.569   4.186 -0.0123  0.4215 -0.1857
    3MOL   C551 1995   1.829   3.671   4.109  0.2959 -0.1881 -0.1503
    3MOL   C552 1996   1.933   3.747   4.032 -0.6078 -0.8592  0.1467
    3MOL   C553 1997   2.025   3.830   4.112 -1.2265  0.0387 -1.0546
    3MOL   C554 1998   2.120   3.912   4.031 -1.1119  0.1584 -0.0514
    3MOL   C555 1999   2.197   4.039   4.083  0.1781  0.0165  0.2847
    3MOL   C556 2000   2.326   4.014   4.153  0.0053  0.0228  1.0047
    3MOL   N557 2001   2.415   4.133   4.166  0.2411  0.7387  0.8152
    3MOL   C558 2002   2.049   3.430   4.389 -0.0005  0.4626  0.3720
    3MOL   C559 2003   2.130   3.340   4.458 -0.5090 -0.4343 -0.3488
    3MOL   H560 2004   1.918   3.074   4.469  0.5888  0.1090 -0.3525
    3MOL   H561 2005   1.776   3.231   4.347 -0.6437 -0.7650  1.3981
    3MOL   H562 2006   1.997   3.569   4.179 -0.1171  0.0207 -1.7051
    3MOL   H563 2007   1.762   3.631   4.033 -0.7981 -1.0004  1.2165
    3MOL   H564 2008   1.775   3.740   4.174  0.7156  0.6937 -0.7251
    3MOL   H565 2009   1.889   3.817   3.961  0.0819 -1.5328 -0.9472
    3MOL   H566 2010   1.996   3.681   3.972 -1.2455 -0.7056 -0.7047
    3MOL   H567 2011   1.971   3.903   4.172 -1.5293  1.0988 -2.5647
    3MOL   H568 2012   2.081   3.769   4.183  0.6884  0.2204 -2.3701
    3MOL   H569 2013   2.079   3.945   3.935 -1.1719 -2.7454 -1.0882
    3MOL   H570 2014   2.186   3.839   3.984 -0.1529 -0.8577  2.8062
    3MOL   H571 2015   2.133   4.103   4.144 -3.3401 -1.6092 -1.5879
    3MOL   H572 2016   2.210   4.097   3.991 -0.7835  0.1689  0.2461
    3MOL   H573 2017   2.296   3.988   4.254 -0.1002  2.4984  1.6194
    3MOL   H574 2018   2.374   3.941   4.088  2.6156  1.0228  1.7485
    3MOL   H575 2019   2.460   4.172   4.084  0.8272 -1.2412  0.1642
    3MOL   H576 2020   2.098   3.524   4.368 -0.2263  0.0126 -2.2631
    3MOL   H577 2021   2.228   3.375   4.488 -0.2260 -0.3452 -1.3799
    3MOL   C578 2022   2.467   4.180   4.276 -0.2846  0.7044  0.3531
    3MOL   O579 2023   2.458   4.126   4.387  0.1812  0.2712 -0.2647
    3MOL   C580 2024   2.553   4.301   4.265  0.0124 -0.3448  0.0095
    3MOL   C581 2025   2.546   4.391   4.156 -0.1006  0.5929 -0.0365
    3MOL   C582 2026   2.634   4.496   4.137 -0.0529  0.4304 -0.0359
    3MOL   C583 2027   2.725   4.517   4.237 -0.3247 -0.0786  0.2525
    3MOL   C584 2028   2.829   4.622   4.228 -0.6844  0.1887  0.5282
    3MOL   O585 2029   2.873   4.675   4.326 -0.2677 -0.2979 -0.2286
    3MOL   N586 2030   2.864   4.652   4.104 -0.2739  0.6005 -0.4741
    3MOL   C587 2031   2.940   4.768   4.063 -0.0950  0.1943 -0.0026
    3MOL   C588 2032   2.868   4.844   3.954  0.1475 -0.5277 -0.3057
    3MOL   C589 2033   2.931   4.977   3.909 -0.5797  0.2404  0.2602
    3MOL   C590 2034   3.068   4.964   3.829  0.0721  0.0371 -0.1642
    3MOL   C591 2035   3.133   5.098   3.813 -0.1486  0.3580  0.1041
    3MOL   C592 2036   3.282   5.082   3.791  0.1097 -0.0705  0.3001
    3MOL   N593 2037   3.356   5.074   3.913 -0.0431  0.1420 -0.3174
    3MOL   C594 2038   2.731   4.433   4.350 -0.4539 -0.0724  0.3008
    3MOL   C595 2039   2.652   4.321   4.368 -0.2320  0.2519  0.1238
    3MOL   H596 2040   2.464   4.389   4.086  0.0089  0.0503 -0.1548
    3MOL   H597 2041   2.635   4.561   4.050  2.4979 -0.2927 -0.5949
    3MOL   H598 2042   2.840   4.580   4.038 -2.2003  1.1333 -0.3916
    3MOL   H599 2043   2.958   4.836   4.146  0.4805 -1.3198  1.1428
    3MOL   H600 2044   3.040   4.747   4.027  0.1551 -0.4796  1.0411
    3MOL   H601 2045   2.775   4.869   4.005 -0.0352 -2.3124  0.2542
    3MOL   H602 2046   2.846   4.781   3.868  0.2956  0.7089 -1.2640
    3MOL   H603 2047   2.857   5.019   3.840  0.9882 -0.7387 -2.0738
    3MOL   H604 2048   2.943   5.041   3.996  0.3384 -1.2925  1.2651
    3MOL   H605 2049   3.045   4.906   3.739 -0.5837  0.8913 -0.5500
    3MOL   H606 2050   3.134   4.906   3.894 -2.1892  0.8609  3.0244
    3MOL   H607 2051   3.114   5.166   3.897  0.5035 -0.8029  1.2022
    3MOL   H608 2052   3.088   5.152   3.730 -1.0323 -0.3033  0.1524
    3MOL   H609 2053   3.307   4.992   3.736  0.7961 -0.9269  1.9478
    3MOL   H610 2054   3.327   5.167   3.740 -1.2644  1.0142  0.8509
    3MOL   H611 2055   3.299   5.067   3.996 -0.9615 -0.6686 -1.0127
    3MOL   H612 2056   2.802   4.465   4.426  0.6104 -0.9888 -0.2849
    3MOL   H613 2057   2.668   4.258   4.454 -0.1231 -0.3122 -0.3112
    3MOL   C614 2058   3.488   5.056   3.929  0.0786  0.4741 -0.6834
    3MOL   O615 2059   3.563   5.059   3.831  0.8125  0.0819 -0.1076
    3MOL   C616 2060   3.542   5.053   4.068 -0.4050 -0.4077 -0.3111
    3MOL   C617 2061   3.469   5.040   4.188 -0.3354  0.3993  0.6814
    3MOL   C618 2062   3.530   5.013   4.309 -0.7318 -0.3461  0.3731
    3MOL   C619 2063   3.674   5.018   4.323 -0.2601  0.1679  0.2822
    3MOL   C620 2064   3.740   5.017   4.456 -0.6512  0.3464 -0.7336
    3MOL   O621 2065   3.866   5.009   4.466 -0.9686 -0.1958  0.3419
    3MOL   N622 2066   3.659   5.016   4.568 -0.0823 -0.7262 -0.0543
    3MOL   C623 2067   3.712   5.033   4.702  0.4890 -0.3333 -0.0784
    3MOL   C624 2068   3.615   4.971   4.800 -0.2508 -0.4362  0.1488
    3MOL   C625 2069   3.611   4.819   4.789 -0.6606 -0.1439  0.2199
    3MOL   C626 2070   3.555   4.758   4.918 -0.0202 -0.9167 -0.1344
    3MOL   C627 2071   3.545   4.607   4.909  0.5969 -0.0422 -0.4222
    3MOL   C628 2072   3.455   4.554   4.797  0.6336 -0.1407 -0.1991
    3MOL   N629 2073   3.441   4.413   4.819 -0.7911 -0.0133 -0.2795
    3MOL   C630 2074   3.746   5.031   4.204 -0.5236 -0.3378 -0.8028
    3MOL   C631 2075   3.684   5.056   4.078 -0.0064  0.0052 -0.4333
    3MOL   H632 2076   3.361   5.037   4.180 -0.3739 -2.4366  1.5080
    3MOL   H633 2077   3.471   4.981   4.393  0.2113  0.2679  1.2836
    3MOL   H634 2078   3.559   5.021   4.555  0.1707  0.6968 -1.5358
    3MOL   H635 2079   3.816   4.999   4.712  0.7549  0.8254  1.2719
    3MOL   H636 2080   3.711   5.137   4.735  0.3856 -0.0338 -1.0223
    3MOL   H637 2081   3.519   5.015   4.773  0.8156  2.7952  1.4131
    3MOL   H638 2082   3.647   4.998   4.901  1.2520  0.1826 -0.4825
    3MOL   H639 2083   3.553   4.791   4.702 -2.0602  1.0515  0.7463
    3MOL   H640 2084   3.716   4.791   4.789 -0.2465  1.3520 -0.0517
    3MOL   H641 2085   3.456   4.798   4.940  1.2155  2.2227  0.1331
    3MOL   H642 2086   3.629   4.784   4.994 -0.4820  0.4429 -0.1288
    3MOL   H643 2087   3.512   4.563   5.003  1.6236 -0.1922 -0.1186
    3MOL   H644 2088   3.642   4.560   4.894  0.0293 -0.8109 -1.8098
    3MOL   H645 2089   3.357   4.600   4.810  0.4809  0.0090 -1.8181
    3MOL   H646 2090   3.491   4.573   4.696  1.6097 -1.5438 -0.1392
    3MOL   H647 2091   3.490   4.366   4.894 -0.4941 -0.8561 -0.9875
    3MOL   H648 2092   3.853   5.041   4.219 -0.6617 -0.9825  0.6856
    3MOL   H649 2093   3.752   5.062   3.994  0.0894  2.6786 -0.2158
    3MOL   C650 2094   3.339   4.343   4.761 -0.1389 -0.1348  0.4743
    3MOL   O651 2095   3.281   4.391   4.661 -0.8762  0.5154 -0.1855
    3MOL   C652 2096   3.301   4.203   4.814  0.4983 -0.8568  0.2161
    3MOL   C653 2097   3.248   4.111   4.726  0.5093  0.5878  0.1005
    3MOL   C654 2098   3.219   3.975   4.766  0.7585 -0.0113 -0.0624
    3MOL   C655 2099   3.227   3.938   4.900  0.3788  0.2751 -0.3664
    3MOL   C656 2100   3.196   3.798   4.934  0.0930 -0.4167  0.6771
    3MOL   O657 2101   3.220   3.704   4.861  0.0720  0.0786  0.6620
    3MOL   N658 2102   3.132   3.785   5.051  0.2218  0.6793  0.9076
    3MOL   C659 2103   3.102   3.651   5.106  0.0111  0.2260  0.1391
    3MOL   C660 2104   3.087   3.674   5.252 -0.3487  0.2134 -0.5290
    3MOL   C661 2105   3.065   3.528   5.309  0.3808 -0.7763  0.7112
    3MOL   C662 2106   3.069   3.531   5.460 -0.5015  0.6500  0.1595
    3MOL   C663 2107   3.007   3.405   5.527 -0.1023  0.6505  0.6334
    3MOL   C664 2108   2.987   3.428   5.674 -1.0010 -0.1877  0.4318
    3MOL   N665 2109   2.938   3.316   5.754 -0.3445 -0.8884  0.1480
    3MOL   C666 2110   3.269   4.035   4.996  0.2292  0.8928  0.2586
    3MOL   C667 2111   3.307   4.166   4.953  0.0786  1.1461 -0.5132
    3MOL   H668 2112   3.240   4.130   4.620  2.6154 -2.2592 -0.6578
    3MOL   H669 2113   3.177   3.902   4.698 -0.5615  1.5982 -1.0011
    3MOL   H670 2114   3.125   3.859   5.120  0.9819  0.0070  1.7188
    3MOL   H671 2115   3.019   3.614   5.046  1.4990 -1.5676 -0.8897
    3MOL   H672 2116   3.188   3.585   5.094 -1.2804 -0.7373 -5.0061
    3MOL   H673 2117   3.003   3.742   5.264  1.0194  2.0120 -1.0083
    3MOL   H674 2118   3.177   3.720   5.292 -0.1894  0.5025 -1.2207
    3MOL   H675 2119   2.967   3.491   5.280  0.6458 -1.5048  0.7291
    3MOL   H676 2120   3.138   3.459   5.268 -0.0298 -0.8217  0.0412
    3MOL   H677 2121   3.026   3.619   5.508  0.3298  1.4441 -0.5204
    3MOL   H678 2122   3.173   3.536   5.495 -0.7485  1.5089  0.7840
    3MOL   H679 2123   3.072   3.323   5.496  0.4757  0.8558  1.2965
    3MOL   H680 2124   2.909   3.375   5.489 -0.4804 -0.8247  2.6718
    3MOL   H681 2125   3.085   3.461   5.709 -0.3053 -0.0370 -1.5679
    3MOL   H682 2126   2.929   3.516   5.699  1.2591  2.2345 -2.4176
    3MOL   H683 2127   2.846   3.330   5.793 -1.1118 -1.1469 -1.4911
    3MOL   H684 2128   3.286   4.003   5.098  2.0021  0.7049 -0.0699
    3MOL   H685 2129   3.327   4.243   5.027  0.2411  1.4920 -0.9196
    3MOL   C686 2130   2.992   3.196   5.769  0.0269  0.0437 -0.6099
    3MOL   O687 2131   3.097   3.156   5.715 -0.6353 -0.0808  0.8045
    3MOL   C688 2132   2.913   3.104   5.856 -0.1114 -0.0219 -0.3118
    3MOL   C689 2133   2.857   3.138   5.981 -0.0045  0.5453 -0.3593
    3MOL   C690 2134   2.767   3.052   6.044  0.2620  0.4141 -0.5533
    3MOL   C691 2135   2.749   2.921   6.007 -0.1234  0.6340 -0.0803
    3MOL   C692 2136   2.660   2.826   6.081 -0.4086 -0.0225 -1.0803
    3MOL   O693 2137   2.566   2.871   6.146  0.1651 -0.9697  0.0352
    3MOL   N694 2138   2.689   2.695   6.070  0.0649  0.0259 -0.2219
    3MOL   C695 2139   2.606   2.585   6.127 -0.5301  0.3894  0.8396
    3MOL   C696 2140   2.607   2.452   6.039 -0.7706  0.4183  0.1083
    3MOL   C697 2141   2.551   2.319   6.102 -0.2808  0.0389  0.3639
    3MOL   C698 2142   2.537   2.198   6.011  0.1849  0.6405  0.1694
    3MOL   C699 2143   2.410   2.200   5.925 -0.7949 -0.5959  0.7228
    3MOL   C700 2144   2.419   2.089   5.819  0.5988  0.0767  0.2102
    3MOL   N701 2145   2.302   2.091   5.728  0.6527 -0.8275 -0.1463
    3MOL   C702 2146   2.817   2.881   5.895 -0.4865  0.1017  0.1482
    3MOL   C703 2147   2.900   2.967   5.821  0.3830  0.0786  0.3693
    3MOL   H704 2148   2.873   3.235   6.024  0.2218  0.1262  0.5255
    3MOL   H705 2149   2.717   3.094   6.130 -1.9230  0.6753 -1.9105
    3MOL   H706 2150   2.781   2.677   6.034  0.6943 -1.6279  2.1108
    3MOL   H707 2151   2.658   2.554   6.218  2.8084  0.3529 -0.9930
    3MOL   H708 2152   2.506   2.615   6.157 -1.0934 -1.5680  0.9749
    3MOL   H709 2153   2.701   2.429   5.990  0.2012  0.9251  1.6910
    3MOL   H710 2154   2.543   2.482   5.956 -0.2073  0.5455 -0.2751
    3MOL   H711 2155   2.614   2.286   6.184  2.4787  0.9335 -1.3037
    3MOL   H712 2156   2.451   2.324   6.145  0.1366  0.2051  1.3189
    3MOL   H713 2157   2.526   2.110   6.075  0.6015  1.3115  1.1850
    3MOL   H714 2158   2.630   2.186   5.955 -0.1114  2.8242 -0.8266
    3MOL   H715 2159   2.384   2.299   5.887  0.1396 -0.3232  0.7754
    3MOL   H716 2160   2.327   2.185   5.994 -1.3077 -2.3832 -0.2436
    3MOL   H717 2161   2.507   2.095   5.756  0.8915  0.8935  0.7030
    3MOL   H718 2162   2.422   1.987   5.858  0.5105 -0.0146 -0.0140
    3MOL   H719 2163   2.219   2.061   5.777  0.3837  1.2265  0.6686
    3MOL   H720 2164   2.805   2.781   5.856 -0.4733 -0.1113  0.6869
    3MOL   H721 2165   2.946   2.927   5.732 -2.1930 -0.0302 -0.9737
    3MOL   H722 2166   2.317   2.020   5.657  0.9775 -1.3563  0.4429
    4MOL     C1 2167   2.670   0.254   1.408  0.4722  0.4643  0.2062
    4MOL     O2 2168   2.643   0.251   1.290  0.4761 -0.2548  0.3526
    4MOL     C3 2169   2.690   0.137   1.500  0.3886 -0.3593 -0.2074
    4MOL     C4 2170   2.704   0.003   1.452 -0.1165 -0.1391  0.2000
    4MOL     C5 2171   2.701   7.778   1.537 -0.2224 -0.2906 -0.5081
    4MOL     C6 2172   2.679   7.796   1.676  0.3664 -0.2715 -0.1060
    4MOL     C7 2173   2.652   7.682   1.773  0.1823  0.0589  0.1466
    4MOL     O8 2174   2.584   7.703   1.876 -0.5858  0.0793 -0.3592
    4MOL     N9 2175   2.698   7.562   1.741 -0.2116 -0.0347 -0.4231
    4MOL    C10 2176   2.672   7.430   1.809 -0.0818 -0.5103  0.5875
    4MOL    C11 2177   2.776   7.403   1.912  0.1918 -0.1578 -0.0933
    4MOL    C12 2178   2.769   7.257   1.956 -0.1380  1.0585 -0.4181
    4MOL    C13 2179   2.849   7.217   2.084 -0.4073  0.7538  0.0204
    4MOL    C14 2180   2.808   7.079   2.145 -0.1376 -0.2818 -0.0218
    4MOL    C15 2181   2.865   7.072   2.287  0.3459 -0.4831 -0.3807
    4MOL    N16 2182   2.803   6.965   2.369 -0.2300  1.0347 -0.2995
    4MOL    C17 2183   2.686   0.043   1.725  0.4378 -0.5791 -0.0099
    4MOL    C18 2184   2.691   0.155   1.639 -0.4899  0.2504 -0.0961
    4MOL    H19 2185   2.711   7.875   1.345  1.5412 -1.3257  0.4353
    4MOL    H20 2186   2.708   7.678   1.496  0.4337 -0.3306 -0.3055
    4MOL    H21 2187   2.766   7.562   1.666  1.5775  2.4401  1.1306
    4MOL    H22 2188   2.569   7.426   1.846  0.4109  0.2528  2.0638
    4MOL    H23 2189   2.680   7.355   1.731  0.6324  1.7611 -1.6153
    4MOL    H24 2190   2.758   7.472   1.995  2.0273  0.0904  0.1154
    4MOL    H25 2191   2.878   7.416   1.877 -0.2197  0.5832 -1.0560
    4MOL    H26 2192   2.668   7.217   1.951 -0.2755  1.2217  0.9240
    4MOL    H27 2193   2.821   7.197   1.881  0.6008  0.9500  0.1719
    4MOL    H28 2194   2.823   7.294   2.156 -0.4557  0.6239  0.1422
    4MOL    H29 2195   2.955   7.219   2.060 -0.5674  1.9027 -0.6403
    4MOL    H30 2196   2.835   6.995   2.080  0.2939 -0.3400  0.2339
    4MOL    H31 2197   2.700   7.064   2.149 -0.0388 -1.5321 -1.5142
    4MOL    H32 2198   2.974   7.061   2.285  0.7398  1.8601  3.4087
    4MOL    H33 2199   2.832   7.163   2.337 -1.4703  0.1074 -2.5675
    4MOL    H34 2200   2.704   6.980   2.380 -0.1414  0.7258  0.8893
    4MOL    H35 2201   2.677   0.064   1.831  2.4126  0.3364 -0.0054
    4MOL    H36 2202   2.690   0.255   1.681 -0.9824  0.9882 -1.8189
    4MOL    H37 2203   2.687   0.348   1.459  2.3735 -0.6072  1.5830
    4MOL    C38 2204   2.856   6.845   2.397  0.6289  0.4820  0.4135
    4MOL    O39 2205   2.971   6.810   2.366  0.0483  0.1477  0.6577
    4MOL    C40 2206   2.763   6.751   2.463 -0.1967  0.5258  0.7142
    4MOL    C41 2207   2.762   6.729   2.603  0.9041  0.0452 -0.1932
    4MOL    C42 2208   2.658   6.656   2.663  0.3310 -0.2927  0.3992
    4MOL    C43 2209   2.562   6.593   2.581 -0.2406 -0.4813 -0.4354
    4MOL    C44 2210   2.443   6.523   2.638 -0.0578 -0.7842  0.4529
    4MOL    O45 2211   2.398   6.561   2.748 -0.0434  0.4731  0.4164
    4MOL    N46 2212   2.386   6.423   2.564 -0.0367 -0.1547 -0.2784
    4MOL    C47 2213   2.261   6.358   2.601  0.2485  0.3514  0.0171
    4MOL    C48 2214   2.233   6.235   2.523  0.2912 -0.2448 -0.1903
    4MOL    C49 2215   2.097   6.174   2.551  0.3724  0.1649 -0.1510
    4MOL    C50 2216   2.040   6.087   2.440 -0.8784  0.1061 -0.8849
    4MOL    C51 2217   1.914   6.010   2.484  0.1995  0.0402  0.1975
    4MOL    C52 2218   1.851   5.923   2.371 -0.1314  0.7277 -0.2065
    4MOL    N53 2219   1.833   6.001   2.251  0.3376  0.1631  0.3651
    4MOL    C54 2220   2.574   6.601   2.443 -0.0987  0.3990 -0.3182
    4MOL    C55 2221   2.667   6.684   2.381 -0.0612  0.2343 -0.5741
    4MOL    H56 2222   2.834   6.776   2.669  0.6766 -0.1850  0.2193
    4MOL    H57 2223   2.655   6.638   2.770 -0.3555 -0.1319  0.4109
    4MOL    H58 2224   2.436   6.387   2.483  0.6093 -1.1763  0.5606
    4MOL    H59 2225   2.266   6.336   2.708  0.9160 -0.2810 -0.1419
    4MOL    H60 2226   2.184   6.431   2.578 -1.6245 -1.1522  1.3521
    4MOL    H61 2227   2.303   6.153   2.540 -0.8819 -1.5044 -1.2879
    4MOL    H62 2228   2.256   6.249   2.418 -1.4411  3.8384 -0.0947
    4MOL    H63 2229   2.089   6.115   2.643 -1.1692  1.1399  0.3707
    4MOL    H64 2230   2.018   6.243   2.580 -1.4584 -0.2633 -3.7985
    4MOL    H65 2231   2.109   6.011   2.404  3.0143  1.9069  2.3803
    4MOL    H66 2232   2.017   6.162   2.364  3.5357  3.0078  0.4792
    4MOL    H67 2233   1.840   6.085   2.513 -0.1027 -1.3277  3.2583
    4MOL    H68 2234   1.927   5.951   2.575 -2.8613  0.3543  0.9114
    4MOL    H69 2235   1.926   5.860   2.324 -0.9171 -0.7541  0.5004
    4MOL    H70 2236   1.768   5.863   2.409  0.3646  0.5919  0.6908
    4MOL    H71 2237   1.906   6.009   2.182 -1.7448  0.9632 -1.8261
    4MOL    H72 2238   2.496   6.562   2.381  0.7862 -0.1051 -1.1272
    4MOL    H73 2239   2.665   6.708   2.276 -0.1381 -2.2768 -1.1874
    4MOL    C74 2240   1.718   6.059   2.220  0.0360 -0.2864 -0.0155
    4MOL    O75 2241   1.616   6.043   2.288  0.3030 -0.6815 -0.2910
    4MOL    C76 2242   1.712   6.136   2.091 -0.2807  0.4303  0.2531
    4MOL    C77 2243   1.831   6.193   2.023 -0.0473  0.0215 -0.1585
    4MOL    C78 2244   1.824   6.270   1.904  0.1924 -0.3654  0.5214
    4MOL    C79 2245   1.700   6.304   1.850  0.6454  0.2767  0.5874
    4MOL    C80 2246   1.691   6.403   1.736  0.4165 -0.5543  0.1716
    4MOL    O81 2247   1.784   6.410   1.660  0.2520 -0.2091  0.1229
    4MOL    N82 2248   1.579   6.471   1.725  0.0038 -0.3849 -0.0337
    4MOL    C83 2249   1.544   6.543   1.606  0.5040 -0.0959  0.1979
    4MOL    C84 2250   1.393   6.547   1.576  0.3010 -0.1240  0.0163
    4MOL    C85 2251   1.317   6.618   1.686  0.1864 -0.4344  0.7397
    4MOL    C86 2252   1.160   6.597   1.684  0.0651  0.6380  0.7430
    4MOL    C87 2253   1.126   6.449   1.675  0.6366  0.0519 -0.1837
    4MOL    C88 2254   1.183   6.375   1.795  0.1384  0.0282  0.3754
    4MOL    N89 2255   1.087   6.266   1.831 -0.1982 -0.0279 -0.1047
    4MOL    C90 2256   1.584   6.241   1.904  0.7602 -0.1399 -0.7426
    4MOL    C91 2257   1.591   6.155   2.017  0.8990 -0.3418 -0.1997
    4MOL    H92 2258   1.927   6.170   2.066 -0.3323  1.0198  1.0128
    4MOL    H93 2259   1.911   6.315   1.859 -0.8905  1.7633  0.4723
    4MOL    H94 2260   1.516   6.464   1.804 -0.0749 -0.1495 -0.0759
    4MOL    H95 2261   1.571   6.647   1.626  0.9986  0.3845 -2.8018
    4MOL    H96 2262   1.602   6.516   1.518  2.2153  4.2119 -0.1030
    4MOL    H97 2263   1.372   6.440   1.570 -0.6403  0.0597  0.0139
    4MOL    H98 2264   1.367   6.591   1.480 -0.1084  0.3224  0.3325
    4MOL    H99 2265   1.346   6.583   1.785 -1.0693 -0.5071  1.0925
    4MOL   H100 2266   1.342   6.724   1.678 -0.5352 -0.3572 -0.7785
    4MOL   H101 2267   1.127   6.644   1.592  0.1158 -0.1426  0.3196
    4MOL   H102 2268   1.100   6.649   1.758  0.7830  1.7117  0.5796
    4MOL   H103 2269   1.168   6.401   1.587 -0.2786 -2.9590  0.9566
    4MOL   H104 2270   1.017   6.438   1.684  0.6961  0.3242  0.9679
    4MOL   H105 2271   1.285   6.338   1.786 -0.2849 -0.7006 -1.5028
    4MOL   H106 2272   1.184   6.440   1.882 -1.0883  0.4474  0.0908
    4MOL   H107 2273   0.996   6.307   1.849  0.3142  0.9031  0.4324
    4MOL   H108 2274   1.494   6.253   1.846 -0.2772 -0.8042  0.6990
    4MOL   H109 2275   1.503   6.099   2.047  1.4377 -1.4530 -0.6577
    4MOL   C110 2276   1.103   6.135   1.841  0.1917  0.2870 -0.5792
    4MOL   O111 2277   1.214   6.085   1.821  0.4168  0.2015 -0.1428
    4MOL   C112 2278   0.981   6.052   1.867 -0.2170  0.0467  0.6558
    4MOL   C113 2279   0.852   6.105   1.848  0.8050  0.1006  0.3707
    4MOL   C114 2280   0.744   6.018   1.872 -0.2685 -0.3776  0.3958
    4MOL   C115 2281   0.761   5.893   1.927 -0.1004  0.5735  0.3368
    4MOL   C116 2282   0.643   5.808   1.966 -0.3870  0.1356  0.2936
    4MOL   O117 2283   0.539   5.825   1.902 -0.1088 -0.0844  0.1745
    4MOL   N118 2284   0.659   5.718   2.066  0.6709 -0.0115 -0.4396
    4MOL   C119 2285   0.557   5.628   2.123 -0.3886  1.1278 -0.2700
    4MOL   C120 2286   0.512   5.685   2.256  0.2888 -0.3652 -0.1297
    4MOL   C121 2287   0.419   5.591   2.333 -1.0195  0.0448 -0.5734
    4MOL   C122 2288   0.338   5.650   2.450 -1.0875 -0.6607  0.1243
    4MOL   C123 2289   0.218   5.574   2.500  0.4522  0.4620 -0.4707
    4MOL   C124 2290   0.079   5.622   2.459 -0.7978  0.1357 -0.4572
    4MOL   N125 2291   0.089   5.653   2.319  0.2885 -0.0248  0.4416
    4MOL   C126 2292   0.891   5.845   1.952 -0.4782 -0.3856 -0.2557
    4MOL   C127 2293   1.000   5.924   1.921  0.3025 -0.0935  0.1068
    4MOL   H128 2294   0.833   6.200   1.801 -1.5179 -0.3398  0.3383
    4MOL   H129 2295   0.642   6.047   1.851 -0.1659  0.6514  1.2867
    4MOL   H130 2296   0.745   5.728   2.119  0.5955 -0.9803 -0.1243
    4MOL   H131 2297   0.468   5.617   2.061 -1.0383  0.7658  0.7077
    4MOL   H132 2298   0.595   5.527   2.138 -1.1214  0.8491 -0.2511
    4MOL   H133 2299   0.454   5.777   2.254 -1.4449 -1.3947  0.4713
    4MOL   H134 2300   0.588   5.709   2.329 -1.3930  3.6194  0.4065
    4MOL   H135 2301   0.349   5.549   2.260 -2.9450  1.4009  0.4497
    4MOL   H136 2302   0.476   5.501   2.356 -1.7444 -0.2217  0.1726
    4MOL   H137 2303   0.300   5.750   2.432 -0.4492 -0.9214 -2.8298
    4MOL   H138 2304   0.408   5.677   2.530  0.9343  0.9455 -2.1285
    4MOL   H139 2305   0.215   5.588   2.608 -0.5008  0.6824 -0.5282
    4MOL   H140 2306   0.228   5.465   2.491 -0.7831  0.2264  0.8657
    4MOL   H141 2307   7.881   5.562   2.495  0.5004  0.1074  2.6737
    4MOL   H142 2308   0.051   5.715   2.508 -0.7815 -1.8569  3.5270
    4MOL   H143 2309   0.100   5.750   2.294  0.3796 -0.5818 -1.8773
    4MOL   H144 2310   0.910   5.746   1.991 -2.1690 -0.0978  1.3257
    4MOL   H145 2311   1.102   5.890   1.934 -0.6319 -2.6945  1.0041
    4MOL   C146 2312   0.062   5.566   2.221 -0.1870  0.3209  0.1186
    4MOL   O147 2313   0.024   5.453   2.246  0.0468  0.0544 -0.6014
    4MOL   C148 2314   0.104   5.615   2.084  1.4054 -0.5212  0.6484
    4MOL   C149 2315   0.161   5.744   2.064  0.4702 -0.2560  0.7938
    4MOL   C150 2316   0.201   5.784   1.936  0.2501 -0.0301  0.0605
    4MOL   C151 2317   0.178   5.694   1.830  0.0692 -0.0567  0.9139
    4MOL   C152 2318   0.213   5.738   1.691  0.3466  0.6151  0.0618
    4MOL   O153 2319   0.142   5.702   1.600 -0.0541  0.1411  0.3790
    4MOL   N154 2320   0.311   5.831   1.682 -0.4249 -0.8025 -0.0187
    4MOL   C155 2321   0.333   5.915   1.568 -1.0941  0.2617  0.2507
    4MOL   C156 2322   0.231   6.030   1.568 -0.9021 -0.0253  0.2449
    4MOL   C157 2323   0.222   6.096   1.701 -0.1252 -0.0221 -0.0984
    4MOL   C158 2324   0.081   6.087   1.768  0.2160  0.4440  0.9116
    4MOL   C159 2325   0.079   6.146   1.912  0.1292  1.1050  0.5912
    4MOL   C160 2326   7.835   6.146   1.986 -0.3316  0.0816 -0.2431
    4MOL   N161 2327   7.854   6.192   2.125  0.4954 -0.3730 -0.5897
    4MOL   C162 2328   0.123   5.569   1.848  0.9258  0.1279  0.2787
    4MOL   C163 2329   0.093   5.526   1.978  0.0416 -0.3427 -0.2777
    4MOL   H164 2330   0.179   5.818   2.140 -0.0621  0.2487  0.4344
    4MOL   H165 2331   0.251   5.879   1.922  0.2445 -0.3328 -2.1006
    4MOL   H166 2332   0.366   5.853   1.764 -2.7176  1.2707  1.0156
    4MOL   H167 2333   0.437   5.945   1.556 -0.8936 -1.4846 -2.9736
    4MOL   H168 2334   0.326   5.852   1.479 -3.0859  1.2088 -0.2947
    4MOL   H169 2335   0.135   5.989   1.538 -0.7972 -0.6781  0.8060
    4MOL   H170 2336   0.259   6.096   1.486  0.9756 -0.4122  0.5468
    4MOL   H171 2337   0.306   6.061   1.761  0.3726  0.4470 -0.5076
    4MOL   H172 2338   0.247   6.203   1.704  1.9691 -0.4993  0.1575
    4MOL   H173 2339   0.055   5.982   1.781  1.2479 -0.2300 -2.0125
    4MOL   H174 2340   0.011   6.122   1.693  2.2920  0.8470 -0.8922
    4MOL   H175 2341   0.122   6.246   1.905  0.0298  1.0468 -1.1646
    4MOL   H176 2342   0.154   6.090   1.967  0.1418  0.5240 -0.0175
    4MOL   H177 2343   7.750   6.191   1.935  0.4175 -0.3242 -1.8851
    4MOL   H178 2344   7.820   6.038   1.986  1.4438 -0.1927 -1.8066
    4MOL   H179 2345   0.022   6.132   2.185  1.0286 -1.2058 -1.8960
    4MOL   H180 2346   0.100   5.506   1.764  2.6719  0.3827 -0.4313
    4MOL   H181 2347   0.052   5.427   1.990  1.4933 -0.9553 -0.2306
    4MOL   C182 2348   7.794   6.303   2.182  0.1315  0.3734 -0.1730
    4MOL   O183 2349   7.710   6.376   2.130 -0.2196  0.0411 -0.7636
    4MOL   C184 2350   7.851   6.328   2.321 -1.0190  0.2793 -0.4690
    4MOL   C185 2351   7.774   6.383   2.414 -0.1217 -0.3950  0.1851
    4MOL   C186 2352   7.823   6.390   2.551  0.4200 -0.5703  0.8650
    4MOL   C187 2353   0.068   6.359   2.584  0.2606  0.7007 -0.5863
    4MOL   C188 2354   0.109   6.365   2.729 -0.2779  0.0347  0.5382
    4MOL   O189 2355   0.227   6.375   2.752 -0.4828  0.2084 -0.2395
    4MOL   N190 2356   0.014   6.345   2.820 -0.1604 -0.1322 -0.1650
    4MOL   C191 2357   0.032   6.330   2.964 -0.2880 -0.0698 -0.5831
    4MOL   C192 2358   0.059   6.459   3.034  0.0484 -0.6865  0.3832
    4MOL   C193 2359   0.092   6.437   3.182  0.3033  0.0598  1.1119
    4MOL   C194 2360   0.107   6.564   3.271  0.2272 -0.7814 -0.1731
    4MOL   C195 2361   7.868   6.653   3.283 -0.3845 -0.1022  1.4217
    4MOL   C196 2362   7.868   6.750   3.402 -0.0244 -0.3817  0.6514
    4MOL   N197 2363   7.789   6.870   3.370 -0.8680 -0.2996 -0.0476
    4MOL   C198 2364   0.154   6.313   2.485  0.3151  0.1861  0.3939
    4MOL   C199 2365   0.098   6.294   2.352  0.1886  0.1978  0.6268
    4MOL   H200 2366   7.678   6.424   2.387 -0.2070 -0.8021 -0.1430
    4MOL   H201 2367   7.762   6.429   2.631  1.7204  0.7712  1.2359
    4MOL   H202 2368   7.805   6.346   2.786 -0.2206  2.4000 -0.0425
    4MOL   H203 2369   7.822   6.299   3.006 -1.5694  1.1311 -2.5161
    4MOL   H204 2370   0.119   6.267   2.982 -0.1636  0.5560  1.0351
    4MOL   H205 2371   7.865   6.533   3.029  0.4362 -0.1215  2.1522
    4MOL   H206 2372   0.152   6.498   2.991 -0.3451  0.5045  0.5963
    4MOL   H207 2373   0.025   6.368   3.232 -1.4019  0.7541 -0.1831
    4MOL   H208 2374   0.192   6.393   3.183  0.2792 -0.0586 -0.2226
    4MOL   H209 2375   0.194   6.627   3.252 -1.2661  2.0849  2.2138
    4MOL   H210 2376   0.148   6.544   3.370 -0.5761 -1.7823 -0.0404
    4MOL   H211 2377   7.777   6.594   3.296 -0.1580 -0.7553  0.1832
    4MOL   H212 2378   7.857   6.716   3.195  0.2444 -0.6409  0.9432
    4MOL   H213 2379   7.845   6.702   3.497  1.0690 -1.0187  0.6003
    4MOL   H214 2380   0.080   6.795   3.422 -0.4375  0.3360  1.0825
    4MOL   H215 2381   7.762   6.886   3.274 -0.8236 -2.2489 -0.4082
    4MOL   H216 2382   0.253   6.277   2.511 -0.3346 -1.6429  0.4166
    4MOL   H217 2383   0.174   6.259   2.283 -1.5091 -1.6143 -0.3492
    4MOL   C218 2384   7.748   6.958   3.460  0.4113  0.3330 -0.0249
    4MOL   O219 2385   7.765   6.939   3.581  0.2033 -0.1251 -0.0973
    4MOL   C220 2386   7.692   7.082   3.406  0.3063 -0.5908  0.7236
    4MOL   C221 2387   7.636   7.090   3.276  0.0533  0.4303 -0.0911
    4MOL   C222 2388   7.588   7.212   3.222 -0.3932  0.0379 -0.4971
    4MOL   C223 2389   7.587   7.333   3.300  0.5477  0.8718  0.4542
    4MOL   C224 2390   7.538   7.459   3.243 -0.1012 -0.7491 -0.9451
    4MOL   O225 2391   7.558   7.489   3.123  0.3237  0.0379  0.2112
    4MOL   N226 2392   7.473   7.547   3.324 -0.0796  0.3723 -0.1948
    4MOL   C227 2393   7.425   7.675   3.282  0.7298  0.3034 -0.1959
    4MOL   C228 2394   7.273   7.688   3.275 -0.0855 -0.5008  0.1463
    4MOL   C229 2395   7.208   7.582   3.191 -0.3128 -0.7397  0.2311
    4MOL   C230 2396   7.061   7.558   3.216  0.7500  0.2219 -0.3562
    4MOL   C231 2397   7.001   7.453   3.127  0.2768 -0.3276 -0.4936
    4MOL   C232 2398   7.003   7.311   3.188  0.4746  0.3227  0.3972
    4MOL   N233 2399   6.946   7.216   3.094  0.1801  0.2436  0.0626
    4MOL   C234 2400   7.633   7.326   3.434  0.0060  0.1482 -0.1469
    4MOL   C235 2401   7.687   7.203   3.479  0.3548 -0.5833  0.0762
    4MOL   H236 2402   7.634   7.001   3.216 -1.0226  0.5722 -0.2856
    4MOL   H237 2403   7.554   7.220   3.120 -1.2225 -1.6564 -0.3621
    4MOL   H238 2404   7.452   7.518   3.418  0.1756  1.1931  0.1141
    4MOL   H239 2405   7.466   7.733   3.365 -1.1293  1.4761 -0.0732
    4MOL   H240 2406   7.475   7.720   3.197 -0.6698  0.3350 -1.0057
    4MOL   H241 2407   7.239   7.788   3.247 -2.0885 -0.8379  1.2635
    4MOL   H242 2408   7.236   7.676   3.377 -2.3681 -1.3941 -0.7574
    4MOL   H243 2409   7.228   7.624   3.092  1.4857 -0.8524  0.5275
    4MOL   H244 2410   7.253   7.485   3.211  0.3099 -0.7377 -1.0615
    4MOL   H245 2411   7.005   7.650   3.196 -0.3301 -1.0616 -3.4689
    4MOL   H246 2412   7.060   7.544   3.324 -0.3163 -1.8717 -0.6276
    4MOL   H247 2413   7.064   7.453   3.038  0.9104  0.4703 -0.0504
    4MOL   H248 2414   6.894   7.467   3.113  0.6060  1.2653 -1.4654
    4MOL   H249 2415   7.104   7.286   3.223  0.2033  3.6742  3.9699
    4MOL   H250 2416   6.945   7.307   3.280  2.6007  1.4692  1.8520
    4MOL   H251 2417   6.863   7.237   3.040  0.4029  1.9252  0.3533
    4MOL   H252 2418   7.632   7.415   3.495  2.2342 -0.7648  1.2656
    4MOL   H253 2419   7.732   7.207   3.577  2.7047 -0.3350 -1.0010
    4MOL   C254 2420   6.990   7.088   3.080  0.5310 -0.3251  0.1638
    4MOL   O255 2421   7.073   7.033   3.155 -0.0811 -0.1597 -0.5192
    4MOL   C256 2422   6.921   7.003   2.978  0.2153  0.0041 -0.0851
    4MOL   C257 2423   6.901   6.863   3.000  0.3808  0.1893  0.0391
    4MOL   C258 2424   6.819   6.787   2.916  0.0890 -1.3478 -0.0930
    4MOL   C259 2425   6.765   6.852   2.799  0.0837  0.5940  0.5168
    4MOL   C260 2426   6.682   6.765   2.706  0.6518  0.1300 -0.4261
    4MOL   O261 2427   6.630   6.660   2.741 -0.2930 -0.1337 -0.1338
    4MOL   N262 2428   6.663   6.808   2.576  0.5562 -0.0138  0.8959
    4MOL   C263 2429   6.590   6.724   2.478  0.0674 -0.2036 -0.3197
    4MOL   C264 2430   6.527   6.799   2.361  0.1752 -0.5978  0.0520
    4MOL   C265 2431   6.498   6.706   2.236  0.1228  0.6004 -0.1499
    4MOL   C266 2432   6.435   6.788   2.127  0.4215  0.4020 -0.2339
    4MOL   C267 2433   6.308   6.868   2.153 -0.0681  0.4986  0.6813
    4MOL   C268 2434   6.264   6.955   2.034  0.3876 -0.0158  0.0401
    4MOL   N269 2435   6.139   7.025   2.072  0.3684 -0.3473  0.5529
    4MOL   C270 2436   6.777   6.991   2.782 -0.5784 -0.6271  0.0081
    4MOL   C271 2437   6.850   7.067   2.870  0.8098  0.2456 -0.7251
    4MOL   H272 2438   6.958   6.807   3.073 -0.1489  1.0528  1.1230
    4MOL   H273 2439   6.805   6.680   2.929 -1.9887 -1.1054 -0.1401
    4MOL   H274 2440   6.721   6.887   2.551 -0.1047  0.1395 -0.1575
    4MOL   H275 2441   6.646   6.641   2.434 -1.3354 -0.6767 -1.2570
    4MOL   H276 2442   6.512   6.667   2.527 -0.1529 -0.6546 -1.1760
    4MOL   H277 2443   6.601   6.870   2.324 -0.9488  0.7180  0.2776
    4MOL   H278 2444   6.429   6.839   2.388  0.6353  1.4527 -1.2231
    4MOL   H279 2445   6.592   6.667   2.198 -0.3419  0.6041 -1.3255
    4MOL   H280 2446   6.435   6.622   2.263  1.6216 -0.4798  0.0214
    4MOL   H281 2447   6.413   6.714   2.050  2.5539  1.4646 -1.9458
    4MOL   H282 2448   6.516   6.853   2.093  1.5252  0.6585  2.7276
    4MOL   H283 2449   6.319   6.944   2.230  2.2472  2.4641 -1.4780
    4MOL   H284 2450   6.230   6.799   2.186 -0.0106 -0.3852 -0.9616
    4MOL   H285 2451   6.337   7.033   2.014 -1.0203  1.6605  1.2474
    4MOL   H286 2452   6.246   6.907   1.938 -0.8142 -0.8245  0.6515
    4MOL   H287 2453   6.124   7.032   2.172 -2.0890 -0.5374  0.2280
    4MOL   H288 2454   6.733   7.047   2.700  0.7339  0.2591 -0.0980
    4MOL   H289 2455   6.847   7.174   2.856 -1.4982  0.1148 -1.4423
    4MOL   C290 2456   6.044   7.063   1.986 -0.2582 -0.2525 -0.5200
    4MOL   O291 2457   6.050   7.048   1.864  0.3290 -0.0635 -0.1134
    4MOL   C292 2458   5.927   7.123   2.059  0.0510  0.6789  0.8096
    4MOL   C293 2459   5.811   7.047   2.073 -0.0344  0.5132 -0.0346
    4MOL   C294 2460   5.702   7.104   2.142 -0.2133  0.3125  0.2045
    4MOL   C295 2461   5.705   7.233   2.203  0.0585  0.1521  0.0325
    4MOL   C296 2462   5.594   7.292   2.273  0.5370  0.0369  0.3999
    4MOL   O297 2463   5.512   7.214   2.326  0.3663 -0.1130  0.0432
    4MOL   N298 2464   5.570   7.421   2.269 -0.6327  0.3058 -0.3645
    4MOL   C299 2465   5.458   7.499   2.321 -0.5119  0.5246 -0.2162
    4MOL   C300 2466   5.514   7.607   2.427  0.3729 -0.0657  0.6614
    4MOL   C301 2467   5.408   7.688   2.502 -0.6492  1.0126  0.2341
    4MOL   C302 2468   5.462   7.786   2.599 -0.9054 -0.1580  0.1202
    4MOL   C303 2469   5.522   0.025   2.535 -0.0543 -0.4206 -0.3248
    4MOL   C304 2470   5.608   0.101   2.636  0.3300 -0.4584  0.2804
    4MOL   N305 2471   5.533   0.159   2.744 -0.5879 -0.3404  0.0775
    4MOL   C306 2472   5.823   7.304   2.187 -0.9148 -0.0262  0.1587
    4MOL   C307 2473   5.928   7.255   2.108 -0.3262  0.1062  0.0735
    4MOL   H308 2474   5.799   6.949   2.031  0.8268  0.6552 -0.6112
    4MOL   H309 2475   5.612   7.045   2.139  0.9855 -1.5396  0.4910
    4MOL   H310 2476   5.625   7.472   2.201 -0.9031 -0.3221 -1.0681
    4MOL   H311 2477   5.402   7.551   2.243 -0.4833 -1.6361 -1.7241
    4MOL   H312 2478   5.381   7.430   2.355 -1.3194  1.4216 -0.1777
    4MOL   H313 2479   5.568   7.670   2.357 -1.0451 -1.2306 -1.5709
    4MOL   H314 2480   5.577   7.553   2.497  0.1796 -2.3096 -0.8311
    4MOL   H315 2481   5.340   7.740   2.434 -1.2576  0.1545  0.1727
    4MOL   H316 2482   5.342   7.618   2.555 -1.6631  1.9942  0.2859
    4MOL   H317 2483   5.534   7.728   2.656 -1.0881 -0.6241 -0.1201
    4MOL   H318 2484   5.388   7.810   2.675 -0.9540  2.4103 -0.6684
    4MOL   H319 2485   5.435   0.083   2.501 -1.2150 -2.4933 -0.9582
    4MOL   H320 2486   5.579   7.877   2.449  1.0340 -0.8785  0.5733
    4MOL   H321 2487   5.672   0.018   2.667 -0.7055 -0.9738  1.0828
    4MOL   H322 2488   5.666   0.177   2.583 -1.7143  1.7506  1.1040
    4MOL   H323 2489   5.566   0.144   2.838 -2.1822  0.9065  0.8563
    4MOL   H324 2490   5.829   7.403   2.230 -2.1271  0.5041 -0.8806
    4MOL   H325 2491   6.016   7.313   2.083 -0.0700  0.2375  1.2673
    4MOL   C326 2492   5.454   0.265   2.729 -0.0408  0.5670 -0.9963
    4MOL   O327 2493   5.434   0.323   2.627  0.3146  0.1137  0.6912
    4MOL   C328 2494   5.391   0.321   2.851 -0.7071  0.0914 -0.0762
    4MOL   C329 2495   5.430   0.448   2.902 -0.1421  0.2312 -0.1398
    4MOL   C330 2496   5.385   0.499   3.022 -0.5466  0.2875 -0.5148
    4MOL   C331 2497   5.300   0.422   3.105 -0.1326 -1.0339 -0.4443
    4MOL   C332 2498   5.244   0.482   3.230  0.3252  0.1566  0.1964
    4MOL   O333 2499   5.132   0.525   3.230  0.0875 -0.2945 -0.5416
    4MOL   N334 2500   5.318   0.487   3.339 -0.0114 -0.4741 -0.2289
    4MOL   C335 2501   5.287   0.501   3.485 -0.2637 -0.3331 -0.5621
    4MOL   C336 2502   5.192   0.389   3.538 -0.6732  0.6148 -0.8595
    4MOL   C337 2503   5.184   0.371   3.687  0.4716  0.0965 -0.1343
    4MOL   C338 2504   5.098   0.250   3.723  0.0220 -0.1976 -0.1643
    4MOL   C339 2505   5.087   0.237   3.876  0.2894  0.0669  0.2178
    4MOL   C340 2506   5.025   0.100   3.917  0.2988  0.5906 -0.6837
    4MOL   N341 2507   5.071   0.054   4.045  0.3654 -0.2700 -0.0186
    4MOL   C342 2508   5.258   0.293   3.059  0.0853 -0.2153  0.2097
    4MOL   C343 2509   5.301   0.244   2.930 -0.4183  0.7697  0.7100
    4MOL   H344 2510   5.504   0.511   2.856  0.6739 -0.1883  0.5829
    4MOL   H345 2511   5.410   0.599   3.054 -0.0919  0.8526 -2.5603
    4MOL   H346 2512   5.416   0.472   3.321  0.0281 -0.6168  0.0919
    4MOL   H347 2513   5.378   0.491   3.544 -1.2708  2.4072  1.5591
    4MOL   H348 2514   5.246   0.598   3.512 -0.0423 -0.6937  1.1271
    4MOL   H349 2515   5.235   0.298   3.497  0.3981 -0.2525  2.0736
    4MOL   H350 2516   5.092   0.407   3.497 -0.8688  0.8906 -0.2605
    4MOL   H351 2517   5.281   0.367   3.737  0.7261  4.3472 -0.1359
    4MOL   H352 2518   5.135   0.460   3.726 -0.0583 -1.9410  4.1434
    4MOL   H353 2519   5.147   0.158   3.692 -1.0659 -1.0775  0.6704
    4MOL   H354 2520   5.007   0.263   3.665 -1.2197 -0.0089  1.7690
    4MOL   H355 2521   5.030   0.319   3.919  2.6030  1.6351  0.3550
    4MOL   H356 2522   5.189   0.246   3.911 -0.6025  2.6711  2.3227
    4MOL   H357 2523   4.917   0.112   3.924  0.1954 -0.6855  0.1108
    4MOL   H358 2524   5.044   0.025   3.840  0.5953 -0.8086  0.7356
    4MOL   H359 2525   5.001   0.034   4.114 -1.4750 -0.3692 -1.8573
    4MOL   H360 2526   5.190   0.227   3.113  1.0138 -2.1118 -0.8985
    4MOL   H361 2527   5.272   0.143   2.903  1.5585  0.0449  1.2515
    4MOL   C362 2528   5.195   0.002   4.064 -0.1240 -0.1961 -0.4711
    4MOL   O363 2529   5.284   7.881   3.976 -0.1891 -0.0838 -0.7032
    4MOL   C364 2530   5.216   7.810   4.193  0.4727 -0.0682 -0.4328
    4MOL   C365 2531   5.296   7.696   4.196 -0.3766  0.1572 -0.2319
    4MOL   C366 2532   5.298   7.621   4.314 -0.6818 -0.1758 -0.1798
    4MOL   C367 2533   5.222   7.651   4.427  0.4586 -0.3530  0.0165
    4MOL   C368 2534   5.214   7.557   4.551 -0.3372 -0.0180  0.1072
    4MOL   O369 2535   5.123   7.578   4.635  0.1760  0.1479 -0.5849
    4MOL   N370 2536   5.305   7.458   4.543  0.1205 -0.9643 -0.0367
    4MOL   C371 2537   5.306   7.346   4.639  0.2271 -0.1778  0.9186
    4MOL   C372 2538   5.452   7.302   4.652 -0.1533  0.4584 -0.6077
    4MOL   C373 2539   5.492   7.206   4.771 -0.5327  0.4601 -0.1508
    4MOL   C374 2540   5.637   7.150   4.761  0.0926 -0.1029 -0.7022
    4MOL   C375 2541   5.669   7.045   4.863 -0.6190 -0.4069 -0.4624
    4MOL   C376 2542   5.813   7.006   4.863 -0.8202  0.5343  0.5300
    4MOL   N377 2543   5.882   7.024   4.735  0.9872  0.2116 -0.2915
    4MOL   C378 2544   5.148   7.767   4.426  0.3477 -0.2013  0.3131
    4MOL   C379 2545   5.144   7.845   4.309  0.6041  0.1555 -0.6401
    4MOL   H380 2546   5.349   7.665   4.106  1.7367 -0.0980  1.0673
    4MOL   H381 2547   5.361   7.534   4.308  0.5223  0.6347  0.5904
    4MOL   H382 2548   5.383   7.459   4.479  0.6120 -1.9871  0.5358
    4MOL   H383 2549   5.264   7.357   4.740  0.2202 -1.5635  1.0813
    4MOL   H384 2550   5.244   7.266   4.598  0.3694  0.5421 -0.7273
    4MOL   H385 2551   5.520   7.387   4.655  0.1538  0.2268 -0.9885
    4MOL   H386 2552   5.481   7.253   4.559  0.6933 -0.3165  0.0592
    4MOL   H387 2553   5.469   7.243   4.871  2.3491 -0.1074  0.7688
    4MOL   H388 2554   5.432   7.115   4.764 -1.0215  0.7660  0.0746
    4MOL   H389 2555   5.711   7.230   4.765 -1.0299  1.0699 -2.8578
    4MOL   H390 2556   5.635   7.104   4.662 -3.3719 -1.6033 -0.0181
    4MOL   H391 2557   5.612   6.962   4.821 -0.1456 -1.7823  1.5595
    4MOL   H392 2558   5.636   7.061   4.966  0.7816 -1.5971  0.1796
    4MOL   H393 2559   5.866   7.066   4.937  1.1851 -1.9877  1.2030
    4MOL   H394 2560   5.836   6.904   4.895 -0.2059 -0.4175 -2.7645
    4MOL   H395 2561   5.848   7.089   4.665  1.2006  1.4748  0.7564
    4MOL   H396 2562   5.094   7.806   4.511  0.2544 -1.3933  0.8049
    4MOL   H397 2563   5.094   0.055   4.314  0.6491  0.0880  1.7134
    4MOL   C398 2564   6.008   6.977   4.711 -0.1166 -0.0210 -0.3474
    4MOL   O399 2565   6.063   6.900   4.790 -0.0015  0.3297 -0.3802
    4MOL   C400 2566   6.085   7.040   4.593 -0.6276  0.5163 -0.6545
    4MOL   C401 2567   6.020   7.061   4.467  0.6552 -0.1561  0.2295
    4MOL   C402 2568   6.084   7.121   4.359 -0.4211  0.4181 -0.1428
    4MOL   C403 2569   6.220   7.150   4.369  0.1334  0.4060 -0.5731
    4MOL   C404 2570   6.290   7.231   4.259  0.4062 -0.3406  0.1958
    4MOL   O405 2571   6.223   7.309   4.188  0.4761  0.2125  0.2667
    4MOL   N406 2572   6.419   7.206   4.231  0.0795  0.3250  0.4675
    4MOL   C407 2573   6.516   7.270   4.149 -0.3613 -0.4112  0.7930
    4MOL   C408 2574   6.634   7.310   4.235 -0.3278 -0.5066  0.2727
    4MOL   C409 2575   6.759   7.330   4.155 -0.5872  0.4391 -0.1192
    4MOL   C410 2576   6.878   7.373   4.243 -0.5462 -0.5749  0.7175
    4MOL   C411 2577   6.958   7.252   4.300 -0.0943 -1.0760 -0.2919
    4MOL   C412 2578   7.029   7.162   4.192 -0.7927  0.3672  0.0370
    4MOL   N413 2579   7.138   7.232   4.133 -0.7933  0.3309 -0.0418
    4MOL   C414 2580   6.284   7.131   4.494 -0.1193  0.3368 -0.5763
    4MOL   C415 2581   6.222   7.068   4.604 -0.1055  0.5859  0.0355
    4MOL   H416 2582   5.915   7.038   4.457  0.6273 -0.0356  0.2448
    4MOL   H417 2583   6.026   7.158   4.276  0.5103  0.2690 -0.8665
    4MOL   H418 2584   6.458   7.146   4.302 -1.6957  0.4723  1.5919
    4MOL   H419 2585   6.549   7.210   4.065  0.2493 -0.2801  0.9304
    4MOL   H420 2586   6.489   7.364   4.100  2.3060  0.8861  1.6708
    4MOL   H421 2587   6.647   7.245   4.322 -1.8314 -0.0434  0.8591
    4MOL   H422 2588   6.616   7.403   4.288 -1.7102  0.1405 -1.3044
    4MOL   H423 2589   6.760   7.244   4.087  0.1564  0.0837  0.3361
    4MOL   H424 2590   6.746   7.415   4.088 -0.3901  0.0369 -0.6738
    4MOL   H425 2591   6.861   7.434   4.332  0.1492 -1.9496  1.8288
    4MOL   H426 2592   6.947   7.432   4.184 -1.1079 -0.2564  0.3800
    4MOL   H427 2593   6.888   7.192   4.359 -1.9430 -0.2122 -1.5685
    4MOL   H428 2594   7.030   7.282   4.376  0.1036  0.9003 -1.2525
    4MOL   H429 2595   7.049   7.072   4.251  0.0402  0.6267  0.1676
    4MOL   H430 2596   6.958   7.126   4.118 -0.3269 -0.2081 -0.1397
    4MOL   H431 2597   7.192   7.291   4.195  0.0443  1.0578 -1.4292
    4MOL   H432 2598   6.381   7.173   4.515 -0.5152  1.0280 -0.1122
    4MOL   H433 2599   6.268   7.071   4.702  1.8534  2.7617 -0.8915
    4MOL   C434 2600   7.185   7.201   4.015 -0.2312  0.1269 -0.1352
    4MOL   O435 2601   7.138   7.108   3.947 -0.3652 -0.7905  0.4318
    4MOL   C436 2602   7.311   7.267   3.977  0.1011 -0.4543 -0.5226
    4MOL   C437 2603   7.402   7.202   3.894 -0.7110 -0.0606 -0.1586
    4MOL   C438 2604   7.525   7.258   3.851  0.6505  0.4627  0.2019
    4MOL   C439 2605   7.551   7.387   3.892  0.1047  0.0332 -0.8751
    4MOL   C440 2606   7.682   7.457   3.851  0.8489 -0.1518  0.0589
    4MOL   O441 2607   7.773   7.397   3.793  0.5916  0.6419 -0.7334
    4MOL   N442 2608   7.691   7.588   3.888 -0.3427 -0.2370  0.1500
    4MOL   C443 2609   7.802   7.676   3.859 -0.0158  0.3294 -0.8194
    4MOL   C444 2610   7.748   7.815   3.853 -0.2072 -0.5352 -0.9549
    4MOL   C445 2611   7.858   0.033   3.836 -0.1716  0.2302  0.7767
    4MOL   C446 2612   7.804   0.178   3.867 -0.2593  0.6460  0.3842
    4MOL   C447 2613   0.003   0.289   3.805  0.4953 -0.0122 -0.4408
    4MOL   C448 2614   7.822   0.364   3.686 -0.3415 -0.1212  0.2698
    4MOL   N449 2615   7.820   0.294   3.556 -0.4693 -0.0945 -0.1381
    4MOL   C450 2616   7.462   7.463   3.973  0.4346  0.1060  0.2828
    4MOL   C451 2617   7.343   7.400   4.015 -0.4215  0.5048 -0.9053
    4MOL   H452 2618   7.362   7.106   3.864 -0.6209 -0.0582 -0.2843
    4MOL   H453 2619   7.592   7.203   3.787  0.1623  1.5907 -1.2868
    4MOL   H454 2620   7.601   7.628   3.912 -0.0692  0.1883  0.4650
    4MOL   H455 2621   7.867   7.662   3.945  1.3738  1.5844 -1.6370
    4MOL   H456 2622   7.855   7.641   3.770 -1.2094  1.8463 -2.1646
    4MOL   H457 2623   7.693   7.834   3.945  1.0917 -1.6520  0.0773
    4MOL   H458 2624   7.682   7.821   3.767 -2.6218 -0.9158  0.8263
    4MOL   H459 2625   0.054   0.023   3.906  0.7584  4.0133  0.3611
    4MOL   H460 2626   0.023   0.026   3.740 -2.3846  0.6388 -0.4837
    4MOL   H461 2627   7.794   0.187   3.976  1.0329  0.1523  0.5497
    4MOL   H462 2628   7.703   0.174   3.826 -0.1348  1.7887 -0.0343
    4MOL   H463 2629   0.098   0.251   3.768  0.4120 -0.7997  0.1209
    4MOL   H464 2630   0.029   0.358   3.885  0.9736 -0.8408  0.1309
    4MOL   H465 2631   7.718   0.393   3.702 -1.6841 -3.1610 -2.3920
    4MOL   H466 2632   7.870   0.461   3.677 -0.1391  0.0318  2.7400
    4MOL   H467 2633   0.023   0.287   3.508 -0.9708 -0.4003 -1.0400
    4MOL   H468 2634   7.480   7.557   4.023 -2.8224  0.7668  0.2761
    4MOL   H469 2635   7.282   7.451   4.088 -0.4667 -0.3232 -0.3562
    4MOL   C470 2636   7.722   0.223   3.508  0.1441  0.1912  0.3503
    4MOL   O471 2637   7.608   0.216   3.555  0.0339  0.2389 -0.7883
    4MOL   C472 2638   7.764   0.136   3.389 -0.4495 -0.3714 -0.1463
    4MOL   C473 2639   7.708   0.005   3.383  0.7162  0.0033 -0.5357
    4MOL   C474 2640   7.751   7.804   3.279 -0.7692 -1.0120 -0.2415
    4MOL   C475 2641   7.840   7.850   3.177 -0.0147  0.4910 -0.1977
    4MOL   C476 2642   7.880   7.753   3.071  0.1059 -0.1723  0.5327
    4MOL   O477 2643   0.095   7.773   3.012  0.3863 -0.0180 -0.4407
    4MOL   N478 2644   7.793   7.659   3.036 -0.5542  0.2341  0.2465
    4MOL   C479 2645   7.827   7.551   2.944 -0.2357  0.3677  0.0981
    4MOL   C480 2646   7.878   7.418   3.011  1.1062 -0.0979  0.4679
    4MOL   C481 2647   7.859   7.298   2.926  0.1266 -0.0958  0.4912
    4MOL   C482 2648   0.022   7.165   2.991  0.3328 -0.1287 -0.4118
    4MOL   C483 2649   7.884   7.043   2.902 -0.0578  0.3033  0.4297
    4MOL   C484 2650   7.732   7.019   2.900  0.6165  0.1294 -0.1513
    4MOL   N485 2651   7.703   6.884   2.860  0.7846  0.1714  0.0504
    4MOL   C486 2652   0.004   0.095   3.175  0.3773  0.6738  0.1078
    4MOL   C487 2653   7.858   0.179   3.288  0.4668  0.3703 -0.1127
    4MOL   H488 2654   7.631   7.853   3.449  1.1403  0.5185  0.2564
    4MOL   H489 2655   7.710   7.704   3.284 -3.1295 -0.0432  0.2137
    4MOL   H490 2656   7.703   7.654   3.080  0.6938 -0.4248  2.8504
    4MOL   H491 2657   7.735   7.535   2.888 -0.1113 -0.9123  0.2375
    4MOL   H492 2658   0.010   7.584   2.866 -0.6587  2.1618  0.4651
    4MOL   H493 2659   7.815   7.391   3.095  1.1878 -0.3573  0.4457
    4MOL   H494 2660   0.095   7.434   3.041  1.0204  0.9520  0.2316
    4MOL   H495 2661   7.761   7.289   2.879  1.1101 -1.7662 -1.3401
    4MOL   H496 2662   0.028   7.298   2.832 -0.3638 -3.2456  0.1351
    4MOL   H497 2663   7.861   7.159   3.089 -0.3617 -0.3722 -0.7574
    4MOL   H498 2664   0.126   7.188   3.016  0.6947 -2.0218 -0.0444
    4MOL   H499 2665   0.051   6.954   2.936 -0.5728 -0.0846  0.2223
    4MOL   H500 2666   0.041   7.048   2.802  0.7275 -2.5683  0.5788
    4MOL   H501 2667   7.683   7.029   2.997  0.1560 -0.0330 -0.3716
    4MOL   H502 2668   7.681   7.087   2.833 -1.3804 -1.9533 -0.8203
    4MOL   H503 2669   7.703   6.873   2.759 -2.0371 -1.6911  0.2043
    4MOL   H504 2670   0.068   0.126   3.094 -2.1077  3.7495 -0.7567
    4MOL   H505 2671   0.008   0.281   3.291  3.2080 -0.4823 -1.9211
    4MOL   C506 2672   7.674   6.779   2.934 -0.3994 -0.0455  0.5353
    4MOL   O507 2673   7.688   6.772   3.054 -0.0566  0.2820 -0.1451
    4MOL   C508 2674   7.608   6.667   2.862 -0.0543 -0.1581  0.4873
    4MOL   C509 2675   7.594   6.545   2.934  1.2096 -0.6270 -0.6615
    4MOL   C510 2676   7.523   6.434   2.874  0.1046 -0.5387 -0.3115
    4MOL   C511 2677   7.484   6.442   2.738 -0.3241 -0.2379 -0.0899
    4MOL   C512 2678   7.439   6.312   2.677 -0.5014  0.0222  1.0912
    4MOL   O513 2679   7.448   6.208   2.743  0.1309  0.2878  0.5511
    4MOL   N514 2680   7.387   6.321   2.547  0.2343 -0.5375  0.1206
    4MOL   C515 2681   7.327   6.209   2.484 -0.5953 -0.0815  0.1244
    4MOL   C516 2682   7.291   6.243   2.336 -0.0434 -0.2479 -0.4578
    4MOL   C517 2683   7.408   6.302   2.248 -0.6002  0.3523 -0.2966
    4MOL   C518 2684   7.387   6.264   2.094 -0.1597 -0.7380 -0.2597
    4MOL   C519 2685   7.438   6.131   2.046  0.1866  0.0282  0.2015
    4MOL   C520 2686   7.392   6.106   1.898 -0.0688  0.1971 -0.6177
    4MOL   N521 2687   7.429   5.975   1.863  0.1366  0.2035 -0.6605
    4MOL   C522 2688   7.513   6.561   2.663  0.0700 -0.3297  0.0480
    4MOL   C523 2689   7.566   6.679   2.727  0.3482 -0.2169 -0.0051
    4MOL   H524 2690   7.646   6.527   3.027  2.5347 -0.5900 -1.3849
    4MOL   H525 2691   7.505   6.344   2.932  1.1177 -1.4919 -1.4647
    4MOL   H526 2692   7.373   6.410   2.501 -0.9655 -0.3842  0.7554
    4MOL   H527 2693   7.407   6.135   2.489 -0.9806 -0.4641  0.5835
    4MOL   H528 2694   7.232   6.186   2.531 -2.1398 -0.2486 -2.9403
    4MOL   H529 2695   7.212   6.316   2.320  2.2813  2.2280 -1.0171
    4MOL   H530 2696   7.258   6.145   2.301 -1.4704  0.4977 -1.2194
    4MOL   H531 2697   7.411   6.410   2.263  0.6844  0.1617  0.9660
    4MOL   H532 2698   7.502   6.260   2.287  0.3675  2.3221 -0.4742
    4MOL   H533 2699   7.424   6.347   2.033 -5.5077  2.4542  0.4811
    4MOL   H534 2700   7.279   6.265   2.083 -0.0659 -3.4267 -1.7989
    4MOL   H535 2701   7.384   6.063   2.111  0.4475 -0.3975 -0.0251
    4MOL   H536 2702   7.544   6.106   2.055  0.6018  2.1457  1.5377
    4MOL   H537 2703   7.283   6.102   1.891  0.0651 -2.1323 -1.9966
    4MOL   H538 2704   7.429   6.182   1.828 -1.2634  1.9820  0.6503
    4MOL   H539 2705   7.354   5.909   1.879 -0.2715  0.9510  0.5704
    4MOL   H540 2706   7.473   6.568   2.563 -1.2894  0.8540  0.6594
    4MOL   H541 2707   7.577   6.774   2.676 -1.1323  0.8872  1.6545
    4MOL   C542 2708   7.537   5.932   1.799  0.0638 -0.4769  0.1648
    4MOL   O543 2709   7.631   6.005   1.767 -0.0121 -0.2107  0.0295
    4MOL   C544 2710   7.540   5.784   1.761  0.1637 -0.1663 -0.7967
    4MOL   C545 2711   7.661   5.722   1.729 -0.4447 -0.2087 -0.3780
    4MOL   C546 2712   7.674   5.590   1.694  0.3565  1.0069  0.7042
    4MOL   C547 2713   7.572   5.500   1.714  1.2010  0.5116  0.3350
    4MOL   C548 2714   7.591   5.353   1.683 -0.1208  0.3900  0.2658
    4MOL   O549 2715   7.542   5.261   1.744 -0.3625  0.3005  0.1069
    4MOL   N550 2716   7.665   5.332   1.571 -0.2449  0.5615  0.1167
    4MOL   C551 2717   7.713   5.200   1.527  1.2396 -0.7718 -0.0163
    4MOL   C552 2718   7.832   5.207   1.431 -0.5168  0.2655  0.1186
    4MOL   C553 2719   0.009   5.070   1.379 -0.2222  0.3061 -0.7407
    4MOL   C554 2720   0.111   5.103   1.264 -0.2710 -0.4961  0.3007
    4MOL   C555 2721   0.207   4.988   1.231 -0.2055 -0.2825 -0.2547
    4MOL   C556 2722   0.325   5.041   1.144  0.5108  0.0959  0.4394
    4MOL   N557 2723   0.423   4.944   1.121 -0.1457  0.4263  0.7549
    4MOL   C558 2724   7.442   5.555   1.753  0.1363 -0.1177 -0.0628
    4MOL   C559 2725   7.434   5.697   1.763  0.9020  0.2191  0.2934
    4MOL   H560 2726   7.751   5.782   1.726 -0.0753 -0.7077  0.4627
    4MOL   H561 2727   7.771   5.552   1.663 -0.0057 -0.1087  0.9067
    4MOL   H562 2728   7.702   5.407   1.514 -1.5990 -1.2014 -3.1743
    4MOL   H563 2729   7.748   5.139   1.611  1.0029 -0.2851  0.4386
    4MOL   H564 2730   7.630   5.147   1.481  2.6627 -2.5829 -0.5833
    4MOL   H565 2731   0.009   5.265   1.498 -0.4689  0.3327  0.0155
    4MOL   H566 2732   7.793   5.260   1.344 -1.3928 -0.6532 -0.0497
    4MOL   H567 2733   0.077   5.031   1.455  0.6713 -0.5823 -1.9745
    4MOL   H568 2734   7.823   4.997   1.342  0.4184 -0.1362 -1.1504
    4MOL   H569 2735   0.177   5.186   1.288 -0.6428  0.0056 -0.4332
    4MOL   H570 2736   0.065   5.122   1.168  1.7399 -0.9878 -0.7845
    4MOL   H571 2737   0.165   4.908   1.171  1.6888 -0.8252 -0.9147
    4MOL   H572 2738   0.254   4.949   1.322  0.5138 -1.9927 -1.3284
    4MOL   H573 2739   0.280   5.079   1.052 -3.1426 -3.2479  0.6973
    4MOL   H574 2740   0.375   5.128   1.186 -0.9406  0.9536  0.4420
    4MOL   H575 2741   0.514   4.952   1.165  1.0062 -1.6516 -1.0905
    4MOL   H576 2742   7.353   5.495   1.767  0.5225 -0.7637 -0.3306
    4MOL   H577 2743   7.334   5.729   1.788  0.7091  1.9240 -2.4740
    4MOL   C578 2744   0.416   4.844   1.031 -0.2295  0.6658  0.5507
    4MOL   O579 2745   0.313   4.824   0.965 -0.2324 -0.5576  0.9839
    4MOL   C580 2746   0.538   4.768   1.005  0.0861  0.1454  0.2451
    4MOL   C581 2747   0.534   4.658   0.917 -0.8211 -0.1637 -0.0549
    4MOL   C582 2748   0.650   4.581   0.876  0.4971  0.2605 -0.0091
    4MOL   C583 2749   0.772   4.615   0.942 -0.7042 -0.5179  0.1915
    4MOL   C584 2750   0.889   4.526   0.924 -0.0109 -0.5449 -0.4590
    4MOL   O585 2751   0.890   4.410   0.895  0.4115 -0.0881 -0.1829
    4MOL   N586 2752   1.004   4.597   0.919 -0.3546 -0.2041 -1.3608
    4MOL   C587 2753   1.144   4.552   0.934  0.4666  0.2801 -0.0285
    4MOL   C588 2754   1.198   4.542   1.082 -0.0036 -0.3073  0.5454
    4MOL   C589 2755   1.135   4.424   1.160  0.1688 -0.2069  0.5420
    4MOL   C590 2756   1.193   4.430   1.300  0.4847  0.1097 -0.7606
    4MOL   C591 2757   1.122   4.325   1.388 -0.7690  0.2197  0.5489
    4MOL   C592 2758   1.135   4.351   1.546  0.1919 -0.7482 -0.0759
    4MOL   N593 2759   1.044   4.276   1.641 -0.1976  0.3160 -0.2535
    4MOL   C594 2760   0.781   4.727   1.031  0.1306 -0.5331 -0.6307
    4MOL   C595 2761   0.663   4.798   1.067  0.0214  0.6101  0.0603
    4MOL   H596 2762   0.440   4.611   0.891 -2.5698  1.4102  3.1641
    4MOL   H597 2763   0.647   4.492   0.814 -0.3545  1.5306 -1.8296
    4MOL   H598 2764   0.998   4.696   0.936  0.1492 -0.3237 -0.4581
    4MOL   H599 2765   1.149   4.455   0.883 -4.1096 -0.7161  1.1583
    4MOL   H600 2766   1.210   4.618   0.878  0.4090  0.4076  0.0562
    4MOL   H601 2767   1.198   4.637   1.135  0.2139  1.0002 -1.7391
    4MOL   H602 2768   1.304   4.520   1.077 -0.4143 -1.9157 -1.5451
    4MOL   H603 2769   1.027   4.428   1.164  0.0545 -1.9884 -0.2847
    4MOL   H604 2770   1.176   4.330   1.122  0.4850  0.8267 -1.7711
    4MOL   H605 2771   1.175   4.528   1.344  2.3220  0.9273 -1.7988
    4MOL   H606 2772   1.300   4.411   1.300  0.4150 -0.3083 -0.4007
    4MOL   H607 2773   1.159   4.223   1.371  2.4673  1.2505  1.0047
    4MOL   H608 2774   1.016   4.338   1.368 -0.7495  0.1747  0.4087
    4MOL   H609 2775   1.240   4.339   1.577 -0.4215 -3.0630  1.3000
    4MOL   H610 2776   1.099   4.453   1.557 -2.2288 -1.7105  1.4654
    4MOL   H611 2777   1.002   4.190   1.609  1.2912 -1.8117  3.2173
    4MOL   H612 2778   0.873   4.750   1.082 -0.9154 -0.4549  1.2300
    4MOL   H613 2779   0.676   4.876   1.140  1.0470  1.6820 -1.2336
    4MOL   C614 2780   1.002   4.316   1.763  0.0420  0.4479  0.4972
    4MOL   O615 2781   1.032   4.430   1.806 -0.3470  0.1124 -0.3402
    4MOL   C616 2782   0.904   4.233   1.840  0.5350  0.0471 -0.4556
    4MOL   C617 2783   0.823   4.134   1.770  0.5523 -0.5750 -0.6915
    4MOL   C618 2784   0.741   4.045   1.841  0.2347  0.1744 -0.2774
    4MOL   C619 2785   0.734   4.054   1.986 -0.4208 -0.4059 -0.6958
    4MOL   C620 2786   0.654   3.957   2.065 -0.0692 -0.1771  0.0424
    4MOL   O621 2787   0.688   3.922   2.178  0.0943  0.0801  0.0250
    4MOL   N622 2788   0.551   3.906   2.000 -0.1831 -0.3060  0.4904
    4MOL   C623 2789   0.493   3.776   2.044  0.6397  0.4679  0.9398
    4MOL   C624 2790   0.541   3.665   1.951 -0.3469 -0.3932 -0.4540
    4MOL   C625 2791   0.504   3.526   2.012  0.3602  0.3744  0.0293
    4MOL   C626 2792   0.543   3.415   1.914  0.7126  1.0505  0.2245
    4MOL   C627 2793   0.441   3.376   1.808 -0.4404  0.0901  0.1250
    4MOL   C628 2794   0.510   3.272   1.713  0.1549 -0.0492 -0.1838
    4MOL   N629 2795   0.422   3.204   1.618 -0.5120 -0.5693  0.1341
    4MOL   C630 2796   0.809   4.151   2.051  0.0734  0.2521 -0.0208
    4MOL   C631 2797   0.885   4.251   1.980  0.4029 -0.2669  0.1281
    4MOL   H632 2798   0.830   4.118   1.664 -0.4279  1.2961 -1.0585
    4MOL   H633 2799   0.683   3.970   1.789  1.5810 -0.2613 -1.1854
    4MOL   H634 2800   0.528   3.940   1.908 -1.3748 -2.2252  0.0487
    4MOL   H635 2801   0.500   3.759   2.151  0.0489 -3.3175  0.4474
    4MOL   H636 2802   0.386   3.782   2.024  1.2025  1.8096 -1.9400
    4MOL   H637 2803   0.649   3.667   1.945 -0.2730  3.3091  0.6541
    4MOL   H638 2804   0.491   3.676   1.855 -0.6520  0.9869 -0.1592
    4MOL   H639 2805   0.544   3.520   2.113  1.5463  0.0977 -0.4478
    4MOL   H640 2806   0.395   3.524   2.026  0.2042 -1.0545 -1.3224
    4MOL   H641 2807   0.563   3.323   1.969 -0.4669  1.3689  1.1852
    4MOL   H642 2808   0.634   3.444   1.861  0.4121 -1.4467 -1.8157
    4MOL   H643 2809   0.403   3.464   1.756  1.3799  1.1002  0.4663
    4MOL   H644 2810   0.363   3.324   1.864  0.6238 -2.4998 -0.6968
    4MOL   H645 2811   0.591   3.319   1.657 -1.3675  3.5878  0.4643
    4MOL   H646 2812   0.567   3.192   1.760 -0.2258  0.6765  1.5855
    4MOL   H647 2813   0.415   3.236   1.522  0.4069  2.1679  0.9420
    4MOL   H648 2814   0.810   4.165   2.158  4.5921  1.6819 -0.1241
    4MOL   H649 2815   0.952   4.314   2.035 -0.1005  0.6496 -0.3008
    4MOL   C650 2816   0.325   3.126   1.661 -0.6217  0.5396  0.1010
    4MOL   O651 2817   0.318   3.080   1.773  0.3837 -0.0301  0.2583
    4MOL   C652 2818   0.222   3.081   1.562 -0.5876  0.0329  0.9458
    4MOL   C653 2819   0.181   3.168   1.460 -0.3867  0.4418  0.0798
    4MOL   C654 2820   0.081   3.139   1.369 -0.7065 -0.1618  0.2345
    4MOL   C655 2821   0.022   3.009   1.379 -0.0891  0.2633 -0.8081
    4MOL   C656 2822   7.803   2.976   1.279 -0.3192 -0.7212 -0.0284
    4MOL   O657 2823   7.731   3.061   1.219 -0.8247 -0.4938  0.3175
    4MOL   N658 2824   7.795   2.850   1.242 -0.2834 -0.1550 -0.0817
    4MOL   C659 2825   7.713   2.783   1.142  0.3890 -0.2699  0.0884
    4MOL   C660 2826   7.753   2.642   1.140  0.5476  0.3882 -0.6871
    4MOL   C661 2827   7.700   2.564   1.016  0.2614  0.4316 -0.1125
    4MOL   C662 2828   7.755   2.424   1.022  0.6539  0.0730 -0.0312
    4MOL   C663 2829   0.010   2.404   0.963 -0.6780 -0.4678  0.5686
    4MOL   C664 2830   0.049   2.256   0.957 -0.3463 -0.4803  0.0056
    4MOL   N665 2831   0.061   2.192   1.088  0.5926 -0.0525  0.6588
    4MOL   C666 2832   0.052   2.917   1.486 -0.4527  0.4226  0.0262
    4MOL   C667 2833   0.148   2.958   1.582 -0.3960  0.9545 -0.7341
    4MOL   H668 2834   0.229   3.264   1.447  1.5663 -0.6037 -0.4881
    4MOL   H669 2835   0.052   3.215   1.298  4.1354  1.8583  0.2749
    4MOL   H670 2836   7.867   2.795   1.287 -0.1059 -1.1374 -1.5129
    4MOL   H671 2837   7.612   2.820   1.162  0.0587  0.2065 -2.3167
    4MOL   H672 2838   7.742   2.811   1.041 -0.9703 -0.2796 -0.3181
    4MOL   H673 2839   7.708   2.591   1.225 -1.1416 -0.3303 -1.9726
    4MOL   H674 2840   7.859   2.617   1.142  0.1674 -1.3856 -1.1712
    4MOL   H675 2841   7.592   2.553   1.001  0.2935 -1.1825  0.7693
    4MOL   H676 2842   7.735   2.617   0.927  2.6292 -0.6123  0.1550
    4MOL   H677 2843   7.683   2.367   0.964 -0.1463 -0.4210  1.4352
    4MOL   H678 2844   7.756   2.376   1.120  1.6812 -0.0942 -0.1159
    4MOL   H679 2845   0.088   2.458   1.016 -3.2791  2.6301  1.4286
    4MOL   H680 2846   0.016   2.453   0.866 -0.7579  3.2512  2.3481
    4MOL   H681 2847   7.862   2.205   0.894  0.4543 -2.5360  0.7240
    4MOL   H682 2848   0.138   2.241   0.896 -1.1005 -0.2371 -1.1763
    4MOL   H683 2849   7.861   2.187   1.141 -0.1136  3.2580 -0.1284
    4MOL   H684 2850   0.000   2.824   1.498 -0.6066  0.3049 -1.4572
    4MOL   H685 2851   0.169   2.893   1.665  2.0689  2.6393  0.0030
    4MOL   C686 2852   0.180   2.152   1.139  0.5598  0.4886  0.5926
    4MOL   O687 2853   0.278   2.143   1.068  0.0390 -0.8637 -0.3451
    4MOL   C688 2854   0.171   2.100   1.281  0.0411  0.1130  0.6742
    4MOL   C689 2855   0.048   2.109   1.353  0.2697  0.2693 -0.2735
    4MOL   C690 2856   0.032   2.059   1.484 -0.6778  0.5596 -0.5566
    4MOL   C691 2857   0.145   1.992   1.544 -0.2940  0.5849 -0.2454
    4MOL   C692 2858   0.121   1.932   1.683 -0.2145  0.3963  0.5707
    4MOL   O693 2859   0.007   1.930   1.736 -0.9932 -0.6727  0.3860
    4MOL   N694 2860   0.232   1.883   1.735 -0.0630  0.3241 -0.4412
    4MOL   C695 2861   0.239   1.838   1.874 -0.0287 -0.2338  0.3883
    4MOL   C696 2862   0.378   1.804   1.926  1.3274 -0.2476  0.0493
    4MOL   C697 2863   0.436   1.687   1.846  0.4364 -0.5346  0.6859
    4MOL   C698 2864   0.561   1.616   1.907  0.4420  0.3546  0.4250
    4MOL   C699 2865   0.626   1.517   1.814 -0.0803  0.4151  0.8122
    4MOL   C700 2866   0.765   1.458   1.866 -0.2025 -0.0548 -0.1296
    4MOL   N701 2867   0.822   1.387   1.748 -0.4163 -0.8049 -0.4647
    4MOL   C702 2868   0.271   1.996   1.480  0.1462  0.0941  0.4249
    4MOL   C703 2869   0.282   2.040   1.345 -0.5855 -0.8191  0.3333
    4MOL   H704 2870   7.845   2.145   1.302  1.5489  0.7582 -2.2127
    4MOL   H705 2871   7.818   2.068   1.524 -0.3928  1.6670 -0.0419
    4MOL   H706 2872   0.316   1.906   1.684  0.2632  1.1925  0.4566
    4MOL   H707 2873   0.193   1.923   1.924 -1.3978 -0.2421 -0.8274
    4MOL   H708 2874   0.170   1.756   1.894  0.1371 -0.9273 -1.7542
    4MOL   H709 2875   0.380   1.778   2.032  0.2991 -0.0897  0.1034
    4MOL   H710 2876   0.452   1.883   1.910  0.7386  0.1463 -0.7178
    4MOL   H711 2877   0.368   1.605   1.822 -0.5677  0.1261  1.2642
    4MOL   H712 2878   0.461   1.742   1.755  0.2355 -0.4298  0.6951
    4MOL   H713 2879   0.523   1.563   1.994  0.5010 -1.0181 -0.3837
    4MOL   H714 2880   0.635   1.678   1.958  1.0429  0.4485 -0.5378
    4MOL   H715 2881   0.645   1.575   1.724  0.4538 -0.2445  0.4931
    4MOL   H716 2882   0.552   1.439   1.796 -0.1550  0.8901 -1.0608
    4MOL   H717 2883   0.837   1.535   1.892  1.8446 -2.9839  3.1740
    4MOL   H718 2884   0.767   1.390   1.951 -0.0656 -0.2370 -0.2787
    4MOL   H719 2885   0.913   1.345   1.759 -0.2680 -0.6413 -1.0505
    4MOL   H720 2886   0.362   1.972   1.532 -0.0236  0.3245  0.8249
    4MOL   H721 2887   0.380   2.033   1.300 -0.8164 -1.1292 -0.1194
    4MOL   H722 2888   0.762   1.325   1.696 -0.3578  0.4858 -2.1288
    5MOL     C1 2889   6.612   3.910   3.055  0.2611 -0.5399  0.1289
    5MOL     O2 2890   6.575   3.821   2.975  0.2903 -0.3060  0.6741
    5MOL     C3 2891   6.723   3.887   3.155  0.0415 -0.1746  0.2501
    5MOL     C4 2892   6.823   3.991   3.178  0.0474  0.2439  0.5741
    5MOL     C5 2893   6.931   3.968   3.263 -0.5491 -0.0219  0.0842
    5MOL     C6 2894   6.954   3.842   3.317 -0.6103  0.1194 -0.0134
    5MOL     C7 2895   7.086   3.801   3.381 -0.4626  0.1581 -0.0399
    5MOL     O8 2896   7.174   3.889   3.411 -0.7546  0.0268  0.1533
    5MOL     N9 2897   7.094   3.681   3.440  0.2622 -0.5033  0.8033
    5MOL    C10 2898   7.161   3.648   3.566 -0.0599 -0.4498 -0.2027
    5MOL    C11 2899   7.303   3.606   3.552  0.4114 -0.3049  0.0517
    5MOL    C12 2900   7.372   3.592   3.688 -0.3664  0.6443  0.6226
    5MOL    C13 2901   7.523   3.568   3.683  0.0459  0.1711  0.3771
    5MOL    C14 2902   7.587   3.565   3.820 -0.6807  0.0587  0.2113
    5MOL    C15 2903   7.739   3.546   3.812 -0.2496  0.5575 -0.1417
    5MOL    N16 2904   7.801   3.577   3.945 -0.1278 -0.1550  0.1553
    5MOL    C17 2905   6.853   3.746   3.299  0.0023  0.3842  0.1021
    5MOL    C18 2906   6.739   3.761   3.220 -0.2179 -0.7392 -0.6788
    5MOL    H19 2907   6.808   4.088   3.133  2.9890  0.7678  0.6061
    5MOL    H20 2908   7.008   4.044   3.260 -1.5609  0.9826 -0.7093
    5MOL    H21 2909   7.033   3.610   3.403 -0.8840  1.6033 -1.4483
    5MOL    H22 2910   7.153   3.732   3.635 -0.7054 -1.4612  0.9795
    5MOL    H23 2911   7.101   3.565   3.603 -0.4567  1.0346  2.5705
    5MOL    H24 2912   7.355   3.685   3.497 -0.8607  0.4165 -0.1300
    5MOL    H25 2913   7.321   3.514   3.496  2.5229  0.3965 -0.4913
    5MOL    H26 2914   7.358   3.676   3.756  1.8388  1.1189  0.5203
    5MOL    H27 2915   7.325   3.507   3.737  0.0353  0.8508  1.3775
    5MOL    H28 2916   7.565   3.654   3.630  1.8858 -1.6273 -1.1916
    5MOL    H29 2917   7.556   3.480   3.628  0.3838 -0.2098  1.1941
    5MOL    H30 2918   7.546   3.489   3.887 -0.7671  0.3441  0.4837
    5MOL    H31 2919   7.573   3.657   3.877 -1.5316 -0.1821  0.4055
    5MOL    H32 2920   7.764   3.443   3.786  0.0027  0.6739 -0.3673
    5MOL    H33 2921   7.787   3.611   3.739  0.6116 -0.7686 -0.7738
    5MOL    H34 2922   7.806   3.492   3.999  1.0758 -0.1571  0.0369
    5MOL    H35 2923   6.863   3.642   3.327 -1.6756 -0.4344 -2.1857
    5MOL    H36 2924   6.657   3.693   3.201 -1.8186  1.4463 -1.7638
    5MOL    H37 2925   6.587   4.016   3.047  3.0699  0.2328  0.9078
    5MOL    C38 2926   7.845   3.699   3.985  0.1396  0.0179  0.4510
    5MOL    O39 2927   7.813   3.803   3.924  0.0079 -0.0431 -0.6276
    5MOL    C40 2928   0.027   3.703   4.118 -0.0927  0.5531 -0.8751
    5MOL    C41 2929   0.092   3.581   4.161  0.6597 -0.6610  0.1509
    5MOL    C42 2930   0.155   3.579   4.285 -0.4642  0.3240 -0.2982
    5MOL    C43 2931   0.151   3.688   4.373 -0.0227 -0.4794 -0.3161
    5MOL    C44 2932   0.189   3.674   4.514  0.2540  0.1049 -0.5573
    5MOL    O45 2933   0.196   3.562   4.568  0.2886  0.1440  0.2248
    5MOL    N46 2934   0.206   3.784   4.587  0.3225  0.2952  0.0434
    5MOL    C47 2935   0.202   3.799   4.735 -0.0714  0.1998  0.2519
    5MOL    C48 2936   0.341   3.772   4.800  0.1621 -0.0333  0.6204
    5MOL    C49 2937   0.402   3.633   4.799  0.3861 -0.5523 -0.2128
    5MOL    C50 2938   0.325   3.527   4.882  0.2822 -0.4127 -0.1843
    5MOL    C51 2939   0.392   3.392   4.841  0.6571 -0.0795  0.4204
    5MOL    C52 2940   0.327   3.263   4.911  0.3056 -0.2611 -0.5764
    5MOL    N53 2941   0.306   3.275   5.057  0.4460  0.3139  0.4123
    5MOL    C54 2942   0.099   3.814   4.325  0.0595 -0.0530  0.1672
    5MOL    C55 2943   0.044   3.826   4.188  0.2836  0.3201  0.8167
    5MOL    H56 2944   0.089   3.487   4.108 -2.8039 -0.6163  0.1539
    5MOL    H57 2945   0.200   3.487   4.321  0.5029  0.2983 -1.5364
    5MOL    H58 2946   0.208   3.871   4.536  2.3760 -0.8221 -1.8879
    5MOL    H59 2947   0.170   3.900   4.759  0.0387  0.7535 -1.8314
    5MOL    H60 2948   0.131   3.731   4.783  1.0840 -1.0468  0.1993
    5MOL    H61 2949   0.331   3.778   4.909  1.3212  0.6916  0.6990
    5MOL    H62 2950   0.412   3.851   4.777 -1.0905  0.9607  0.1124
    5MOL    H63 2951   0.415   3.594   4.698  0.8311 -0.6705 -0.1096
    5MOL    H64 2952   0.499   3.628   4.848 -0.6225 -1.0143  1.8080
    5MOL    H65 2953   0.220   3.523   4.852  0.2868  0.0698 -0.2699
    5MOL    H66 2954   0.320   3.553   4.987 -2.7700  3.0604 -1.0767
    5MOL    H67 2955   0.497   3.387   4.871  0.7635 -1.0524 -0.0785
    5MOL    H68 2956   0.389   3.383   4.732  1.2451  0.6015  0.3385
    5MOL    H69 2957   0.223   3.253   4.881 -0.0507  4.9778 -1.4348
    5MOL    H70 2958   0.383   3.181   4.866  2.2200  1.9630 -2.3938
    5MOL    H71 2959   0.220   3.325   5.078 -1.0271 -1.9037 -0.2017
    5MOL    H72 2960   0.107   3.906   4.382 -0.4595  1.5906 -2.3482
    5MOL    H73 2961   0.003   3.914   4.140 -1.4628 -0.9894 -0.1756
    5MOL    C74 2962   0.390   3.229   5.152 -0.2457 -0.2163  0.4573
    5MOL    O75 2963   0.499   3.176   5.128 -0.5133  0.6669  0.5047
    5MOL    C76 2964   0.349   3.245   5.298  0.7986 -0.3129 -0.6202
    5MOL    C77 2965   0.213   3.278   5.335 -0.6245  0.1808  0.1659
    5MOL    C78 2966   0.176   3.313   5.469 -1.0304 -0.5398 -0.1077
    5MOL    C79 2967   0.277   3.314   5.571  0.6173  0.1390 -0.1555
    5MOL    C80 2968   0.250   3.361   5.708 -0.0202  0.8937  0.2929
    5MOL    O81 2969   0.314   3.328   5.810  0.9410  0.4097  0.3879
    5MOL    N82 2970   0.158   3.455   5.713  0.6181 -0.2570  0.3347
    5MOL    C83 2971   0.105   3.526   5.830 -0.0765  0.2858 -0.2678
    5MOL    C84 2972   7.844   3.553   5.816  0.6245  0.2701 -0.1006
    5MOL    C85 2973   7.763   3.428   5.768  0.4876  0.5441  0.6858
    5MOL    C86 2974   7.611   3.444   5.789  0.2814  0.5745  0.2394
    5MOL    C87 2975   7.523   3.338   5.715  0.4195  0.1052  0.2831
    5MOL    C88 2976   7.368   3.370   5.716  0.8382  0.5479  0.1197
    5MOL    N89 2977   7.283   3.257   5.680  0.3104  0.3017  0.5193
    5MOL    C90 2978   0.410   3.283   5.534 -0.6692  0.2652 -0.2494
    5MOL    C91 2979   0.441   3.239   5.402 -0.4485  0.2692 -0.0794
    5MOL    H92 2980   0.135   3.306   5.265 -0.2489  0.6810 -0.0599
    5MOL    H93 2981   0.072   3.336   5.484 -0.1305  2.7192  1.7052
    5MOL    H94 2982   0.125   3.470   5.619  0.0343 -0.6428  0.4778
    5MOL    H95 2983   0.108   3.459   5.916 -0.0834  1.2863  0.5279
    5MOL    H96 2984   0.160   3.616   5.858 -0.5370 -0.0042  1.6218
    5MOL    H97 2985   7.826   3.637   5.749 -0.6370  0.0066 -0.1033
    5MOL    H98 2986   7.795   3.590   5.906 -0.5757  2.7019 -1.6937
    5MOL    H99 2987   7.782   3.422   5.661 -0.5634 -2.3967  0.6287
    5MOL   H100 2988   7.792   3.335   5.817 -1.0767 -2.0676 -3.0936
    5MOL   H101 2989   7.584   3.539   5.743 -2.9927 -0.7775 -0.7361
    5MOL   H102 2990   7.592   3.437   5.896  0.7025 -1.9155  0.1814
    5MOL   H103 2991   7.546   3.241   5.759  0.3371  0.5317  1.2711
    5MOL   H104 2992   7.555   3.330   5.611 -0.1518  0.0063  0.1102
    5MOL   H105 2993   7.337   3.394   5.817 -1.5254  0.2884 -0.4968
    5MOL   H106 2994   7.352   3.463   5.660  2.3417 -0.2759 -1.7538
    5MOL   H107 2995   7.245   3.203   5.757  2.2841 -0.0133  1.3018
    5MOL   H108 2996   0.491   3.276   5.605  0.7430  0.9099 -1.7564
    5MOL   H109 2997   0.540   3.202   5.381 -0.7864 -1.1301  0.7513
    5MOL   C110 2998   7.246   3.228   5.549  0.2072 -0.8301 -0.0932
    5MOL   O111 2999   7.283   3.292   5.450  0.4079 -0.5464  0.4695
    5MOL   C112 3000   7.155   3.113   5.535  0.5364  0.0381  1.0429
    5MOL   C113 3001   7.113   3.035   5.649  0.6532  0.2918 -0.4978
    5MOL   C114 3002   7.029   2.926   5.635  0.4021  0.0770  0.4888
    5MOL   C115 3003   6.995   2.885   5.508 -0.1694  1.4791 -0.1836
    5MOL   C116 3004   6.926   2.748   5.492 -0.3378 -0.2441  0.1978
    5MOL   O117 3005   6.806   2.729   5.484  0.3174 -0.1165  0.1178
    5MOL   N118 3006   7.018   2.643   5.491  0.1631  0.0651  0.6297
    5MOL   C119 3007   6.985   2.508   5.500 -0.0332  0.1706 -0.3885
    5MOL   C120 3008   6.986   2.441   5.359  0.3739  0.2748  0.0366
    5MOL   C121 3009   6.944   2.293   5.363 -0.3381 -0.7160 -0.2333
    5MOL   C122 3010   6.902   2.241   5.217  0.4651  0.2291  0.4568
    5MOL   C123 3011   6.834   2.102   5.239  0.4724 -0.0217  0.1660
    5MOL   C124 3012   6.746   2.073   5.121 -0.0814  0.2260 -0.0453
    5MOL   N125 3013   6.810   2.077   4.995  0.3813 -0.7096  0.7682
    5MOL   C126 3014   7.025   2.958   5.393 -0.3545  0.4248  0.3721
    5MOL   C127 3015   7.114   3.072   5.404  0.3873 -0.2019  0.1418
    5MOL   H128 3016   7.139   3.058   5.751 -2.0176  0.0771  0.2591
    5MOL   H129 3017   6.994   2.870   5.720  1.8473 -3.5577 -1.1994
    5MOL   H130 3018   7.116   2.668   5.495 -0.3842  2.4881  0.1075
    5MOL   H131 3019   7.061   2.469   5.567  0.1087  2.9840  1.1401
    5MOL   H132 3020   6.888   2.484   5.543 -0.1636 -1.1405 -1.3827
    5MOL   H133 3021   7.080   2.457   5.307  1.1368 -1.4331  0.8427
    5MOL   H134 3022   6.905   2.492   5.307  0.8353 -0.6230 -1.5729
    5MOL   H135 3023   7.031   2.234   5.393 -0.9973 -1.5048  0.1621
    5MOL   H136 3024   6.859   2.270   5.427 -0.3831  0.1231  0.0125
    5MOL   H137 3025   6.991   2.239   5.153  1.8199 -0.9517  2.3285
    5MOL   H138 3026   6.828   2.307   5.173 -0.1501 -0.6271  0.1835
    5MOL   H139 3027   6.784   2.085   5.334  2.5401 -0.8963  1.1090
    5MOL   H140 3028   6.909   2.024   5.238  1.9663  1.3786 -1.0814
    5MOL   H141 3029   6.691   1.980   5.138  0.8749 -0.8360 -2.4985
    5MOL   H142 3030   6.666   2.148   5.122 -0.7583 -0.4922  1.0602
    5MOL   H143 3031   6.873   1.998   4.986 -0.8968 -1.5136 -1.6116
    5MOL   H144 3032   6.988   2.922   5.298  0.8583  0.7749 -0.2382
    5MOL   H145 3033   7.130   3.135   5.317  0.1435  0.7202  0.7625
    5MOL   C146 3034   6.816   2.185   4.915  0.4687 -0.2393  0.3173
    5MOL   O147 3035   6.756   2.293   4.928  0.0951 -0.2689 -0.3500
    5MOL   C148 3036   6.914   2.170   4.800 -0.3711  0.4196  0.1529
    5MOL   C149 3037   6.910   2.061   4.719  0.0762 -0.1660  0.0811
    5MOL   C150 3038   6.994   2.049   4.608  0.1465  0.4609  0.6346
    5MOL   C151 3039   7.080   2.153   4.565  0.1976  0.2758  0.2810
    5MOL   C152 3040   7.164   2.136   4.446 -0.2014  0.1145  0.5420
    5MOL   O153 3041   7.160   2.026   4.388  0.0963 -0.6503  0.0979
    5MOL   N154 3042   7.230   2.246   4.400 -0.6868  0.8286  0.2416
    5MOL   C155 3043   7.319   2.246   4.285  0.7441  0.0805 -0.0696
    5MOL   C156 3044   7.446   2.150   4.304 -0.7141 -0.3570  0.5451
    5MOL   C157 3045   7.549   2.169   4.196  0.2652  0.8034 -0.0434
    5MOL   C158 3046   7.501   2.156   4.051  0.3402  0.4383 -0.1086
    5MOL   C159 3047   7.471   2.017   3.992 -0.2006 -0.1521 -0.3086
    5MOL   C160 3048   7.443   2.029   3.848  0.3926 -0.5247 -0.2036
    5MOL   N161 3049   7.416   1.904   3.793  0.2550  0.0349  0.0116
    5MOL   C162 3050   7.080   2.269   4.649 -0.4631  0.0793 -0.2404
    5MOL   C163 3051   6.997   2.277   4.762  0.0300  0.4287 -0.0558
    5MOL   H164 3052   6.847   1.976   4.742  0.9688 -0.7855  0.2956
    5MOL   H165 3053   6.994   1.958   4.549 -0.8701  1.9533 -1.7080
    5MOL   H166 3054   7.220   2.335   4.445 -1.6796  0.9723 -0.2460
    5MOL   H167 3055   7.264   2.203   4.202 -0.1633 -2.8720  1.9968
    5MOL   H168 3056   7.350   2.345   4.250  0.5725  0.3387  0.4872
    5MOL   H169 3057   7.398   2.052   4.301 -1.3463 -0.0339  0.0788
    5MOL   H170 3058   7.492   2.170   4.401  1.0911  1.1549 -0.5925
    5MOL   H171 3059   7.598   2.266   4.201  0.7440  0.4639  2.2312
    5MOL   H172 3060   7.625   2.098   4.227 -0.4015 -1.1692 -2.7312
    5MOL   H173 3061   7.576   2.201   3.986  0.1082  1.1580  0.1241
    5MOL   H174 3062   7.416   2.224   4.038 -1.5313 -1.9643 -0.9111
    5MOL   H175 3063   7.387   1.975   4.047 -0.5891  0.2991 -0.5461
    5MOL   H176 3064   7.562   1.962   4.012 -1.0262 -1.5926 -0.3938
    5MOL   H177 3065   7.371   2.101   3.809  1.5185  0.1780 -1.0374
    5MOL   H178 3066   7.536   2.067   3.805 -0.4586 -2.0533 -3.5269
    5MOL   H179 3067   7.318   1.890   3.809  0.3385 -1.1926 -0.5742
    5MOL   H180 3068   7.145   2.349   4.618 -0.7664  1.1713  1.8619
    5MOL   H181 3069   6.993   2.365   4.824  1.2390  0.3984  0.0882
    5MOL   C182 3070   7.488   1.842   3.698 -0.7191  0.1601  0.0167
    5MOL   O183 3071   7.607   1.875   3.669  0.0388  0.0888 -0.3015
    5MOL   C184 3072   7.427   1.732   3.623 -0.3527  0.4487  0.2106
    5MOL   C185 3073   7.303   1.679   3.665 -0.1123  0.6163  0.1241
    5MOL   C186 3074   7.227   1.595   3.576 -0.2932  0.5285  0.4810
    5MOL   C187 3075   7.266   1.572   3.449 -0.0055 -0.2571 -0.3452
    5MOL   C188 3076   7.174   1.510   3.348  0.0306  0.1346  0.1174
    5MOL   O189 3077   7.048   1.531   3.359 -0.3214 -0.6098  0.2596
    5MOL   N190 3078   7.230   1.422   3.259  0.0151  0.0465 -0.6284
    5MOL   C191 3079   7.153   1.341   3.163 -0.3403 -0.7002  0.0288
    5MOL   C192 3080   7.229   1.310   3.038 -0.4687  0.7955 -0.5784
    5MOL   C193 3081   7.303   1.435   2.986  0.5073  0.1497 -0.0059
    5MOL   C194 3082   7.228   1.563   2.944  0.7383  0.5951 -0.0493
    5MOL   C195 3083   7.319   1.668   2.886  0.1653  0.0094  0.6807
    5MOL   C196 3084   7.398   1.752   2.993 -0.2022  0.5239  0.3013
    5MOL   N197 3085   7.308   1.814   3.092  0.6694 -0.1388  0.3437
    5MOL   C198 3086   7.389   1.628   3.398  0.4099 -0.3259  0.1127
    5MOL   C199 3087   7.469   1.708   3.488  0.1390 -0.1633 -0.3298
    5MOL   H200 3088   7.257   1.706   3.759 -1.5133 -2.6873  0.4660
    5MOL   H201 3089   7.124   1.566   3.592 -0.1403 -0.4835 -0.3462
    5MOL   H202 3090   7.326   1.399   3.277 -0.3096 -2.8279 -2.3448
    5MOL   H203 3091   7.135   1.243   3.207 -1.1167 -0.0145  1.2669
    5MOL   H204 3092   7.058   1.389   3.138  0.4569 -0.0520 -1.8952
    5MOL   H205 3093   7.169   1.264   2.960  1.4397 -2.7993 -0.0177
    5MOL   H206 3094   7.300   1.229   3.052  0.5738  1.7813 -0.1383
    5MOL   H207 3095   7.387   1.462   3.050  2.3025  1.2076 -2.7248
    5MOL   H208 3096   7.346   1.406   2.890  0.8409  1.4070 -0.2423
    5MOL   H209 3097   7.170   1.601   3.028  0.8865 -0.6228  0.6143
    5MOL   H210 3098   7.157   1.540   2.864  0.6099  2.3412 -0.4535
    5MOL   H211 3099   7.250   1.739   2.841  0.0500  0.1602  1.0880
    5MOL   H212 3100   7.385   1.625   2.811 -1.4598 -1.9372  0.3354
    5MOL   H213 3101   7.472   1.695   3.049 -0.4974  2.5016  2.8000
    5MOL   H214 3102   7.451   1.837   2.949 -1.9020  1.6906  0.4765
    5MOL   H215 3103   7.255   1.754   3.154  0.5219 -0.8338 -0.4480
    5MOL   H216 3104   7.416   1.611   3.295  2.0041 -0.1499  0.4995
    5MOL   H217 3105   7.554   1.759   3.444 -0.3269  0.0137 -1.0456
    5MOL   C218 3106   7.319   1.942   3.123  0.7267  0.4272 -0.4593
    5MOL   O219 3107   7.369   2.033   3.060  0.0968 -0.4786  0.7158
    5MOL   C220 3108   7.274   1.973   3.266  0.0830 -0.6072 -0.1574
    5MOL   C221 3109   7.346   2.062   3.352  0.3598 -0.6255  0.4998
    5MOL   C222 3110   7.292   2.103   3.473 -0.8081  0.1157  0.0531
    5MOL   C223 3111   7.184   2.031   3.523  0.7203 -0.0786  0.0497
    5MOL   C224 3112   7.120   2.076   3.655  0.3171 -0.0364  0.0223
    5MOL   O225 3113   7.068   1.999   3.735  0.6113 -0.5392 -0.0982
    5MOL   N226 3114   7.128   2.207   3.686 -0.0737 -0.0028  0.2017
    5MOL   C227 3115   7.086   2.278   3.805  1.1067 -0.3578  0.5961
    5MOL   C228 3116   6.945   2.283   3.837 -0.6713 -0.3233 -0.3261
    5MOL   C229 3117   6.912   2.351   3.965  0.0849 -0.5489 -0.3847
    5MOL   C230 3118   6.767   2.369   3.986  0.1244 -0.2425 -0.2330
    5MOL   C231 3119   6.732   2.391   4.136 -1.0396  0.5944  0.4110
    5MOL   C232 3120   6.581   2.428   4.140  0.1416 -0.5708 -0.4835
    5MOL   N233 3121   6.542   2.560   4.093 -0.8163 -0.3527  0.3605
    5MOL   C234 3122   7.126   1.922   3.456  0.7944 -0.0096 -0.0653
    5MOL   C235 3123   7.171   1.898   3.324 -0.2863  0.5185  0.1326
    5MOL   H236 3124   7.416   2.125   3.299  0.9836  0.5179  2.6423
    5MOL   H237 3125   7.338   2.186   3.526  2.3300 -1.9250  0.6488
    5MOL   H238 3126   7.178   2.270   3.625  0.8066 -0.9692 -0.0876
    5MOL   H239 3127   7.147   2.242   3.887  0.0303 -1.0210  1.1159
    5MOL   H240 3128   7.114   2.381   3.787 -0.3582 -0.3684 -2.0178
    5MOL   H241 3129   6.897   2.186   3.826 -1.9058 -0.0608  2.3707
    5MOL   H242 3130   6.905   2.342   3.754 -0.3730  1.7705  0.9649
    5MOL   H243 3131   6.959   2.286   4.039 -0.6234 -1.0279 -0.3522
    5MOL   H244 3132   6.962   2.447   3.976 -1.2496  0.1372 -0.1930
    5MOL   H245 3133   6.694   2.294   3.958 -1.2256  0.4275  1.3572
    5MOL   H246 3134   6.728   2.455   3.932 -1.9671 -1.3419 -0.5183
    5MOL   H247 3135   6.799   2.468   4.176 -0.1136  1.6295 -2.9978
    5MOL   H248 3136   6.739   2.289   4.176 -1.4413 -0.2069 -1.5403
    5MOL   H249 3137   6.520   2.349   4.097 -0.2628 -1.6130  1.8753
    5MOL   H250 3138   6.549   2.430   4.245  0.9143 -0.4149 -0.2487
    5MOL   H251 3139   6.503   2.556   4.000 -1.6003  2.1981  0.5620
    5MOL   H252 3140   7.045   1.877   3.510 -0.0435  1.2128 -0.2649
    5MOL   H253 3141   7.124   1.821   3.266  0.2620  1.2538 -1.3205
    5MOL   C254 3142   6.563   2.674   4.152 -0.6869  0.2131 -0.0211
    5MOL   O255 3143   6.603   2.690   4.264  0.4662 -0.1802  0.0828
    5MOL   C256 3144   6.544   2.794   4.051 -0.3285  0.6234 -0.2493
    5MOL   C257 3145   6.522   2.924   4.104 -0.5490  0.1849 -0.4930
    5MOL   C258 3146   6.526   3.044   4.031  0.7700 -0.7705 -0.4217
    5MOL   C259 3147   6.519   3.026   3.898  0.3883 -1.0843 -0.6889
    5MOL   C260 3148   6.515   3.145   3.816 -0.2432  0.1641  0.9697
    5MOL   O261 3149   6.588   3.155   3.717  0.1596 -0.1460  0.0009
    5MOL   N262 3150   6.442   3.245   3.857 -0.0603 -0.5188  0.1459
    5MOL   C263 3151   6.448   3.379   3.810  0.0635  0.2139  1.0984
    5MOL   C264 3152   6.391   3.468   3.909  0.2354 -0.5143 -0.0764
    5MOL   C265 3153   6.391   3.621   3.892 -0.2661  0.0238 -0.4279
    5MOL   C266 3154   6.379   3.707   4.024 -0.2726  0.1030  0.3633
    5MOL   C267 3155   6.402   3.858   4.008 -0.4109 -0.5832  0.2284
    5MOL   C268 3156   6.540   3.898   3.944 -0.0016 -0.6167 -0.9634
    5MOL   N269 3157   6.649   3.835   4.014 -0.3534 -0.0532 -0.1713
    5MOL   C270 3158   6.532   2.902   3.835 -0.2363  0.0857 -0.5898
    5MOL   C271 3159   6.547   2.785   3.912 -0.3122  0.1185 -0.0600
    5MOL   H272 3160   6.515   2.929   4.212 -1.4123 -2.3214 -0.4096
    5MOL   H273 3161   6.525   3.142   4.078  0.4387 -0.7050 -0.5605
    5MOL   H274 3162   6.365   3.231   3.920  1.5301  2.3138  2.8630
    5MOL   H275 3163   6.555   3.402   3.810 -0.0267  0.6377  1.1655
    5MOL   H276 3164   6.405   3.394   3.711 -0.1627 -0.5216  1.0781
    5MOL   H277 3165   6.450   3.450   3.999  0.9193  0.3274 -0.3519
    5MOL   H278 3166   6.287   3.456   3.940 -0.4810 -0.1489 -2.2467
    5MOL   H279 3167   6.474   3.651   3.828  1.0008 -0.7603  0.8144
    5MOL   H280 3168   6.309   3.667   3.836 -1.4308  0.1672  1.3384
    5MOL   H281 3169   6.439   3.675   4.109  0.0841  2.4882  1.0255
    5MOL   H282 3170   6.277   3.688   4.057 -0.4030  2.3080  1.2874
    5MOL   H283 3171   6.383   3.911   4.101 -3.2400 -0.2377 -0.5000
    5MOL   H284 3172   6.326   3.891   3.938 -1.5148 -1.1142  1.1614
    5MOL   H285 3173   6.546   3.866   3.840 -2.7271  0.0651 -1.3747
    5MOL   H286 3174   6.558   4.006   3.941 -0.9248 -0.4343 -0.3480
    5MOL   H287 3175   6.675   3.740   3.990 -0.9414 -0.1528 -0.4359
    5MOL   H288 3176   6.517   2.899   3.728  0.1649 -2.0735 -0.6110
    5MOL   H289 3177   6.580   2.692   3.868  2.4854 -0.3613  2.8889
    5MOL   C290 3178   6.684   3.885   4.134 -0.4669 -0.5463 -0.1486
    5MOL   O291 3179   6.657   3.994   4.183  0.0230 -0.0263 -0.8380
    5MOL   C292 3180   6.786   3.802   4.207  0.1469  0.2185 -0.1347
    5MOL   C293 3181   6.889   3.855   4.283 -0.2472 -0.2674 -0.3423
    5MOL   C294 3182   6.982   3.783   4.359  0.3159  0.5250 -0.3355
    5MOL   C295 3183   6.976   3.642   4.363  0.0949 -0.8352  0.0051
    5MOL   C296 3184   7.075   3.560   4.438  0.4705 -0.0234 -0.1004
    5MOL   O297 3185   7.081   3.437   4.435  0.1344 -0.5690 -0.4482
    5MOL   N298 3186   7.142   3.627   4.531 -0.3656 -0.3135 -0.1003
    5MOL   C299 3187   7.237   3.575   4.624  0.6340  0.6220 -0.7482
    5MOL   C300 3188   7.182   3.487   4.729 -0.2142  0.3404  0.2864
    5MOL   C301 3189   7.298   3.442   4.824 -0.2384 -0.7123 -0.1507
    5MOL   C302 3190   7.262   3.346   4.933  0.1784 -0.2230  0.1981
    5MOL   C303 3191   7.380   3.293   5.010  0.0653  0.9645  0.1891
    5MOL   C304 3192   7.340   3.203   5.130 -0.5238 -0.0715 -0.3913
    5MOL   N305 3193   7.443   3.179   5.230  0.4529  0.3893 -0.0486
    5MOL   C306 3194   6.875   3.584   4.285 -0.4700 -0.0756 -0.1376
    5MOL   C307 3195   6.778   3.660   4.214 -0.3597  0.1537  0.2590
    5MOL   H308 3196   6.894   3.963   4.285  1.6490 -0.3383 -0.2114
    5MOL   H309 3197   7.070   3.830   4.402  0.2762 -1.3953  1.9421
    5MOL   H310 3198   7.112   3.721   4.549 -0.1920 -0.2685 -0.0428
    5MOL   H311 3199   7.314   3.513   4.579  0.1953 -2.1848  2.1719
    5MOL   H312 3200   7.292   3.658   4.670  0.7115  0.7077 -0.9919
    5MOL   H313 3201   7.138   3.392   4.699  2.5365 -1.0936  0.6585
    5MOL   H314 3202   7.099   3.526   4.787 -1.2849  0.0461 -1.0234
    5MOL   H315 3203   7.375   3.398   4.761 -0.2685 -0.8705 -0.0759
    5MOL   H316 3204   7.363   3.520   4.865  1.1736 -2.1741  0.4236
    5MOL   H317 3205   7.200   3.264   4.896 -0.4713 -0.2284  1.2694
    5MOL   H318 3206   7.196   3.400   5.001 -1.6178 -2.0316 -0.0648
    5MOL   H319 3207   7.430   3.381   5.051  0.8291  0.4157  0.4510
    5MOL   H320 3208   7.459   3.238   4.957  0.9374  1.5292  0.8857
    5MOL   H321 3209   7.248   3.241   5.174  0.2523  0.0034  1.1923
    5MOL   H322 3210   7.308   3.104   5.097  1.2479 -0.8656  0.2126
    5MOL   H323 3211   7.437   3.224   5.320 -2.1577 -1.6012  0.8630
    5MOL   H324 3212   6.880   3.477   4.270 -0.5819 -0.0171 -0.5999
    5MOL   H325 3213   6.696   3.618   4.157  0.2321 -0.3127 -0.2450
    5MOL   C326 3214   7.552   3.103   5.218  0.2992 -0.5704 -0.5052
    5MOL   O327 3215   7.588   3.069   5.109 -0.4478 -0.1181  0.0180
    5MOL   C328 3216   7.630   3.082   5.346  0.2786 -0.4547  0.8538
    5MOL   C329 3217   7.773   3.095   5.337  0.6705 -0.5506  1.0189
    5MOL   C330 3218   7.851   3.063   5.453  0.2891 -0.4600 -0.1448
    5MOL   C331 3219   7.794   3.026   5.579  0.0101 -0.5450  0.5909
    5MOL   C332 3220   7.876   2.998   5.703 -0.0479 -0.4237  0.4176
    5MOL   O333 3221   7.824   3.027   5.805 -0.6756 -0.6608 -0.3297
    5MOL   N334 3222   0.115   2.959   5.685 -0.5720  0.5325 -0.0646
    5MOL   C335 3223   0.221   2.961   5.785 -0.8260 -0.7353  0.2925
    5MOL   C336 3224   0.361   2.976   5.725  0.1843  0.9041 -0.0716
    5MOL   C337 3225   0.452   3.037   5.827 -0.0847 -0.0512 -0.0352
    5MOL   C338 3226   0.597   3.045   5.770 -0.7468  0.1664 -0.7963
    5MOL   C339 3227   0.696   3.068   5.886  0.2023  0.0425  0.0859
    5MOL   C340 3228   0.842   3.069   5.846 -0.5662  0.4034  0.1352
    5MOL   N341 3229   0.934   3.109   5.951  0.2408 -0.4344 -0.5507
    5MOL   C342 3230   7.652   3.029   5.584 -0.6264 -0.3002 -0.5824
    5MOL   C343 3231   7.566   3.047   5.469 -0.5446 -0.4502  0.2085
    5MOL   H344 3232   7.821   3.120   5.243 -1.2499  0.7691  0.3598
    5MOL   H345 3233   0.072   3.061   5.442  0.1393 -2.6287 -1.3784
    5MOL   H346 3234   0.136   2.923   5.593 -0.2421  0.1454  0.1616
    5MOL   H347 3235   0.196   3.046   5.849  3.3056 -0.1942  1.3191
    5MOL   H348 3236   0.215   2.869   5.844  0.6800 -0.5788  0.7129
    5MOL   H349 3237   0.357   3.041   5.638 -3.4828  2.1063  0.8893
    5MOL   H350 3238   0.411   2.885   5.692 -0.2380  0.3795  0.7255
    5MOL   H351 3239   0.413   3.134   5.857 -0.2804  0.1266 -0.8760
    5MOL   H352 3240   0.443   2.974   5.916  0.8393  1.8701  1.4350
    5MOL   H353 3241   0.604   3.127   5.699  1.2413  0.4044 -0.3753
    5MOL   H354 3242   0.616   2.953   5.715  0.8794 -1.3507  2.1231
    5MOL   H355 3243   0.687   2.988   5.960  1.6872 -0.9493 -0.7661
    5MOL   H356 3244   0.673   3.165   5.929  0.4928 -0.0802  0.5262
    5MOL   H357 3245   0.867   2.966   5.820  0.4102  0.6285  0.1577
    5MOL   H358 3246   0.856   3.125   5.753  1.0943 -0.5816 -0.2266
    5MOL   H359 3247   1.001   3.039   5.979  0.2787 -1.3861 -2.8522
    5MOL   H360 3248   7.613   3.025   5.685  0.7426  2.0659  0.0792
    5MOL   H361 3249   7.459   3.056   5.486 -0.3132  0.0774  1.4714
    5MOL   C362 3250   0.949   3.230   5.996  0.5007  0.9078  0.0877
    5MOL   O363 3251   0.879   3.326   5.958 -0.4435  0.6226  0.0595
    5MOL   C364 3252   1.048   3.262   6.098  0.6200  0.6276 -0.4114
    5MOL   C365 3253   1.141   3.164   6.143  1.0990  0.1333  0.6776
    5MOL   C366 3254   1.232   3.196   6.248  0.3334 -0.2143 -0.3218
    5MOL   C367 3255   1.247   3.332   6.300  0.0805  0.3288 -0.0128
    5MOL   C368 3256   1.351   3.365   6.404  0.2725  0.2561 -0.7269
    5MOL   O369 3257   1.467   3.345   6.381  0.6458 -0.7730 -0.0075
    5MOL   N370 3258   1.308   3.433   6.517 -0.2357  0.3388 -0.2793
    5MOL   C371 3259   1.404   3.478   6.618 -0.2732  0.0794 -0.7287
    5MOL   C372 3260   1.333   3.533   6.738  0.2584  0.1463 -0.3929
    5MOL   C373 3261   1.412   3.607   6.853 -0.3423  0.1198 -0.4742
    5MOL   C374 3262   1.527   3.703   6.807 -0.3687 -0.7464  0.1079
    5MOL   C375 3263   1.459   3.825   6.738  0.1824  0.0945 -0.1535
    5MOL   C376 3264   1.514   3.968   6.765  0.0029  0.9060  0.1395
    5MOL   N377 3265   1.532   4.005   6.905 -0.2897 -0.5303 -0.0103
    5MOL   C378 3266   1.164   3.427   6.243  0.5716 -0.3851 -0.2628
    5MOL   C379 3267   1.063   3.396   6.147  0.0604  0.8199  0.0398
    5MOL   H380 3268   1.131   3.061   6.114 -2.0415  0.9604 -1.4301
    5MOL   H381 3269   1.290   3.117   6.293  0.0719  0.2868  0.9092
    5MOL   H382 3270   1.209   3.450   6.531 -0.1287  1.4831 -0.8782
    5MOL   H383 3271   1.455   3.387   6.650 -1.3003  0.2919  1.5816
    5MOL   H384 3272   1.474   3.550   6.577 -0.0659 -0.1428 -0.7704
    5MOL   H385 3273   1.275   3.452   6.782  1.4479 -0.9782 -0.8717
    5MOL   H386 3274   1.258   3.609   6.717 -1.4637 -1.1362  0.9711
    5MOL   H387 3275   1.339   3.665   6.909  0.7193 -0.5035  1.6077
    5MOL   H388 3276   1.454   3.540   6.929  1.3806 -0.2267 -1.6929
    5MOL   H389 3277   1.600   3.654   6.743  0.5209  1.2283 -0.4298
    5MOL   H390 3278   1.584   3.748   6.889 -0.2221 -1.9256  0.6580
    5MOL   H391 3279   1.353   3.836   6.762  0.6275  1.1264  1.3950
    5MOL   H392 3280   1.469   3.816   6.629 -1.0421 -0.6444 -0.2174
    5MOL   H393 3281   1.613   3.976   6.720 -0.0186  3.0733  0.4389
    5MOL   H394 3282   1.456   4.048   6.719 -0.0823  1.9565  2.0185
    5MOL   H395 3283   1.614   4.061   6.927 -1.2440  0.6663  0.5715
    5MOL   H396 3284   1.168   3.528   6.281 -2.2724 -0.2223 -0.2612
    5MOL   H397 3285   0.996   3.470   6.105 -1.8023  0.5891  2.5326
    5MOL   C398 3286   1.434   4.011   6.994  0.8104  0.5594  0.2605
    5MOL   O399 3287   1.320   3.971   6.979 -0.5289 -0.0742 -0.1953
    5MOL   C400 3288   1.472   4.073   7.128  0.0448  0.0195 -0.9557
    5MOL   C401 3289   1.407   4.179   7.197 -0.3832 -0.5734  0.7181
    5MOL   C402 3290   1.460   4.229   7.313 -0.3341  0.3236 -0.1149
    5MOL   C403 3291   1.567   4.169   7.377  0.4256 -0.0781  0.1006
    5MOL   C404 3292   1.623   4.225   7.507 -0.7084 -0.4874 -0.3872
    5MOL   O405 3293   1.747   4.218   7.530  0.0766  0.0871  0.5476
    5MOL   N406 3294   1.533   4.283   7.590  0.0520 -0.2514 -0.0492
    5MOL   C407 3295   1.567   4.321   7.727  1.5209 -0.5631 -0.8225
    5MOL   C408 3296   1.571   4.476   7.745 -0.2494 -0.1012 -0.2778
    5MOL   C409 3297   1.694   4.535   7.673 -0.3714 -0.0955  0.2096
    5MOL   C410 3298   1.729   4.676   7.725  0.6047 -0.2083  0.1011
    5MOL   C411 3299   1.879   4.719   7.693 -0.5831  0.5395  0.4563
    5MOL   C412 3300   1.896   4.772   7.555 -0.5353  0.3798  0.3405
    5MOL   N413 3301   1.881   4.668   7.456 -0.3734  0.1489 -0.5986
    5MOL   C414 3302   1.640   4.073   7.310  0.5308 -1.2825 -0.6745
    5MOL   C415 3303   1.592   4.024   7.190  0.1778  0.2673 -0.3704
    5MOL   H416 3304   1.316   4.209   7.149  1.7889  0.4730 -2.9119
    5MOL   H417 3305   1.405   4.308   7.360 -0.9479  1.9482 -3.4014
    5MOL   H418 3306   1.436   4.284   7.562  0.5058  0.1635 -1.6582
    5MOL   H419 3307   1.497   4.286   7.802 -0.5326  4.4337 -0.2021
    5MOL   H420 3308   1.666   4.285   7.752  1.6401  0.9976  1.0519
    5MOL   H421 3309   1.574   4.494   7.852  0.9688  1.4439 -0.5340
    5MOL   H422 3310   1.475   4.521   7.717 -0.8899  0.3655  2.5798
    5MOL   H423 3311   1.777   4.477   7.715  1.2593  2.7240  1.0114
    5MOL   H424 3312   1.681   4.531   7.565  0.4100 -2.5397  0.1727
    5MOL   H425 3313   1.715   4.685   7.833 -0.9207 -1.1719 -0.0006
    5MOL   H426 3314   1.658   4.746   7.681  0.7668 -0.3252 -0.3466
    5MOL   H427 3315   1.961   4.650   7.715 -1.2286 -0.3570  0.0850
    5MOL   H428 3316   1.896   4.810   7.749 -0.9632  0.2176  1.0931
    5MOL   H429 3317   1.816   4.844   7.538  0.1044  0.7523 -1.1740
    5MOL   H430 3318   1.994   4.820   7.546  1.1775 -3.1983 -0.7993
    5MOL   H431 3319   1.906   4.572   7.478 -0.9850  0.1369  0.0384
    5MOL   H432 3320   1.719   4.027   7.367  1.5556  3.1523  1.7095
    5MOL   H433 3321   1.658   3.951   7.145 -1.7525 -1.3051 -0.7254
    5MOL   C434 3322   1.877   4.697   7.327 -0.6964  0.4230 -0.1495
    5MOL   O435 3323   1.873   4.809   7.283 -0.5041  0.5855 -0.2097
    5MOL   C436 3324   1.865   4.587   7.228 -0.3765  0.0245 -0.0941
    5MOL   C437 3325   1.840   4.452   7.265 -0.4845  0.9346  0.0124
    5MOL   C438 3326   1.819   4.346   7.172 -0.5850  0.0551 -0.1829
    5MOL   C439 3327   1.835   4.377   7.040  0.3903 -0.1597  0.4515
    5MOL   C440 3328   1.836   4.265   6.939  0.2841  0.2480  0.8887
    5MOL   O441 3329   1.772   4.162   6.965  0.4216  0.5955  0.3308
    5MOL   N442 3330   1.902   4.288   6.826 -0.6522 -0.1116  0.5110
    5MOL   C443 3331   1.916   4.183   6.721  0.4602  0.1000 -0.8964
    5MOL   C444 3332   1.996   4.237   6.598 -0.3381 -0.3414 -0.4252
    5MOL   C445 3333   2.009   4.130   6.489 -0.7040 -0.2692  0.4135
    5MOL   C446 3334   2.079   4.173   6.359  0.6760  0.2780 -0.0865
    5MOL   C447 3335   2.123   4.050   6.272  0.1724  0.9534  0.3464
    5MOL   C448 3336   2.032   4.010   6.158 -0.0727 -0.0072  0.2767
    5MOL   N449 3337   2.058   3.869   6.128  0.2551 -0.2739  0.5839
    5MOL   C450 3338   1.859   4.513   6.996 -0.0359 -0.0059  0.4561
    5MOL   C451 3339   1.869   4.621   7.087  0.3277 -0.6582 -0.5725
    5MOL   H452 3340   1.830   4.421   7.368  2.9393  0.9127  0.3894
    5MOL   H453 3341   1.813   4.241   7.200  1.3592 -1.3697 -4.7184
    5MOL   H454 3342   1.962   4.368   6.817  2.0118 -1.7809  2.6827
    5MOL   H455 3343   1.951   4.091   6.768  0.3136  0.0361 -0.9091
    5MOL   H456 3344   1.813   4.165   6.689 -0.7901  3.0849  1.1676
    5MOL   H457 3345   2.095   4.268   6.631 -0.2728 -0.3848 -0.5767
    5MOL   H458 3346   1.951   4.325   6.552 -0.0253 -0.1152 -0.3048
    5MOL   H459 3347   2.049   4.034   6.522 -0.4685 -0.4382 -0.3667
    5MOL   H460 3348   1.903   4.113   6.472 -0.7603  0.3035  0.1924
    5MOL   H461 3349   2.170   4.225   6.387  0.5959  0.8667 -0.9031
    5MOL   H462 3350   2.026   4.251   6.304 -0.2525 -1.9630 -2.5308
    5MOL   H463 3351   2.144   3.964   6.335  0.7433  2.5988  2.4553
    5MOL   H464 3352   2.216   4.084   6.226 -0.8064 -0.2956 -2.6520
    5MOL   H465 3353   1.927   4.009   6.188 -0.6995  0.2225 -1.8452
    5MOL   H466 3354   2.022   4.085   6.081  4.2040  2.6665  2.1531
    5MOL   H467 3355   1.990   3.803   6.161  0.5782 -3.2003 -4.1635
    5MOL   H468 3356   1.859   4.526   6.889  0.7763  1.9979  0.6816
    5MOL   H469 3357   1.891   4.719   7.047 -0.8191 -0.0224  0.3246
    5MOL   C470 3358   2.167   3.832   6.058 -0.0728  0.0094 -0.4465
    5MOL   O471 3359   2.256   3.908   6.017 -0.0112 -0.5317  0.0776
    5MOL   C472 3360   2.172   3.684   6.026  0.5900  0.2415 -0.2409
    5MOL   C473 3361   2.050   3.607   6.022 -0.1549 -0.4288  0.0117
    5MOL   C474 3362   2.057   3.467   5.994 -0.2686  0.4545 -0.1708
    5MOL   C475 3363   2.180   3.400   5.969  0.0903 -0.4633 -0.2497
    5MOL   C476 3364   2.180   3.255   5.927 -0.3660 -0.3547 -0.0842
    5MOL   O477 3365   2.262   3.207   5.854 -0.8005  0.1866  0.2012
    5MOL   N478 3366   2.093   3.181   5.998  0.5267  0.3824  0.0246
    5MOL   C479 3367   2.095   3.038   6.006  0.1528  0.3196  0.3511
    5MOL   C480 3368   2.161   2.983   6.134 -0.4593  0.3836  0.1642
    5MOL   C481 3369   2.171   2.825   6.138  0.8644  0.5515  0.0769
    5MOL   C482 3370   2.219   2.770   6.271  0.4184 -0.6687  0.4161
    5MOL   C483 3371   2.133   2.819   6.402 -0.8224 -0.0987 -0.3422
    5MOL   C484 3372   1.987   2.788   6.400 -0.1103 -0.6823 -0.1441
    5MOL   N485 3373   1.907   2.891   6.332 -0.2214  0.1034  0.4104
    5MOL   C486 3374   2.293   3.478   5.972  0.1687 -0.7818 -0.3527
    5MOL   C487 3375   2.293   3.615   5.991 -0.1160  0.1600 -0.1308
    5MOL   H488 3376   1.956   3.657   6.039  0.8562  1.9305 -1.1245
    5MOL   H489 3377   1.966   3.408   5.993  0.3756 -0.5822  0.9698
    5MOL   H490 3378   2.028   3.233   6.055 -0.7789  0.1734 -1.2525
    5MOL   H491 3379   1.994   2.998   6.012  0.4161 -0.1433  2.2203
    5MOL   H492 3380   2.127   2.996   5.911 -0.7998 -0.8355  0.5246
    5MOL   H493 3381   2.110   3.033   6.216 -0.2855  3.2515 -1.3967
    5MOL   H494 3382   2.262   3.020   6.151 -0.9278  0.6431  2.4801
    5MOL   H495 3383   2.074   2.782   6.109  0.4102  1.6501 -0.0674
    5MOL   H496 3384   2.239   2.790   6.060  0.7725 -1.6520  0.9351
    5MOL   H497 3385   2.326   2.790   6.273  0.8170 -2.6803  0.8839
    5MOL   H498 3386   2.217   2.661   6.268 -1.6220 -0.6461 -0.9745
    5MOL   H499 3387   2.143   2.925   6.422  2.9141 -0.7388  1.5261
    5MOL   H500 3388   2.175   2.767   6.488 -0.8836 -0.9618 -0.8202
    5MOL   H501 3389   1.960   2.684   6.382  1.0618 -0.9340 -0.4510
    5MOL   H502 3390   1.948   2.803   6.501 -0.8614  0.5093 -0.6049
    5MOL   H503 3391   1.947   2.983   6.342 -0.3958  0.1426  0.7607
    5MOL   H504 3392   2.392   3.437   5.961 -0.5401 -1.6958 -3.9151
    5MOL   H505 3393   2.389   3.664   5.989  1.1187 -2.2370 -1.9120
    5MOL   C506 3394   1.802   2.869   6.252 -0.4269  1.0975  0.5968
    5MOL   O507 3395   1.750   2.760   6.221 -0.1991  0.2418  0.1941
    5MOL   C508 3396   1.739   2.992   6.196 -0.4234  0.0941  0.0556
    5MOL   C509 3397   1.788   3.128   6.214  0.7983 -0.9416 -0.5091
    5MOL   C510 3398   1.723   3.234   6.148 -0.9029  0.4080 -0.5114
    5MOL   C511 3399   1.599   3.219   6.083 -0.0192 -0.3305  0.0885
    5MOL   C512 3400   1.541   3.350   6.027 -0.1809  0.3734 -0.0687
    5MOL   O513 3401   1.613   3.459   6.046  0.3992 -0.0382  0.3658
    5MOL   N514 3402   1.422   3.337   5.969 -0.2147  0.1790  0.3847
    5MOL   C515 3403   1.353   3.450   5.894 -0.1749 -0.1052 -0.2371
    5MOL   C516 3404   1.310   3.402   5.761  0.3588  0.0239 -0.8648
    5MOL   C517 3405   1.207   3.502   5.699 -0.1191 -0.5529 -0.0524
    5MOL   C518 3406   1.070   3.500   5.756  0.7563 -0.0944  0.0233
    5MOL   C519 3407   0.985   3.604   5.691  0.1505  0.1550 -0.1487
    5MOL   C520 3408   0.831   3.590   5.730 -0.3843  0.4435  0.1831
    5MOL   N521 3409   0.816   3.602   5.866  0.3775  0.2999  0.0726
    5MOL   C522 3410   1.537   3.091   6.083  0.0313 -0.0421 -0.2561
    5MOL   C523 3411   1.615   2.978   6.128  0.1355 -0.7491 -0.6658
    5MOL   H524 3412   1.879   3.138   6.270  0.1443 -2.8948  0.9755
    5MOL   H525 3413   1.773   3.330   6.156 -1.4303  0.5498  1.1535
    5MOL   H526 3414   1.391   3.241   5.961  1.2012 -0.2255 -0.4155
    5MOL   H527 3415   1.275   3.493   5.956 -1.6302  0.3202 -2.3103
    5MOL   H528 3416   1.430   3.526   5.879  0.8938 -1.0195  0.4796
    5MOL   H529 3417   1.264   3.304   5.773 -3.1627  1.6301 -0.4583
    5MOL   H530 3418   1.387   3.391   5.685 -0.4194 -0.8739 -1.5393
    5MOL   H531 3419   1.250   3.601   5.701 -2.4161  0.4886 -0.2063
    5MOL   H532 3420   1.199   3.474   5.594 -0.5742 -2.6907  0.5198
    5MOL   H533 3421   1.072   3.527   5.862  0.2431  0.7524 -0.1833
    5MOL   H534 3422   1.034   3.397   5.755  1.4303 -0.3211 -0.5969
    5MOL   H535 3423   0.984   3.602   5.582  1.7193  2.8256 -0.2529
    5MOL   H536 3424   1.029   3.700   5.717  0.9169  0.3970 -2.2597
    5MOL   H537 3425   0.776   3.666   5.674 -1.2907  0.3218  0.9073
    5MOL   H538 3426   0.791   3.492   5.709  0.9382 -0.2734  0.9386
    5MOL   H539 3427   0.820   3.517   5.921 -0.0941 -1.4632 -2.5062
    5MOL   H540 3428   1.437   3.076   6.045 -0.1341 -1.5342  0.6898
    5MOL   H541 3429   1.575   2.880   6.110 -2.6146  0.0276  0.7680
    5MOL   C542 3430   0.812   3.714   5.941  0.0102  0.0224  0.2274
    5MOL   O543 3431   0.805   3.827   5.892 -0.3188  0.0441 -0.0372
    5MOL   C544 3432   0.832   3.691   6.088 -0.7208  0.2885  0.4434
    5MOL   C545 3433   0.773   3.582   6.152 -0.1149 -0.4784 -0.2034
    5MOL   C546 3434   0.809   3.543   6.281  0.0498 -0.2772  0.1116
    5MOL   C547 3435   0.892   3.631   6.354 -0.6438 -0.3581  1.0066
    5MOL   C548 3436   0.938   3.583   6.490 -0.5518 -0.0075  0.2181
    5MOL   O549 3437   1.058   3.600   6.529  0.1771  0.1193 -0.1865
    5MOL   N550 3438   0.851   3.519   6.569  0.0762  0.1104 -0.0274
    5MOL   C551 3439   0.885   3.460   6.698 -0.3537 -0.1724  0.3752
    5MOL   C552 3440   0.849   3.560   6.804 -0.1731  0.6854 -0.1872
    5MOL   C553 3441   0.905   3.515   6.943  0.1898 -0.0921  0.0936
    5MOL   C554 3442   0.823   3.399   7.010 -0.0420  0.1229  0.6820
    5MOL   C555 3443   0.853   3.379   7.157 -0.0308 -0.4291 -0.5613
    5MOL   C556 3444   0.749   3.317   7.242 -0.0644  0.3172  0.4099
    5MOL   N557 3445   0.619   3.375   7.228  0.3927 -0.0705  0.5136
    5MOL   C558 3446   0.939   3.754   6.299 -0.0441  0.0912  0.1763
    5MOL   C559 3447   0.908   3.783   6.166 -0.4705 -0.3755 -0.0459
    5MOL   H560 3448   0.698   3.532   6.092  1.0537 -3.1767  0.5116
    5MOL   H561 3449   0.779   3.450   6.326  0.9661 -0.9119 -0.5931
    5MOL   H562 3450   0.756   3.504   6.538 -0.0628 -0.3033  0.5890
    5MOL   H563 3451   0.833   3.365   6.714 -0.8000 -0.4210 -2.3298
    5MOL   H564 3452   0.992   3.442   6.704 -0.2490 -0.5884 -2.3005
    5MOL   H565 3453   0.744   3.584   6.820 -0.2361 -0.4107  1.1995
    5MOL   H566 3454   0.888   3.657   6.773  0.0783  1.2840  1.9349
    5MOL   H567 3455   1.012   3.497   6.944  0.4105  1.2169  0.4067
    5MOL   H568 3456   0.895   3.593   7.018  0.6186 -0.8940  1.0005
    5MOL   H569 3457   0.845   3.307   6.955 -0.4144  0.5868 -0.2465
    5MOL   H570 3458   0.716   3.413   6.997 -0.3359 -2.1176  0.4828
    5MOL   H571 3459   0.877   3.475   7.201  0.0829  0.6453 -2.8801
    5MOL   H572 3460   0.944   3.319   7.158 -0.4548 -1.2569 -3.7899
    5MOL   H573 3461   0.753   3.209   7.225 -0.1518  0.4076 -0.1994
    5MOL   H574 3462   0.783   3.323   7.346 -1.0693 -0.7469  0.8092
    5MOL   H575 3463   0.625   3.473   7.250  2.5525  0.2538 -1.4122
    5MOL   H576 3464   1.009   3.811   6.358  1.3353 -1.1082 -0.2713
    5MOL   H577 3465   0.936   3.875   6.117 -3.1391  0.7054  0.3912
    5MOL   C578 3466   0.497   3.318   7.227 -0.4328  0.2205 -0.3032
    5MOL   O579 3467   0.477   3.198   7.223 -0.3920  0.4659 -0.0487
    5MOL   C580 3468   0.379   3.413   7.217  0.0422 -0.3154  0.2275
    5MOL   C581 3469   0.253   3.370   7.265  0.0579 -0.9150 -0.2580
    5MOL   C582 3470   0.149   3.457   7.283  0.0870  0.1803  0.0014
    5MOL   C583 3471   0.158   3.593   7.244  0.0815  0.8001 -0.0663
    5MOL   C584 3472   0.042   3.691   7.263 -0.1354  0.0967 -0.4332
    5MOL   O585 3473   7.811   3.651   7.278  0.1958 -0.0455 -0.0471
    5MOL   N586 3474   0.068   3.820   7.254  0.5726  0.8038  0.9227
    5MOL   C587 3475   7.862   3.931   7.248  0.0728  0.4944  0.0662
    5MOL   C588 3476   0.049   4.067   7.246 -0.1160 -0.4388  0.1121
    5MOL   C589 3477   0.129   4.091   7.119 -0.5144 -0.4904  0.8212
    5MOL   C590 3478   0.202   4.225   7.129 -0.6452 -0.3773  0.8185
    5MOL   C591 3479   0.130   4.355   7.073  0.0257 -0.3497 -0.4004
    5MOL   C592 3480   0.175   4.480   7.150 -0.6034 -0.6570 -0.7675
    5MOL   N593 3481   0.140   4.603   7.082 -0.5217  0.0714 -0.0429
    5MOL   C594 3482   0.280   3.638   7.187  0.2939 -0.2373  0.0028
    5MOL   C595 3483   0.392   3.548   7.172  0.6709  0.3659 -0.3290
    5MOL   H596 3484   0.252   3.264   7.284  3.1868 -1.0655 -0.6556
    5MOL   H597 3485   0.058   3.425   7.333  0.4216 -0.5193  0.1636
    5MOL   H598 3486   0.165   3.845   7.239  0.5733 -0.9214 -2.4343
    5MOL   H599 3487   7.809   3.927   7.153  0.2898  0.5658 -0.0574
    5MOL   H600 3488   7.798   3.918   7.335  1.2727  1.2986  1.0962
    5MOL   H601 3489   0.126   4.063   7.323  0.3844  1.1164 -0.2938
    5MOL   H602 3490   7.865   4.148   7.267  0.4396 -0.0419  0.4198
    5MOL   H603 3491   0.209   4.018   7.122  0.1560  0.2323  0.6412
    5MOL   H604 3492   0.078   4.080   7.023  0.3151 -0.7430  0.4050
    5MOL   H605 3493   0.298   4.218   7.078 -1.1915  1.3893 -0.5045
    5MOL   H606 3494   0.226   4.245   7.233 -2.3491  1.7318  0.8270
    5MOL   H607 3495   0.023   4.341   7.083 -0.1641 -0.3852 -2.3182
    5MOL   H608 3496   0.152   4.365   6.966  2.8911  1.0061  0.2620
    5MOL   H609 3497   0.128   4.475   7.249  0.0178 -0.4847 -0.4613
    5MOL   H610 3498   0.282   4.485   7.169 -0.3390  0.2050 -2.4616
    5MOL   H611 3499   0.221   4.662   7.073 -0.1613 -0.6150 -1.3751
    5MOL   H612 3500   0.281   3.744   7.163 -0.4516  0.4287  2.7685
    5MOL   H613 3501   0.484   3.577   7.123  0.5404 -0.1466 -0.8715
    5MOL   C614 3502   0.024   4.641   7.028  0.5331  0.2140 -0.5118
    5MOL   O615 3503   7.812   4.567   7.017 -0.2286  0.4047 -0.1549
    5MOL   C616 3504   0.011   4.775   6.962 -0.4191  0.3399  0.7311
    5MOL   C617 3505   0.084   4.888   7.007 -0.4542 -0.2452  0.6404
    5MOL   C618 3506   0.075   5.009   6.937 -0.3017  0.4606  0.6356
    5MOL   C619 3507   7.879   5.017   6.817 -0.0222 -0.9819  0.9855
    5MOL   C620 3508   7.863   5.150   6.749  0.7250 -0.4560  0.3417
    5MOL   O621 3509   7.882   5.254   6.813  0.3546  0.3833  0.2391
    5MOL   N622 3510   7.828   5.147   6.624  0.3878 -0.0852  0.1790
    5MOL   C623 3511   7.800   5.266   6.549  0.0589  0.5622  0.3161
    5MOL   C624 3512   7.660   5.316   6.583 -0.3033  0.2263 -0.6452
    5MOL   C625 3513   7.627   5.445   6.503  0.4599 -0.0600 -0.2929
    5MOL   C626 3514   7.481   5.485   6.494 -0.2163  0.0830  0.3521
    5MOL   C627 3515   7.448   5.582   6.610 -0.5914 -0.0069 -0.1043
    5MOL   C628 3516   7.300   5.631   6.614  0.5914 -0.1882 -0.5205
    5MOL   N629 3517   7.261   5.694   6.490  0.5215 -0.7073 -0.2787
    5MOL   C630 3518   7.813   4.904   6.773  0.0568 -0.5130 -0.6053
    5MOL   C631 3519   7.825   4.784   6.845  0.6782 -0.2400  0.4944
    5MOL   H632 3520   0.136   4.883   7.102  1.7020  0.0132 -0.5011
    5MOL   H633 3521   0.125   5.096   6.977 -1.1228  1.1220  0.2571
    5MOL   H634 3522   7.826   5.058   6.575  0.5725 -1.0079  1.8084
    5MOL   H635 3523   7.873   5.338   6.584 -1.0889  1.5264  0.7543
    5MOL   H636 3524   7.811   5.236   6.445  0.6891 -2.1666  1.1096
    5MOL   H637 3525   7.661   5.338   6.690 -0.2694  0.6446 -0.7299
    5MOL   H638 3526   7.576   5.250   6.564  0.6908 -0.8363 -1.3718
    5MOL   H639 3527   7.690   5.530   6.529 -0.0212  0.7065 -1.5584
    5MOL   H640 3528   7.651   5.424   6.399  2.5040  0.6118  0.0218
    5MOL   H641 3529   7.408   5.404   6.501 -1.2271  1.1335  2.3857
    5MOL   H642 3530   7.469   5.537   6.399 -2.2502  2.3035  1.7674
    5MOL   H643 3531   7.501   5.677   6.601 -0.2962  0.1958  3.3616
    5MOL   H644 3532   7.483   5.535   6.701 -1.0938  0.4666  0.3333
    5MOL   H645 3533   7.239   5.543   6.634  0.0294  0.2703 -0.2272
    5MOL   H646 3534   7.286   5.693   6.702 -0.6115  0.1303 -0.9216
    5MOL   H647 3535   7.242   5.629   6.415 -0.0088 -0.4993 -0.3291
    5MOL   H648 3536   7.745   4.903   6.688 -0.9188  2.4714  0.1000
    5MOL   H649 3537   7.784   4.690   6.811 -0.7810  0.5440  0.0213
    5MOL   C650 3538   7.275   5.822   6.471  0.6393 -0.5798  0.3929
    5MOL   O651 3539   7.335   5.894   6.545  0.0229 -0.2833  0.6060
    5MOL   C652 3540   7.192   5.870   6.357 -0.0950 -0.3665  0.4682
    5MOL   C653 3541   7.087   5.963   6.387 -0.5647  0.6335  0.3761
    5MOL   C654 3542   7.007   6.017   6.288 -0.2582 -0.5413 -0.1231
    5MOL   C655 3543   7.021   5.972   6.154 -0.0715  0.2106  0.1778
    5MOL   C656 3544   6.929   6.011   6.041  0.0095  0.4590 -0.5331
    5MOL   O657 3545   6.954   5.989   5.924  0.4811  0.3307 -0.1750
    5MOL   N658 3546   6.814   6.067   6.087  0.0712  0.4772 -0.2737
    5MOL   C659 3547   6.720   6.134   6.010  0.0483  0.5643 -0.0603
    5MOL   C660 3548   6.583   6.125   6.077 -0.4677 -0.2892 -0.2166
    5MOL   C661 3549   6.467   6.193   6.009  0.0861  0.0913  0.1915
    5MOL   C662 3550   6.334   6.182   6.094  0.1003  0.1773  0.0158
    5MOL   C663 3551   6.218   6.244   6.017 -1.1356  0.7923 -0.5941
    5MOL   C664 3552   6.093   6.254   6.107  0.6108 -0.4959 -0.6501
    5MOL   N665 3553   6.057   6.124   6.152 -0.1866  0.6727  0.2913
    5MOL   C666 3554   7.139   5.891   6.124  0.1060 -0.1059  0.3583
    5MOL   C667 3555   7.222   5.835   6.225 -0.0830  0.6708 -0.5954
    5MOL   H668 3556   7.076   5.992   6.490  2.0752 -0.3182  0.9676
    5MOL   H669 3557   6.932   6.085   6.328  1.4054 -0.3788  2.9259
    5MOL   H670 3558   6.800   6.075   6.186 -1.6347  0.6656 -0.5192
    5MOL   H671 3559   6.765   6.232   5.993  0.5455  0.0787 -1.6702
    5MOL   H672 3560   6.710   6.085   5.913  0.0343 -1.2177  0.8273
    5MOL   H673 3561   6.590   6.150   6.183  1.8368  0.7017 -0.5657
    5MOL   H674 3562   6.555   6.020   6.067 -1.4951  0.1372 -2.0333
    5MOL   H675 3563   6.491   6.298   5.992  1.1839 -0.1297  0.3445
    5MOL   H676 3564   6.457   6.152   5.909 -0.0468  2.8215 -0.9487
    5MOL   H677 3565   6.337   6.244   6.183  1.4141  3.3078 -2.1511
    5MOL   H678 3566   6.315   6.075   6.109  0.9598  0.2164  1.5275
    5MOL   H679 3567   6.186   6.184   5.932 -1.2712  1.9914 -1.4044
    5MOL   H680 3568   6.256   6.339   5.980  1.0393  0.1629 -0.0261
    5MOL   H681 3569   6.103   6.318   6.194 -0.3236 -0.7856 -0.3171
    5MOL   H682 3570   6.012   6.298   6.049 -0.1139 -2.4338 -1.1626
    5MOL   H683 3571   6.071   6.048   6.087  0.4827  0.7693  0.3205
    5MOL   H684 3572   7.152   5.859   6.021  1.0263 -0.1935  0.5024
    5MOL   H685 3573   7.292   5.753   6.213 -0.1989  0.3549  0.7113
    5MOL   C686 3574   6.034   6.100   6.282  0.3296  0.3259  0.9448
    5MOL   O687 3575   6.028   6.183   6.374  0.0512 -0.1620  0.1707
    5MOL   C688 3576   6.029   5.953   6.322 -0.2033 -0.0252 -0.1704
    5MOL   C689 3577   6.064   5.929   6.458  0.4175  0.8857 -0.4420
    5MOL   C690 3578   6.060   5.798   6.511 -0.3668 -0.5511 -0.1181
    5MOL   C691 3579   6.011   5.690   6.429  0.1353 -0.2933  0.2076
    5MOL   C692 3580   5.999   5.557   6.489  0.3774 -0.3199  0.3132
    5MOL   O693 3581   6.091   5.518   6.563  0.8204 -0.0715  0.4330
    5MOL   N694 3582   5.895   5.484   6.446 -0.2784 -0.1916  0.0991
    5MOL   C695 3583   5.867   5.345   6.481 -0.1082 -0.4766  0.3911
    5MOL   C696 3584   5.743   5.341   6.571  0.2194  0.0776  0.5669
    5MOL   C697 3585   5.695   5.195   6.589  0.4983 -1.0523 -0.2228
    5MOL   C698 3586   5.643   5.132   6.462  0.5289  1.2674 -0.5999
    5MOL   C699 3587   5.552   5.003   6.480 -0.1419  0.1253  0.2151
    5MOL   C700 3588   5.629   4.875   6.524  0.1406 -0.5677  0.2241
    5MOL   N701 3589   5.552   4.757   6.499  0.2253 -0.4597 -0.3200
    5MOL   C702 3590   5.978   5.716   6.293 -0.0062  0.2609  0.5827
    5MOL   C703 3591   5.989   5.848   6.236 -0.4836 -0.5115 -0.2641
    5MOL   H704 3592   6.078   6.010   6.528  0.3975  0.0623  0.5311
    5MOL   H705 3593   6.086   5.782   6.614  1.8671 -1.4368 -0.7923
    5MOL   H706 3594   5.840   5.536   6.379  0.8022 -0.6453 -1.1600
    5MOL   H707 3595   5.839   5.286   6.394 -2.4228  1.2526 -0.0960
    5MOL   H708 3596   5.958   5.308   6.527  1.6874  1.1511 -1.7262
    5MOL   H709 3597   5.665   5.409   6.536 -0.4203 -2.1868 -2.5514
    5MOL   H710 3598   5.786   5.358   6.670  0.4693 -1.7102  0.7861
    5MOL   H711 3599   5.772   5.138   6.641 -0.7115 -1.7235  0.8579
    5MOL   H712 3600   5.621   5.186   6.668  1.9730 -0.6245  1.2262
    5MOL   H713 3601   5.735   5.111   6.407 -0.8776 -0.5889 -2.3220
    5MOL   H714 3602   5.586   5.202   6.402 -0.8647  0.3808 -0.3351
    5MOL   H715 3603   5.498   4.993   6.385  1.1710 -2.2508 -0.3323
    5MOL   H716 3604   5.472   5.037   6.545  0.7796 -0.1066  1.4778
    5MOL   H717 3605   5.719   4.858   6.465 -1.9653 -1.6793 -2.7984
    5MOL   H718 3606   5.657   4.887   6.628  1.0875  0.5739 -0.1502
    5MOL   H719 3607   5.526   4.753   6.401  0.3903 -0.4733 -0.3626
    5MOL   H720 3608   5.957   5.635   6.225  1.9340 -2.0440  2.6591
    5MOL   H721 3609   5.963   5.862   6.132 -0.4859  1.5216  0.0050
    5MOL   H722 3610   5.464   4.769   6.547  1.2190  0.1321  1.3844
    6MOL     C1 3611   1.551   1.883   4.865 -0.2195 -0.5430 -0.8232
    6MOL     O2 3612   1.500   1.862   4.755  0.3807 -0.1456 -0.2866
    6MOL     C3 3613   1.515   1.811   4.990 -0.0770 -0.0247  0.3090
    6MOL     C4 3614   1.595   1.830   5.102 -0.3567  0.1690  0.1870
    6MOL     C5 3615   1.566   1.751   5.215  0.6842 -0.0290  0.3650
    6MOL     C6 3616   1.444   1.680   5.230 -1.1450 -0.1054 -0.8971
    6MOL     C7 3617   1.414   1.601   5.362  0.3363 -0.2129  0.3848
    6MOL     O8 3618   1.302   1.556   5.383 -0.4283 -0.6372 -0.0566
    6MOL     N9 3619   1.514   1.596   5.453 -0.4117 -0.3768  0.7873
    6MOL    C10 3620   1.511   1.519   5.579  0.5015  0.1282  0.0879
    6MOL    C11 3621   1.586   1.387   5.568 -0.6182  0.4872  0.1014
    6MOL    C12 3622   1.618   1.305   5.695 -0.5816  0.0748 -0.3092
    6MOL    C13 3623   1.685   1.164   5.668 -0.2899 -0.4691  0.3769
    6MOL    C14 3624   1.646   1.049   5.772  0.0634 -0.2288 -0.2998
    6MOL    C15 3625   1.728   0.917   5.774 -0.1927  0.0393 -0.6300
    6MOL    N16 3626   1.717   0.853   5.650  0.1017  0.5950  0.4698
    6MOL    C17 3627   1.354   1.674   5.126  0.7289  0.5307  0.0151
    6MOL    C18 3628   1.395   1.740   4.998 -0.0582  0.5936 -0.5081
    6MOL    H19 3629   1.689   1.883   5.099  0.6567 -1.5848  0.3195
    6MOL    H20 3630   1.642   1.762   5.290  0.3345  1.0292  0.5758
    6MOL    H21 3631   1.601   1.640   5.428 -1.1901  1.7369  1.7118
    6MOL    H22 3632   1.558   1.590   5.648  2.0393 -0.5642 -0.2113
    6MOL    H23 3633   1.406   1.500   5.601  0.7942 -0.7264  0.7947
    6MOL    H24 3634   1.674   1.402   5.505  0.9564 -1.8947  1.6089
    6MOL    H25 3635   1.526   1.325   5.502 -0.0201  1.3157 -1.2406
    6MOL    H26 3636   1.686   1.355   5.764 -2.4370  0.1977  1.5120
    6MOL    H27 3637   1.526   1.293   5.753 -0.4010 -1.4469 -0.2961
    6MOL    H28 3638   1.792   1.172   5.648 -0.2066 -1.7004  0.3077
    6MOL    H29 3639   1.644   1.119   5.578 -0.8920  0.2306  0.2955
    6MOL    H30 3640   1.542   1.026   5.748  0.0751 -0.8255  0.2124
    6MOL    H31 3641   1.642   1.100   5.868  1.2017 -1.6237  0.4919
    6MOL    H32 3642   1.833   0.934   5.797 -0.1693 -0.7105 -0.1805
    6MOL    H33 3643   1.694   0.843   5.847  0.8088  0.3606  0.1648
    6MOL    H34 3644   1.791   0.866   5.583 -0.1970 -4.9727 -1.1334
    6MOL    H35 3645   1.267   1.613   5.143  1.4561  0.0462  2.1610
    6MOL    H36 3646   1.331   1.730   4.912  0.2758 -2.3218 -0.4810
    6MOL    H37 3647   1.636   1.951   4.868 -0.7458  0.0630  0.1463
    6MOL    C38 3648   1.614   0.794   5.589 -0.0656  0.1182 -0.2612
    6MOL    O39 3649   1.510   0.770   5.648  0.1605 -0.2134  0.2867
    6MOL    C40 3650   1.642   0.752   5.448 -0.8020  0.0103 -0.2331
    6MOL    C41 3651   1.551   0.671   5.378  0.1238  0.8543 -0.2371
    6MOL    C42 3652   1.561   0.642   5.245 -0.1143  0.2707  0.0354
    6MOL    C43 3653   1.667   0.697   5.168 -0.2685 -0.2161  0.3856
    6MOL    C44 3654   1.681   0.682   5.021 -0.2173  0.5159 -0.5545
    6MOL    O45 3655   1.786   0.720   4.964 -0.2831  0.0725  0.0546
    6MOL    N46 3656   1.581   0.634   4.943  0.3205 -0.0734  0.1858
    6MOL    C47 3657   1.578   0.603   4.804 -0.1986  0.3240  0.3881
    6MOL    C48 3658   1.462   0.509   4.773 -0.3254 -0.1630 -0.0805
    6MOL    C49 3659   1.321   0.575   4.785  0.4534  0.3126  0.9347
    6MOL    C50 3660   1.194   0.483   4.773 -0.1011 -0.0294  0.4183
    6MOL    C51 3661   1.190   0.420   4.631 -0.0241  0.1387  0.1164
    6MOL    C52 3662   1.067   0.333   4.607  0.3660  0.4990  0.9667
    6MOL    N53 3663   1.082   0.209   4.682 -0.6250 -0.2868  0.2079
    6MOL    C54 3664   1.762   0.779   5.236 -0.0504  0.1897  0.9080
    6MOL    C55 3665   1.751   0.802   5.376  0.9953  0.1322 -0.9109
    6MOL    H56 3666   1.476   0.626   5.441  0.4403  1.2206  0.4127
    6MOL    H57 3667   1.483   0.580   5.203 -1.1049  1.3180  0.3003
    6MOL    H58 3668   1.502   0.604   4.999  1.6531 -1.5822  1.3315
    6MOL    H59 3669   1.579   0.695   4.746 -3.5390 -1.0553 -2.0262
    6MOL    H60 3670   1.670   0.547   4.783 -2.1238 -2.9564  0.3891
    6MOL    H61 3671   1.478   0.417   4.830  1.9831  0.6215  0.5447
    6MOL    H62 3672   1.474   0.485   4.667  2.4558  0.0554  0.1586
    6MOL    H63 3673   1.321   0.640   4.872 -2.0181  2.1978 -0.4201
    6MOL    H64 3674   1.319   0.652   4.708  1.5355  0.9734  1.5618
    6MOL    H65 3675   1.105   0.545   4.783 -0.5551 -0.7987  1.2172
    6MOL    H66 3676   1.188   0.406   4.850 -2.7650 -0.4783 -0.2052
    6MOL    H67 3677   1.280   0.360   4.615  1.0111  1.5592  0.4725
    6MOL    H68 3678   1.194   0.494   4.551  2.0774 -2.9221 -2.7281
    6MOL    H69 3679   0.977   0.383   4.644 -0.3875  0.2855 -0.5159
    6MOL    H70 3680   1.028   0.320   4.506 -2.2294  3.1860  1.5478
    6MOL    H71 3681   1.076   0.227   4.781 -0.9329 -3.0058  0.7170
    6MOL    H72 3682   1.838   0.823   5.174 -1.9308 -0.6523 -2.0738
    6MOL    H73 3683   1.819   0.872   5.424  0.5184  0.6830 -1.0322
    6MOL    C74 3684   1.055   0.085   4.636 -0.3772  0.4178 -0.1290
    6MOL    O75 3685   1.020   0.059   4.523  0.0661  0.1812  0.5984
    6MOL    C76 3686   1.067   7.861   4.738 -0.3926  0.3124 -0.0835
    6MOL    C77 3687   1.157   7.882   4.844 -0.0549 -0.0590  0.6254
    6MOL    C78 3688   1.178   7.769   4.924 -0.0357  0.7339  0.4020
    6MOL    C79 3689   1.121   7.648   4.911 -0.6344  0.5368 -0.6969
    6MOL    C80 3690   1.145   7.538   5.013 -0.4226 -0.2806  0.3207
    6MOL    O81 3691   1.199   7.430   4.979  0.5087 -0.9386 -0.2014
    6MOL    N82 3692   1.092   7.565   5.135 -0.1006 -0.3474  0.9971
    6MOL    C83 3693   1.111   7.493   5.263 -1.0199  0.0272  0.1234
    6MOL    C84 3694   1.198   7.569   5.365 -0.0157  0.1988  0.0511
    6MOL    C85 3695   1.254   7.494   5.493  0.4167 -0.3236  1.1021
    6MOL    C86 3696   1.328   7.579   5.592 -0.2422  0.2604 -0.0565
    6MOL    C87 3697   1.460   7.625   5.537 -0.3735 -0.1228 -0.1491
    6MOL    C88 3698   1.533   7.710   5.638 -0.0946  0.1694 -0.4581
    6MOL    N89 3699   1.655   7.756   5.584  0.4185  0.5369  0.0821
    6MOL    C90 3700   1.027   7.631   4.811  0.8568 -0.1675  0.2285
    6MOL    C91 3701   1.001   7.739   4.722 -0.0057  0.1123 -0.4695
    6MOL    H92 3702   1.218   0.085   4.849 -1.1076  0.6729  0.7247
    6MOL    H93 3703   1.244   7.786   5.008  1.9583 -1.6023 -0.6444
    6MOL    H94 3704   1.033   7.647   5.137  1.5192  0.8537  0.5477
    6MOL    H95 3705   1.011   7.475   5.304  0.7339 -1.1325  4.0953
    6MOL    H96 3706   1.167   7.402   5.244  0.9754  1.2967 -0.2575
    6MOL    H97 3707   1.145   7.660   5.391  0.8429  0.8819 -0.5795
    6MOL    H98 3708   1.283   7.609   5.310 -0.6252  1.7577  0.2314
    6MOL    H99 3709   1.168   7.450   5.543 -1.8131  1.5186 -0.9863
    6MOL   H100 3710   1.308   7.403   5.465  1.3546  0.6572 -0.3729
    6MOL   H101 3711   1.346   7.528   5.687  0.5233  1.4828  0.4779
    6MOL   H102 3712   1.260   7.654   5.631  1.4432  1.4384  0.7011
    6MOL   H103 3713   1.443   7.687   5.449 -2.4417 -0.3881  0.0467
    6MOL   H104 3714   1.514   7.533   5.513  0.1872  0.4969 -1.3327
    6MOL   H105 3715   1.472   7.798   5.658 -2.0627 -1.0702 -0.8948
    6MOL   H106 3716   1.564   7.653   5.726  0.4808 -0.1292 -0.8512
    6MOL   H107 3717   1.708   7.693   5.525 -0.7785 -0.5767  0.1744
    6MOL   H108 3718   0.980   7.534   4.809 -2.0767  1.2180 -2.4531
    6MOL   H109 3719   0.927   7.732   4.644  3.8642  0.1342 -4.3027
    6MOL   C110 3720   1.700   0.000   5.581  0.1945  0.3412 -0.7145
    6MOL   O111 3721   1.639   0.090   5.641 -0.0309  0.2883 -0.8790
    6MOL   C112 3722   1.821   0.018   5.498  0.5932  0.4669  0.0343
    6MOL   C113 3723   1.943   0.048   5.556 -0.3026 -0.0407  0.3860
    6MOL   C114 3724   2.064   0.065   5.473  0.4659 -0.7901  0.1540
    6MOL   C115 3725   2.055   0.045   5.332  0.7737 -0.2894 -0.5738
    6MOL   C116 3726   2.175   0.037   5.243 -0.0199  0.6397  0.0634
    6MOL   O117 3727   2.171   7.875   5.129 -0.3421  0.0955  0.4194
    6MOL   N118 3728   2.280   0.104   5.289  0.0421 -0.3670 -0.5168
    6MOL   C119 3729   2.396   0.140   5.211  0.2931 -0.4690 -1.1264
    6MOL   C120 3730   2.518   0.173   5.305  0.2403 -0.3912 -0.3560
    6MOL   C121 3731   2.596   0.046   5.356 -0.3481 -0.5604  0.6715
    6MOL   C122 3732   2.618   0.054   5.508 -0.5755 -0.4206 -0.7794
    6MOL   C123 3733   2.490   0.066   5.599  0.0420  0.7290 -0.2242
    6MOL   C124 3734   2.535   0.043   5.746 -0.2083  0.2157 -0.2053
    6MOL   N125 3735   2.420   0.031   5.840  0.4443 -0.1671 -0.6748
    6MOL   C126 3736   1.928   0.016   5.273 -0.2017  0.6870  0.1270
    6MOL   C127 3737   1.814   0.008   5.356  0.5655  0.7064 -0.2955
    6MOL   H128 3738   1.951   0.047   5.663  0.2445  2.4767  0.3866
    6MOL   H129 3739   2.156   0.075   5.529  0.1759 -0.7423  0.6281
    6MOL   H130 3740   2.269   0.151   5.378  2.0642  0.2182 -0.5516
    6MOL   H131 3741   2.431   0.057   5.148  0.7942 -0.4182 -0.9215
    6MOL   H132 3742   2.374   0.218   5.139 -1.4901 -0.0501 -0.1488
    6MOL   H133 3743   2.498   0.236   5.392  2.0254  0.8768 -0.8416
    6MOL   H134 3744   2.581   0.241   5.249 -0.4027  1.3817  1.0101
    6MOL   H135 3745   2.540   7.839   5.347  1.1051 -1.2279 -1.9930
    6MOL   H136 3746   2.695   0.036   5.312 -1.4223  0.5900 -2.1032
    6MOL   H137 3747   2.683   0.137   5.534  0.2946 -1.1426 -0.6102
    6MOL   H138 3748   2.666   7.847   5.540 -1.6606 -0.0658  2.0169
    6MOL   H139 3749   2.413   0.002   5.554 -0.1148  0.1067  0.9177
    6MOL   H140 3750   2.456   0.169   5.590  0.1237  0.8699  1.0173
    6MOL   H141 3751   2.596   7.840   5.757 -1.1665 -0.4941 -0.6309
    6MOL   H142 3752   2.602   0.125   5.774  1.6767 -1.9983  2.0982
    6MOL   H143 3753   2.391   7.826   5.873 -2.8655  0.6388 -1.1755
    6MOL   H144 3754   1.915   7.869   5.170 -1.2925  0.1817  0.4201
    6MOL   H145 3755   1.720   7.883   5.304  1.3606 -2.2552 -1.2005
    6MOL   C146 3756   2.350   0.131   5.887 -0.4959  0.5283  0.0279
    6MOL   O147 3757   2.377   0.243   5.850 -0.2090 -0.3323 -0.2512
    6MOL   C148 3758   2.232   0.103   5.982 -0.0671  0.3911 -0.0390
    6MOL   C149 3759   2.239   7.884   6.074  0.1857 -0.3626 -0.9539
    6MOL   C150 3760   2.133   7.853   6.157  0.5715  0.3801 -0.0938
    6MOL   C151 3761   2.008   0.035   6.150 -0.0771 -0.5136  0.2365
    6MOL   C152 3762   1.890   0.007   6.236 -1.0737  0.3428 -0.4994
    6MOL   O153 3763   1.833   7.783   6.217 -0.0602  0.1498  0.0264
    6MOL   N154 3764   1.868   0.088   6.341 -0.1924  0.5406  0.4661
    6MOL   C155 3765   1.765   0.072   6.451  0.3487  0.0737 -0.7052
    6MOL   C156 3766   1.703   0.211   6.493 -0.3450 -1.0542 -0.1604
    6MOL   C157 3767   1.826   0.315   6.490 -0.2002 -0.3426 -0.1955
    6MOL   C158 3768   1.796   0.459   6.527  0.2039 -0.3002  0.6019
    6MOL   C159 3769   1.727   0.540   6.414 -1.1281 -0.2768  0.8339
    6MOL   C160 3770   1.695   0.688   6.441  0.3412  0.2621 -0.0323
    6MOL   N161 3771   1.614   0.745   6.332  0.1710 -0.1102 -0.1809
    6MOL   C162 3772   1.998   0.140   6.057 -0.2370  0.5572  0.7064
    6MOL   C163 3773   2.103   0.172   5.973 -0.5919 -0.2808 -0.0451
    6MOL   H164 3774   2.325   7.820   6.090  0.7195  0.5743 -0.0732
    6MOL   H165 3775   2.151   7.768   6.222 -0.6960 -0.1475 -0.4119
    6MOL   H166 3776   1.934   0.163   6.355 -0.2485  0.5060  0.9051
    6MOL   H167 3777   1.684   0.003   6.425  1.4480 -1.6925  0.4141
    6MOL   H168 3778   1.803   0.029   6.544 -2.5682  1.2533  1.1300
    6MOL   H169 3779   1.662   0.202   6.593  0.3870  0.0290  0.2473
    6MOL   H170 3780   1.631   0.246   6.419  1.3768 -1.7148 -2.2122
    6MOL   H171 3781   1.906   0.281   6.556  1.3183 -1.0719 -2.3649
    6MOL   H172 3782   1.874   0.326   6.393  1.5550  2.3452  0.9068
    6MOL   H173 3783   1.891   0.509   6.546 -0.9936  2.3241 -0.1118
    6MOL   H174 3784   1.736   0.456   6.619 -1.1273 -0.7493 -0.2660
    6MOL   H175 3785   1.637   0.491   6.377 -2.3012  2.8314 -0.5723
    6MOL   H176 3786   1.774   0.541   6.316 -0.5332  1.7132  1.1198
    6MOL   H177 3787   1.650   0.688   6.540 -1.6733 -0.9259 -0.9208
    6MOL   H178 3788   1.782   0.753   6.443 -0.4022  1.2945 -0.6111
    6MOL   H179 3789   1.664   0.797   6.261  1.0068  0.5621  0.8882
    6MOL   H180 3790   1.900   0.186   6.052 -0.8148 -0.5163  1.9538
    6MOL   H181 3791   2.093   0.255   5.905  1.2606 -2.1357 -2.7007
    6MOL   C182 3792   1.482   0.737   6.329 -0.0834  0.1088  0.1653
    6MOL   O183 3793   1.413   0.689   6.419  0.2458 -0.6435 -0.4188
    6MOL   C184 3794   1.418   0.783   6.206  0.3299  0.6123  0.2576
    6MOL   C185 3795   1.495   0.794   6.082 -0.1063 -0.0919  0.1116
    6MOL   C186 3796   1.430   0.831   5.964  0.0381 -0.7300  0.1406
    6MOL   C187 3797   1.289   0.856   5.960 -0.1396  0.5314  0.1274
    6MOL   C188 3798   1.211   0.869   5.832 -0.0520 -0.7611 -0.3084
    6MOL   O189 3799   1.091   0.838   5.828  0.0325  0.0437  0.4987
    6MOL   N190 3800   1.279   0.914   5.730 -0.4752 -0.5273  0.1009
    6MOL   C191 3801   1.234   0.951   5.596  0.1311 -0.1481 -0.0377
    6MOL   C192 3802   1.297   1.076   5.527  0.3193  0.0685 -0.4683
    6MOL   C193 3803   1.226   1.113   5.409 -0.3300  0.1279  0.3833
    6MOL   C194 3804   1.287   1.238   5.349  0.3205  0.0831 -0.3411
    6MOL   C195 3805   1.208   1.285   5.224 -0.2520  0.0223 -0.3973
    6MOL   C196 3806   1.065   1.331   5.257 -0.1234 -0.0227  0.5233
    6MOL   N197 3807   0.960   1.233   5.225  0.1024 -0.3293  0.1817
    6MOL   C198 3808   1.218   0.841   6.077 -0.1329 -0.3699 -0.2011
    6MOL   C199 3809   1.275   0.807   6.199  0.3400 -0.1357  0.3497
    6MOL   H200 3810   1.600   0.771   6.081  0.3338  1.8633  0.4640
    6MOL   H201 3811   1.489   0.846   5.875 -0.8357 -0.8400 -0.4665
    6MOL   H202 3812   1.378   0.894   5.738  0.8982  4.1221 -2.9361
    6MOL   H203 3813   1.259   0.856   5.550  2.6212 -0.0099  0.9857
    6MOL   H204 3814   1.125   0.962   5.590  0.3052  0.9183 -1.7409
    6MOL   H205 3815   1.402   1.062   5.504  0.0398 -2.4038 -0.3607
    6MOL   H206 3816   1.299   1.156   5.601  1.7940 -0.8484  0.5091
    6MOL   H207 3817   1.222   1.033   5.334  0.7215  1.1695 -0.8079
    6MOL   H208 3818   1.121   1.131   5.434 -1.0509 -1.1876 -1.5547
    6MOL   H209 3819   1.391   1.230   5.317  0.3226  0.5003 -0.4389
    6MOL   H210 3820   1.288   1.319   5.421  0.8060  2.1996 -2.6616
    6MOL   H211 3821   1.200   1.210   5.146  0.0043 -1.1390  0.6702
    6MOL   H212 3822   1.257   1.372   5.180 -1.6540  2.2940  2.3652
    6MOL   H213 3823   1.057   1.345   5.365 -0.6683 -1.6266  0.7010
    6MOL   H214 3824   1.049   1.431   5.216  0.7931  1.1643  2.9265
    6MOL   H215 3825   0.965   1.188   5.135  1.1524 -2.2141  1.1301
    6MOL   H216 3826   1.112   0.860   6.075  0.1564  1.6213  1.4855
    6MOL   H217 3827   1.214   0.813   6.288  0.6287  2.4720  0.4175
    6MOL   C218 3828   0.862   1.200   5.309 -0.4076 -0.3057  0.3008
    6MOL   O219 3829   0.847   1.258   5.420 -0.1209  0.7732  0.7859
    6MOL   C220 3830   0.761   1.093   5.267  0.1228  0.8375  0.6947
    6MOL   C221 3831   0.677   1.036   5.367  0.6619 -0.2934  0.0425
    6MOL   C222 3832   0.587   0.928   5.333  0.5015 -0.0582 -0.6557
    6MOL   C223 3833   0.587   0.875   5.203  0.2135 -0.5498 -0.0340
    6MOL   C224 3834   0.519   0.747   5.177 -0.2120  0.0205  0.4126
    6MOL   O225 3835   0.469   0.680   5.267  0.4355  0.1534 -0.0844
    6MOL   N226 3836   0.517   0.716   5.048 -0.2278 -0.0639 -0.6841
    6MOL   C227 3837   0.459   0.599   4.981  0.8124 -0.0811  0.2456
    6MOL   C228 3838   0.357   0.647   4.872  0.1114 -0.5358 -0.0682
    6MOL   C229 3839   0.231   0.710   4.926 -0.3500 -0.4106 -0.0331
    6MOL   C230 3840   0.142   0.761   4.813  0.1080  0.3905  0.6367
    6MOL   C231 3841   0.006   0.816   4.863 -0.1666 -0.0399 -0.8638
    6MOL   C232 3842   7.795   0.863   4.752  0.0833  0.1248 -0.7473
    6MOL   N233 3843   7.857   0.929   4.639 -0.0142  0.0028 -0.4237
    6MOL   C234 3844   0.668   0.938   5.104  0.1855 -0.1561 -0.6322
    6MOL   C235 3845   0.758   1.038   5.135  0.0035 -0.3757  0.4197
    6MOL   H236 3846   0.675   1.077   5.467  3.1292  1.1623 -0.4621
    6MOL   H237 3847   0.517   0.890   5.406 -1.8342  1.0415 -2.2491
    6MOL   H238 3848   0.555   0.787   4.987  0.1472  0.4170  0.0963
    6MOL   H239 3849   0.535   0.535   4.936  0.3237 -0.7429  0.3748
    6MOL   H240 3850   0.411   0.547   5.063 -0.4418  1.1875  0.3448
    6MOL   H241 3851   0.322   0.564   4.811 -0.0374  1.2534 -2.4597
    6MOL   H242 3852   0.405   0.717   4.804  0.4298 -1.6905 -1.0457
    6MOL   H243 3853   0.192   0.649   5.007  2.5712 -0.8687  1.1003
    6MOL   H244 3854   0.266   0.793   4.987 -0.8204 -1.0178  1.0752
    6MOL   H245 3855   0.129   0.678   4.743  3.2921 -0.0609  0.5115
    6MOL   H246 3856   0.202   0.839   4.765  2.5767 -2.3929 -1.0051
    6MOL   H247 3857   0.030   0.901   4.927  1.0372 -0.2126 -1.0843
    6MOL   H248 3858   7.850   0.737   4.925 -0.1606 -0.1897 -1.0518
    6MOL   H249 3859   7.746   0.769   4.725 -1.5723  1.2854 -1.8758
    6MOL   H250 3860   7.718   0.930   4.790  1.7792  2.2218 -0.9219
    6MOL   H251 3861   0.022   0.869   4.576 -0.4754 -1.2533  0.3630
    6MOL   H252 3862   0.673   0.907   5.000  0.6831 -0.2950 -0.5690
    6MOL   H253 3863   0.818   1.077   5.054 -1.2919  2.9480  0.9941
    6MOL   C254 3864   7.842   1.058   4.608  0.1470 -0.1073  0.2003
    6MOL   O255 3865   7.777   1.142   4.673 -0.3326 -0.1137 -0.2809
    6MOL   C256 3866   0.025   1.099   4.481  0.1245 -0.8116 -0.4151
    6MOL   C257 3867   0.027   1.234   4.440 -0.6877 -0.4533 -0.5939
    6MOL   C258 3868   0.099   1.279   4.332  0.1277 -0.2353  0.3678
    6MOL   C259 3869   0.151   1.187   4.241 -0.3095  0.5073  0.0197
    6MOL   C260 3870   0.232   1.237   4.124  0.7370 -0.3617  0.0444
    6MOL   O261 3871   0.305   1.162   4.068  0.8774  0.2483  0.1153
    6MOL   N262 3872   0.229   1.365   4.097 -0.2424 -0.0322  0.1199
    6MOL   C263 3873   0.316   1.428   4.003  0.1542  0.5328  0.7436
    6MOL   C264 3874   0.326   1.583   4.010  0.1816 -0.3245  0.3997
    6MOL   C265 3875   0.428   1.647   3.919 -0.0682 -0.4664 -0.3620
    6MOL   C266 3876   0.411   1.798   3.901  0.2187 -0.0330 -0.0726
    6MOL   C267 3877   0.524   1.871   3.829 -0.0413 -0.1925 -0.0937
    6MOL   C268 3878   0.529   2.019   3.861  0.0712 -0.2943  0.3968
    6MOL   N269 3879   0.410   2.081   3.791  0.3456 -0.0625 -0.2021
    6MOL   C270 3880   0.147   1.050   4.271  0.3990 -0.1389 -0.2885
    6MOL   C271 3881   0.092   1.007   4.397  0.8928  0.9262  0.1158
    6MOL   H272 3882   7.870   1.301   4.513 -1.8634 -2.0113  0.1932
    6MOL   H273 3883   0.122   1.384   4.332  2.9654 -0.8145 -0.8848
    6MOL   H274 3884   0.187   1.419   4.171  0.6187 -0.2987  0.8097
    6MOL   H275 3885   0.419   1.394   4.016  0.6977  1.1776 -1.6587
    6MOL   H276 3886   0.286   1.389   3.905  1.0034 -0.6133  0.9233
    6MOL   H277 3887   0.351   1.611   4.113  2.8299 -1.9976  0.2642
    6MOL   H278 3888   0.226   1.617   3.983  1.2036  0.4699 -2.5275
    6MOL   H279 3889   0.528   1.618   3.953 -0.5596 -0.0880  1.4364
    6MOL   H280 3890   0.428   1.609   3.817  1.3164 -0.1290 -0.4959
    6MOL   H281 3891   0.398   1.838   4.002  1.0545  0.2826 -0.0892
    6MOL   H282 3892   0.316   1.814   3.851  0.6126  0.9467 -0.5201
    6MOL   H283 3893   0.511   1.874   3.720  0.9346  1.8843 -0.1805
    6MOL   H284 3894   0.620   1.827   3.858  0.3444  0.5331 -0.2530
    6MOL   H285 3895   0.537   2.035   3.969 -1.0827  0.9524  0.3231
    6MOL   H286 3896   0.624   2.058   3.825 -0.4854  1.1901  0.4889
    6MOL   H287 3897   0.343   2.015   3.753 -0.0663 -0.8794  1.8423
    6MOL   H288 3898   0.191   0.976   4.206 -0.7202 -0.5153 -0.6199
    6MOL   H289 3899   0.100   0.904   4.427  2.5444  1.0466  0.1048
    6MOL   C290 3900   0.368   2.207   3.816 -0.4104 -0.2896 -0.2686
    6MOL   O291 3901   0.452   2.287   3.854  0.4821 -0.3912 -0.1533
    6MOL   C292 3902   0.224   2.241   3.791 -0.0715  0.2508  0.8385
    6MOL   C293 3903   0.196   2.371   3.741  0.6233 -0.4038 -0.4877
    6MOL   C294 3904   0.060   2.409   3.710  0.2132 -0.1097 -0.2118
    6MOL   C295 3905   7.841   2.313   3.731  1.1066  0.1514 -0.2532
    6MOL   C296 3906   7.705   2.353   3.686 -0.4966  1.1326 -0.3288
    6MOL   O297 3907   7.623   2.269   3.653  0.4928 -0.0491 -0.4726
    6MOL   N298 3908   7.667   2.479   3.686 -0.2005 -0.3570 -0.1346
    6MOL   C299 3909   7.547   2.531   3.619  0.3116 -0.0091 -0.3486
    6MOL   C300 3910   7.551   2.680   3.589  0.0521  0.7308 -0.0869
    6MOL   C301 3911   7.423   2.719   3.512 -0.2847  0.9408  0.2130
    6MOL   C302 3912   7.427   2.857   3.450  0.3267  0.0179 -0.0935
    6MOL   C303 3913   7.504   2.867   3.309 -0.2679 -0.3433  0.0309
    6MOL   C304 3914   7.541   3.016   3.274  0.5501 -0.1034 -0.9532
    6MOL   N305 3915   7.612   3.023   3.146  0.6291  0.1798  0.2615
    6MOL   C306 3916   7.865   2.188   3.789  0.4830 -0.5099  0.3429
    6MOL   C307 3917   0.111   2.152   3.808  0.4719 -0.6011 -0.0701
    6MOL   H308 3918   0.273   2.446   3.733 -1.4663  1.8239 -0.0347
    6MOL   H309 3919   0.042   2.504   3.663 -3.1826 -0.6508 -0.0986
    6MOL   H310 3920   7.730   2.548   3.724 -1.3199 -1.1930  3.5555
    6MOL   H311 3921   7.552   2.487   3.519 -2.9775 -0.8872 -0.1764
    6MOL   H312 3922   7.463   2.487   3.672  3.1512 -1.9891  2.7242
    6MOL   H313 3923   7.638   2.709   3.531 -1.4752  1.4433 -2.0790
    6MOL   H314 3924   7.541   2.731   3.685 -3.0875 -0.2391  0.1695
    6MOL   H315 3925   7.389   2.651   3.434 -0.4608  1.9056 -0.5599
    6MOL   H316 3926   7.333   2.719   3.573 -1.1145  1.6600 -1.0020
    6MOL   H317 3927   7.471   2.919   3.529  2.1771  1.1829 -1.9883
    6MOL   H318 3928   7.328   2.895   3.423  0.4658 -0.8151 -1.7846
    6MOL   H319 3929   7.448   2.814   3.231 -0.7039 -0.3342  0.3318
    6MOL   H320 3930   7.596   2.811   3.325  0.2225  0.2392 -0.7186
    6MOL   H321 3931   7.447   3.071   3.268  0.8235  0.4894  0.1128
    6MOL   H322 3932   7.599   3.055   3.357  1.5434  0.9129 -2.1107
    6MOL   H323 3933   7.555   3.015   3.062  4.1924 -0.9776 -2.1501
    6MOL   H324 3934   7.786   2.119   3.813 -0.1674  0.2169  0.3260
    6MOL   H325 3935   0.126   2.049   3.834 -1.6240 -1.8870 -3.5722
    6MOL   C326 3936   7.739   2.993   3.120 -0.5058  0.4815  0.1962
    6MOL   O327 3937   7.825   2.995   3.206 -0.5093  0.0304 -0.1183
    6MOL   C328 3938   7.757   2.947   2.980  0.0144  0.3629 -0.9549
    6MOL   C329 3939   7.692   3.014   2.871  0.4661 -0.2269  0.0004
    6MOL   C330 3940   7.705   2.974   2.739 -0.5025  0.1423  0.1926
    6MOL   C331 3941   7.759   2.845   2.715  0.7450 -0.2988  0.1207
    6MOL   C332 3942   7.775   2.798   2.577  0.2099 -0.8977 -0.2131
    6MOL   O333 3943   7.793   2.882   2.492  0.5666  0.3445 -0.0886
    6MOL   N334 3944   7.767   2.668   2.559 -0.4070 -0.1815 -0.8673
    6MOL   C335 3945   7.796   2.597   2.437  0.5114 -0.0411  0.4803
    6MOL   C336 3946   7.673   2.576   2.344 -0.6036  0.9521 -0.7769
    6MOL   C337 3947   7.698   2.521   2.201  0.0557 -0.3786  0.0129
    6MOL   C338 3948   7.836   2.560   2.144 -0.8902  0.1328  0.1076
    6MOL   C339 3949   7.851   2.492   2.004 -0.4208 -0.8323 -0.0902
    6MOL   C340 3950   0.071   2.553   1.910 -0.3987 -0.6716  0.1411
    6MOL   N341 3951   0.199   2.494   1.943  0.4060 -0.0442  0.1867
    6MOL   C342 3952   7.814   2.774   2.820 -0.0871  0.3759 -0.0204
    6MOL   C343 3953   7.815   2.820   2.952  0.0388 -0.6227  0.3328
    6MOL   H344 3954   7.635   3.105   2.885  1.1279  0.2163 -0.1867
    6MOL   H345 3955   7.653   3.019   2.657 -0.3376 -1.4192 -0.7806
    6MOL   H346 3956   7.748   2.612   2.641  0.3435 -0.0109 -0.5728
    6MOL   H347 3957   7.875   2.650   2.384  1.7460  0.3644  2.6654
    6MOL   H348 3958   7.830   2.496   2.458  0.4466 -0.0414  0.5858
    6MOL   H349 3959   7.615   2.668   2.339 -0.1846  1.1845 -1.4076
    6MOL   H350 3960   7.606   2.509   2.399 -3.2079  3.3211 -0.9150
    6MOL   H351 3961   7.679   2.414   2.211 -2.0245 -0.3108 -2.6677
    6MOL   H352 3962   7.615   2.546   2.135 -2.1120 -3.0562  1.6247
    6MOL   H353 3963   0.031   2.513   2.200 -1.4073 -0.2201  0.5682
    6MOL   H354 3964   7.836   2.669   2.148 -1.4421  0.1030  1.4972
    6MOL   H355 3965   7.757   2.516   1.954  1.5456  1.4499 -2.8467
    6MOL   H356 3966   7.850   2.383   2.008 -1.4002 -0.8871 -1.6248
    6MOL   H357 3967   0.053   2.520   1.808  1.5085 -0.5950 -0.2435
    6MOL   H358 3968   0.080   2.661   1.916  0.9040 -0.6837 -1.4347
    6MOL   H359 3969   0.252   2.541   2.015 -1.5611 -0.5563  1.9992
    6MOL   H360 3970   7.845   2.672   2.805 -1.2710 -0.1824  1.2437
    6MOL   H361 3971   7.856   2.758   3.030 -0.7864 -1.5481  0.0539
    6MOL   C362 3972   0.232   2.368   1.908  0.0054 -0.4821 -0.1503
    6MOL   O363 3973   0.161   2.301   1.829  0.0691 -0.4399  0.1793
    6MOL   C364 3974   0.353   2.324   1.985  0.2395 -1.0521  0.1526
    6MOL   C365 3975   0.365   2.209   2.061  0.7860  0.4890  1.1374
    6MOL   C366 3976   0.486   2.168   2.120 -0.2104 -0.1700 -0.0082
    6MOL   C367 3977   0.596   2.256   2.116  0.2063  0.3795  0.8341
    6MOL   C368 3978   0.725   2.227   2.185  1.2290 -0.0383  0.1362
    6MOL   O369 3979   0.835   2.221   2.127 -0.6142 -0.3763  0.4737
    6MOL   N370 3980   0.713   2.180   2.308 -0.4473  0.8838 -0.6421
    6MOL   C371 3981   0.809   2.099   2.385  0.3891 -0.7500  0.0405
    6MOL   C372 3982   0.906   2.177   2.478  0.1956  0.4114  0.8528
    6MOL   C373 3983   1.010   2.074   2.531 -0.0385  0.8968  0.0043
    6MOL   C374 3984   1.104   2.137   2.629 -0.1417  0.2135 -0.0865
    6MOL   C375 3985   1.213   2.038   2.685  0.5701  0.0094  0.6281
    6MOL   C376 3986   1.342   2.113   2.733  0.3298 -0.2285  0.1870
    6MOL   N377 3987   1.428   2.010   2.792  0.3653 -0.2513 -0.5288
    6MOL   C378 3988   0.594   2.375   2.038 -0.0094  0.0657  0.0114
    6MOL   C379 3989   0.468   2.411   1.970 -0.6414  0.1176 -0.1870
    6MOL   H380 3990   0.269   2.160   2.066  1.2492 -0.7355 -1.4363
    6MOL   H381 3991   0.492   2.075   2.174  2.8793  1.5575  2.7649
    6MOL   H382 3992   0.622   2.193   2.349 -0.7989  0.2176 -1.2145
    6MOL   H383 3993   0.759   2.022   2.443 -1.0696 -1.1139 -1.6520
    6MOL   H384 3994   0.866   2.042   2.311 -0.0298 -1.3950  0.2051
    6MOL   H385 3995   0.852   2.232   2.555 -0.1929  0.5005  0.5206
    6MOL   H386 3996   0.957   2.260   2.430  0.9634  0.0424  1.0304
    6MOL   H387 3997   0.959   1.989   2.576  1.4566 -0.4410 -0.7838
    6MOL   H388 3998   1.060   2.037   2.442 -1.2300  1.5892 -0.9773
    6MOL   H389 3999   1.042   2.189   2.701 -0.3692  3.1975 -2.3689
    6MOL   H390 4000   1.149   2.219   2.573 -1.9199  0.6667 -0.8920
    6MOL   H391 4001   1.231   1.966   2.605 -0.5879 -1.0123  1.2712
    6MOL   H392 4002   1.161   1.984   2.764 -1.8679 -1.3305 -1.7756
    6MOL   H393 4003   1.392   2.175   2.658  0.2639  2.0868  2.0161
    6MOL   H394 4004   1.325   2.180   2.817 -0.2744  1.1682 -1.0280
    6MOL   H395 4005   1.395   1.940   2.857 -1.6453  1.5191  0.4240
    6MOL   H396 4006   0.677   2.444   2.050 -0.6152  1.0116 -1.1295
    6MOL   H397 4007   0.459   2.504   1.916  1.4480  1.0889  1.0780
    6MOL   C398 4008   1.563   1.999   2.768  0.2848 -0.6169  0.6412
    6MOL   O399 4009   1.623   2.068   2.684 -0.7714 -0.1809  0.2448
    6MOL   C400 4010   1.632   1.886   2.828  0.4439 -0.7055 -0.5326
    6MOL   C401 4011   1.581   1.817   2.941 -0.1097 -0.7228 -0.3788
    6MOL   C402 4012   1.655   1.720   2.999 -0.1188  0.4236 -0.7760
    6MOL   C403 4013   1.785   1.689   2.968  0.8328 -0.0334 -0.3637
    6MOL   C404 4014   1.869   1.606   3.060 -0.2051  0.4418 -0.3720
    6MOL   O405 4015   1.844   1.595   3.177 -0.3651 -0.0685 -0.2908
    6MOL   N406 4016   1.971   1.552   3.005  0.2246 -0.0264 -0.2697
    6MOL   C407 4017   2.043   1.438   3.057 -0.7529 -0.6200 -0.3382
    6MOL   C408 4018   1.955   1.312   3.039 -0.6244  0.5368  0.2275
    6MOL   C409 4019   2.025   1.186   3.090  0.3481 -0.8990  0.0357
    6MOL   C410 4020   1.958   1.051   3.059  0.1131 -0.1886  1.2497
    6MOL   C411 4021   2.025   0.923   3.113 -0.3792  0.3283 -0.3677
    6MOL   C412 4022   1.952   0.801   3.060 -0.4042 -0.1421 -0.4786
    6MOL   N413 4023   2.001   0.678   3.110 -0.8404  0.6605 -0.1022
    6MOL   C414 4024   1.839   1.757   2.860  1.1370  0.1301 -0.0763
    6MOL   C415 4025   1.769   1.861   2.792  0.3963 -0.2779  0.4097
    6MOL   H416 4026   1.495   1.850   2.997  1.1151 -3.1177  3.1318
    6MOL   H417 4027   1.611   1.676   3.088 -2.0560  1.3930 -1.2388
    6MOL   H418 4028   2.004   1.590   2.917  0.6785  0.4283  0.0873
    6MOL   H419 4029   2.132   1.431   2.995 -0.1146  0.6343  0.4115
    6MOL   H420 4030   2.079   1.460   3.158  1.5108 -1.1622 -1.0207
    6MOL   H421 4031   1.927   1.308   2.934 -1.3910 -0.1347  0.4442
    6MOL   H422 4032   1.865   1.324   3.100 -1.5611 -0.8910 -0.8229
    6MOL   H423 4033   2.122   1.179   3.041 -0.1712 -0.0040 -1.1628
    6MOL   H424 4034   2.042   1.198   3.197 -0.7952  1.0011  0.0267
    6MOL   H425 4035   1.951   1.034   2.952  1.2819  0.9777  0.9857
    6MOL   H426 4036   1.855   1.065   3.093  0.0449 -0.9700  1.3878
    6MOL   H427 4037   2.020   0.928   3.222 -1.4543  0.2905 -0.4160
    6MOL   H428 4038   2.130   0.925   3.082 -0.0516  1.9299  0.7356
    6MOL   H429 4039   1.845   0.794   3.079 -0.2940 -1.9381 -0.4350
    6MOL   H430 4040   1.966   0.802   2.952  0.1189 -3.3998 -0.4880
    6MOL   H431 4041   1.939   0.630   3.174 -1.1650  0.2545 -0.7205
    6MOL   H432 4042   1.942   1.743   2.831  0.5352 -1.9972 -1.3017
    6MOL   H433 4043   1.828   1.906   2.714  0.4995  0.2999  0.8220
    6MOL   C434 4044   2.099   0.600   3.060  0.0941 -0.1043  0.2348
    6MOL   O435 4045   2.183   0.643   2.981  0.0210  0.5353  0.8040
    6MOL   C436 4046   2.105   0.457   3.109  0.2809 -0.2548  0.0438
    6MOL   C437 4047   2.226   0.399   3.147  0.8056  0.2931 -0.1907
    6MOL   C438 4048   2.225   0.262   3.186 -0.4203  0.6803  0.4314
    6MOL   C439 4049   2.102   0.190   3.199  0.7950  0.0672  0.9690
    6MOL   C440 4050   2.098   0.048   3.260 -0.0698 -0.2461  0.2394
    6MOL   O441 4051   2.190   7.886   3.323 -0.1681  0.1385  0.0368
    6MOL   N442 4052   1.996   7.862   3.204 -0.6717 -0.2063  0.0819
    6MOL   C443 4053   1.944   7.731   3.241  0.3236  0.0112  0.2439
    6MOL   C444 4054   1.851   7.666   3.136 -0.0143  0.4931  0.7447
    6MOL   C445 4055   1.805   7.520   3.172  0.1773  0.5447 -0.3516
    6MOL   C446 4056   1.700   7.469   3.070 -0.4701  0.1831  0.0479
    6MOL   C447 4057   1.560   7.436   3.119 -0.3909 -0.2051  0.3082
    6MOL   C448 4058   1.468   7.396   3.009  0.2521 -0.2905  0.0735
    6MOL   N449 4059   1.334   7.374   3.059 -0.1174  0.5428 -0.6739
    6MOL   C450 4060   1.980   0.256   3.176  0.0162  0.5536 -0.2306
    6MOL   C451 4061   1.980   0.388   3.127 -0.2708  0.9590 -0.1082
    6MOL   H452 4062   2.315   0.461   3.144  0.8978  0.2488  1.3100
    6MOL   H453 4063   2.316   0.222   3.229 -0.3330  1.7758  1.3013
    6MOL   H454 4064   1.955   0.022   3.125  1.5823  1.5992 -0.0922
    6MOL   H455 4065   2.026   7.668   3.274  0.9330  1.4849  1.5835
    6MOL   H456 4066   1.883   7.738   3.330 -0.7612  0.0539 -0.4895
    6MOL   H457 4067   1.896   7.683   3.039 -2.5995 -0.2206 -0.6248
    6MOL   H458 4068   1.757   7.722   3.137  0.9996  2.2768 -1.1728
    6MOL   H459 4069   1.887   7.449   3.182 -0.5378 -0.3714 -0.9221
    6MOL   H460 4070   1.756   7.531   3.268 -2.6817 -0.2354 -1.6591
    6MOL   H461 4071   1.734   7.373   3.032  0.0797  0.5731 -0.4507
    6MOL   H462 4072   1.693   7.532   2.981 -1.6486  3.3014  2.2336
    6MOL   H463 4073   1.528   7.533   3.158  0.6647  0.3417 -0.1815
    6MOL   H464 4074   1.563   7.356   3.193  0.5592 -1.8704 -1.4983
    6MOL   H465 4075   1.467   7.470   2.928 -0.0027  1.1574  1.3623
    6MOL   H466 4076   1.504   7.304   2.965 -0.7933  0.6392 -2.8507
    6MOL   H467 4077   1.323   7.373   3.159  2.3717 -0.8482 -0.3840
    6MOL   H468 4078   1.882   0.214   3.193 -1.2744  1.9951 -3.5462
    6MOL   H469 4079   1.889   0.446   3.117 -1.3998 -0.5095  1.3699
    6MOL   C470 4080   1.226   7.332   2.991 -0.8729 -0.3515  0.5639
    6MOL   O471 4081   1.232   7.314   2.868  0.3558  0.1310 -0.2043
    6MOL   C472 4082   1.098   7.322   3.071  0.7710 -0.5060  0.2576
    6MOL   C473 4083   1.093   7.327   3.210  0.2014  0.2563 -0.2822
    6MOL   C474 4084   0.970   7.314   3.281 -0.2400 -0.2500 -0.4841
    6MOL   C475 4085   0.848   7.306   3.212  0.5243  0.0953  0.5849
    6MOL   C476 4086   0.712   7.324   3.281 -0.5047 -0.3456 -0.3628
    6MOL   O477 4087   0.612   7.367   3.222 -0.0671 -0.3510 -0.0480
    6MOL   N478 4088   0.718   7.301   3.415  0.1576  0.4740 -0.2844
    6MOL   C479 4089   0.619   7.317   3.518  0.1283 -0.2038 -0.4667
    6MOL   C480 4090   0.677   7.382   3.643 -0.5678 -0.3858  0.1766
    6MOL   C481 4091   0.715   7.530   3.625  0.1249 -0.3967  0.2449
    6MOL   C482 4092   0.761   7.588   3.759  0.0693  0.6635 -0.2074
    6MOL   C483 4093   0.795   7.739   3.747  0.9082 -0.0017 -0.0532
    6MOL   C484 4094   0.927   7.774   3.678  0.6305  0.6834 -0.7470
    6MOL   N485 4095   0.961   0.028   3.707 -0.3701  0.0322 -0.3103
    6MOL   C486 4096   0.853   7.307   3.073 -0.3120 -0.2174  0.2616
    6MOL   C487 4097   0.977   7.307   3.005  1.0907 -0.3691  0.5274
    6MOL   H488 4098   1.179   7.341   3.274 -0.5025  1.8881  0.3132
    6MOL   H489 4099   0.973   7.314   3.389  1.3852 -0.4213 -0.5258
    6MOL   H490 4100   0.801   7.246   3.430 -1.8500 -2.4429  0.6265
    6MOL   H491 4101   0.541   7.378   3.475 -0.2700 -0.3835 -0.0002
    6MOL   H492 4102   0.573   7.221   3.542  1.1768 -0.6968 -0.3563
    6MOL   H493 4103   0.754   7.317   3.685  0.7997  0.8711 -0.3264
    6MOL   H494 4104   0.606   7.363   3.723 -0.8609 -1.9139 -0.4349
    6MOL   H495 4105   0.785   7.551   3.545 -0.2594  1.3233  0.3447
    6MOL   H496 4106   0.636   7.596   3.590  1.2885  1.0086  0.2270
    6MOL   H497 4107   0.851   7.547   3.805 -0.7488 -0.1946  0.6313
    6MOL   H498 4108   0.678   7.581   3.830  0.2561 -1.0057 -0.1474
    6MOL   H499 4109   0.798   7.775   3.850  0.4779  1.2566 -0.4626
    6MOL   H500 4110   0.701   7.773   3.703  0.0527 -2.5571 -0.2721
    6MOL   H501 4111   1.013   7.714   3.708 -0.0891  0.6542  1.3457
    6MOL   H502 4112   0.922   7.759   3.570 -1.4527 -0.8970 -0.4590
    6MOL   H503 4113   0.908   0.071   3.781  0.1180  0.5407 -0.2530
    6MOL   H504 4114   0.760   7.305   3.019 -1.4999  1.1130  2.2323
    6MOL   H505 4115   0.982   7.296   2.898  1.7136  0.2869  0.4869
    6MOL   C506 4116   1.043   0.106   3.638 -0.4454  0.4914 -0.2671
    6MOL   O507 4117   1.113   0.074   3.546  0.1267 -0.1981  0.2233
    6MOL   C508 4118   1.050   0.251   3.686  0.7554 -0.0404  0.0193
    6MOL   C509 4119   0.982   0.296   3.803 -0.8328  0.7648 -0.0950
    6MOL   C510 4120   0.974   0.435   3.827  0.5524 -0.3229 -0.1656
    6MOL   C511 4121   1.037   0.532   3.742  0.3237  0.3757  0.2939
    6MOL   C512 4122   1.033   0.679   3.762  0.1478 -0.1306  0.1611
    6MOL   O513 4123   1.042   0.729   3.874 -0.2947 -0.8174  0.6984
    6MOL   N514 4124   1.004   0.747   3.651  0.4986  0.3713  0.3618
    6MOL   C515 4125   0.985   0.889   3.647 -0.6366  0.2320 -0.5407
    6MOL   C516 4126   0.927   0.931   3.506 -0.7375  0.3143  0.2297
    6MOL   C517 4127   0.951   1.082   3.474  0.1508 -0.2563  0.4029
    6MOL   C518 4128   0.875   1.193   3.549  0.0407  0.0515  0.2775
    6MOL   C519 4129   0.737   1.219   3.491  0.6309 -0.3233 -0.4394
    6MOL   C520 4130   0.682   1.345   3.552 -0.3702 -0.5001  0.2139
    6MOL   N521 4131   0.555   1.384   3.489  0.1886 -0.0043  0.3349
    6MOL   C522 4132   1.093   0.485   3.622  0.5568  0.2600  0.7504
    6MOL   C523 4133   1.103   0.347   3.602 -0.0746  0.4613  0.4118
    6MOL   H524 4134   0.931   0.232   3.873  3.2162 -0.9693  1.3792
    6MOL   H525 4135   0.938   0.461   3.925  0.0825  1.3380 -0.7751
    6MOL   H526 4136   0.995   0.697   3.564  2.1046  0.9306 -0.1351
    6MOL   H527 4137   0.922   0.930   3.726  1.1804  1.0531  0.4972
    6MOL   H528 4138   1.088   0.915   3.672 -0.5225  0.3435 -1.1270
    6MOL   H529 4139   0.820   0.912   3.508 -0.6864 -0.3027 -1.9448
    6MOL   H530 4140   0.969   0.864   3.431 -1.4561 -3.0260  2.7380
    6MOL   H531 4141   1.057   1.103   3.483 -0.0223  1.4140 -1.0302
    6MOL   H532 4142   0.923   1.102   3.371 -1.9011 -0.3827  0.9065
    6MOL   H533 4143   0.938   1.280   3.534  1.2069 -1.2409 -2.6222
    6MOL   H534 4144   0.872   1.172   3.656  0.3377 -1.2571  0.0306
    6MOL   H535 4145   0.673   1.134   3.512 -0.9696  1.1248  0.7244
    6MOL   H536 4146   0.754   1.237   3.385 -1.5360 -1.4680 -0.9916
    6MOL   H537 4147   0.676   1.331   3.660  0.5605 -0.1686  0.3171
    6MOL   H538 4148   0.755   1.424   3.533 -1.3326 -0.0631 -1.7235
    6MOL   H539 4149   0.504   1.318   3.431  0.8700  0.7608 -1.1506
    6MOL   H540 4150   1.137   0.552   3.550 -0.8506 -0.5106 -0.8675
    6MOL   H541 4151   1.153   0.313   3.512 -2.0162 -0.8924 -0.2011
    6MOL   C542 4152   0.505   1.507   3.492  0.0728  0.2953 -0.3195
    6MOL   O543 4153   0.551   1.597   3.563 -0.3833  0.4702  0.3772
    6MOL   C544 4154   0.390   1.531   3.401  0.1791  0.1760 -0.3072
    6MOL   C545 4155   0.338   1.658   3.376  0.2250 -0.1523  0.5909
    6MOL   C546 4156   0.241   1.691   3.278  0.7529  0.1336 -0.2204
    6MOL   C547 4157   0.181   1.576   3.215  0.6903 -0.2467  0.1811
    6MOL   C548 4158   0.066   1.604   3.126  0.1111  0.3278 -0.3938
    6MOL   O549 4159   0.009   1.512   3.063 -0.7603 -0.5779  0.1640
    6MOL   N550 4160   0.027   1.729   3.114  0.5179 -0.4813 -0.2331
    6MOL   C551 4161   7.785   1.765   3.052  0.0689  0.6697 -0.6175
    6MOL   C552 4162   7.741   1.912   3.077  0.5676  0.2888  0.1979
    6MOL   C553 4163   7.671   1.940   3.204  0.1148  0.0001  0.1008
    6MOL   C554 4164   7.747   1.918   3.335 -0.9041  0.5891  0.3765
    6MOL   C555 4165   7.878   1.999   3.357  0.0478 -0.2693 -0.2419
    6MOL   C556 4166   0.015   2.021   3.506  0.9919 -0.0256  0.0612
    6MOL   N557 4167   0.009   1.894   3.577  0.2389 -0.3573 -0.0918
    6MOL   C558 4168   0.228   1.446   3.238 -1.5100  0.5752  0.5289
    6MOL   C559 4169   0.321   1.423   3.336  0.2425 -0.4249  0.1249
    6MOL   H560 4170   0.380   1.741   3.430 -2.1426  0.4436  1.5851
    6MOL   H561 4171   0.225   1.794   3.249  0.8949  0.3093  0.3176
    6MOL   H562 4172   0.073   1.800   3.169 -2.4096  2.6249 -1.5470
    6MOL   H563 4173   7.801   1.760   2.944  0.4292  2.6644 -0.6683
    6MOL   H564 4174   7.700   1.702   3.078 -0.6240  1.2421 -1.5083
    6MOL   H565 4175   7.668   1.933   2.999  0.4258 -0.0701  0.2348
    6MOL   H566 4176   7.832   1.968   3.054  2.1138 -0.5362  3.9600
    6MOL   H567 4177   7.617   2.034   3.204 -0.6626 -0.3895 -3.3004
    6MOL   H568 4178   7.586   1.872   3.213  0.6723 -0.7879 -0.4570
    6MOL   H569 4179   7.781   1.815   3.341  1.4814  1.4733  3.8112
    6MOL   H570 4180   7.687   1.937   3.425  2.0049 -3.6206  3.3909
    6MOL   H571 4181   7.883   2.096   3.308  0.3259 -0.4667 -0.6072
    6MOL   H572 4182   0.077   1.942   3.318 -0.3756 -0.5128 -0.8079
    6MOL   H573 4183   0.115   2.060   3.523  1.4284 -1.4882  0.9549
    6MOL   H574 4184   7.832   2.094   3.548 -1.3774 -1.3119 -1.5097
    6MOL   H575 4185   7.799   1.865   3.584 -0.0852  0.8128  0.5126
    6MOL   H576 4186   0.180   1.361   3.194  0.7665 -1.4041  1.7375
    6MOL   H577 4187   0.331   1.324   3.378  0.3060 -1.0954 -1.4466
    6MOL   C578 4188   0.111   1.815   3.608  0.3090  0.0532 -0.6166
    6MOL   O579 4189   0.228   1.843   3.583 -0.8716 -0.2146 -0.2298
    6MOL   C580 4190   0.076   1.687   3.664  0.2511  0.4966  0.3809
    6MOL   C581 4191   0.157   1.574   3.648  0.2642  0.0269  0.2035
    6MOL   C582 4192   0.105   1.448   3.685 -0.0178 -0.1062  0.2984
    6MOL   C583 4193   7.874   1.433   3.758 -1.2088 -0.4361 -1.0172
    6MOL   C584 4194   7.821   1.301   3.797 -0.4081  0.4516 -0.2420
    6MOL   O585 4195   7.799   1.213   3.713  0.2139 -0.5926 -0.4762
    6MOL   N586 4196   7.799   1.296   3.927 -0.5241  0.3431  0.3812
    6MOL   C587 4197   7.775   1.176   4.005  1.0304  0.2781  0.7251
    6MOL   C588 4198   7.634   1.124   3.979  0.4140  0.4654  0.3340
    6MOL   C589 4199   7.604   0.988   4.046  0.1792  0.1775  0.3220
    6MOL   C590 4200   7.555   1.015   4.190  0.1734  0.0487  0.3763
    6MOL   C591 4201   7.556   0.880   4.257 -0.3865  0.1000  0.2100
    6MOL   C592 4202   7.697   0.845   4.323 -0.1644 -0.0700 -0.4121
    6MOL   N593 4203   7.700   0.705   4.362 -0.6858  0.1054  1.1580
    6MOL   C594 4204   7.801   1.550   3.783 -0.2957 -0.0558  0.6407
    6MOL   C595 4205   7.847   1.675   3.734 -0.3953 -0.0365 -0.1898
    6MOL   H596 4206   0.253   1.571   3.598  0.2405 -3.1279  0.1968
    6MOL   H597 4207   0.160   1.358   3.663 -2.2849 -0.7213 -3.1120
    6MOL   H598 4208   7.822   1.372   3.988 -0.0237  0.7862 -0.3538
    6MOL   H599 4209   7.859   1.112   3.983  0.5609  0.4752 -1.7928
    6MOL   H600 4210   7.791   1.211   4.107  0.5056  1.0218  0.5643
    6MOL   H601 4211   7.624   1.117   3.870 -0.2213  0.8444  0.3628
    6MOL   H602 4212   7.556   1.194   4.010  0.3131  0.3356  0.3706
    6MOL   H603 4213   7.531   0.931   3.989  1.7204 -2.0661  0.5335
    6MOL   H604 4214   7.695   0.928   4.040  0.0436  0.0638 -0.5531
    6MOL   H605 4215   7.453   1.052   4.186  0.0085 -0.4324  0.0501
    6MOL   H606 4216   7.616   1.085   4.247  1.1304 -1.4743  1.2775
    6MOL   H607 4217   7.525   0.805   4.184  1.7311  0.4445 -1.0648
    6MOL   H608 4218   7.485   0.874   4.339 -0.1538  1.8034  0.5471
    6MOL   H609 4219   7.783   0.860   4.256  0.4274  0.1895  0.3957
    6MOL   H610 4220   7.711   0.905   4.412  0.9015 -0.0646 -0.5752
    6MOL   H611 4221   7.611   0.665   4.389 -0.6160 -0.0407  1.1684
    6MOL   H612 4222   7.705   1.537   3.830  0.3419 -0.9549  1.7296
    6MOL   H613 4223   7.789   1.764   3.751 -2.6521 -1.2485 -1.3591
    6MOL   C614 4224   7.810   0.631   4.378  0.0416 -0.1155  1.0952
    6MOL   O615 4225   0.033   0.677   4.386 -0.0801  0.1641  0.2505
    6MOL   C616 4226   7.779   0.484   4.400 -0.4037  0.1486 -0.4099
    6MOL   C617 4227   7.867   0.406   4.478 -0.4973 -0.5691  0.3955
    6MOL   C618 4228   7.837   0.271   4.498 -0.2602  0.1466 -0.2755
    6MOL   C619 4229   7.724   0.209   4.441  0.3457  0.2147  0.6690
    6MOL   C620 4230   7.694   0.067   4.458 -0.3223 -1.1247 -0.1191
    6MOL   O621 4231   7.600   0.015   4.396 -0.3160 -0.4549 -0.1749
    6MOL   N622 4232   7.752   0.003   4.563  0.1719 -0.3394 -0.6919
    6MOL   C623 4233   7.708   7.765   4.616 -0.0485  0.1066  0.2474
    6MOL   C624 4234   7.676   7.770   4.762 -0.4983  0.3807  0.4523
    6MOL   C625 4235   7.608   7.651   4.838  0.2622  0.4826 -0.2986
    6MOL   C626 4236   7.697   7.531   4.876 -0.7078  0.3400 -0.7988
    6MOL   C627 4237   7.621   7.407   4.928  0.2679  0.3407  0.7252
    6MOL   C628 4238   7.709   7.296   4.979  0.0041 -0.4559  0.3496
    6MOL   N629 4239   7.787   7.333   5.092 -0.7553 -0.3114  0.0342
    6MOL   C630 4240   7.637   0.292   4.359  0.5410 -0.0620 -0.5775
    6MOL   C631 4241   7.665   0.425   4.336  0.5321  0.5319 -0.6849
    6MOL   H632 4242   0.070   0.456   4.513 -0.2738  0.5620 -1.6997
    6MOL   H633 4243   0.015   0.216   4.566 -3.4131 -0.2090  2.5997
    6MOL   H634 4244   7.834   0.044   4.606  2.0102 -3.2602 -1.2064
    6MOL   H635 4245   7.620   7.729   4.562  1.1996 -2.3961 -0.1754
    6MOL   H636 4246   7.792   7.698   4.601 -0.8579 -0.8360 -0.1830
    6MOL   H637 4247   7.636   7.863   4.804 -0.1848  0.0531  1.5005
    6MOL   H638 4248   7.775   7.771   4.807  0.3299 -0.0144 -1.3271
    6MOL   H639 4249   7.575   7.696   4.932 -0.0946  1.4098 -0.8575
    6MOL   H640 4250   7.524   7.627   4.773  2.2177 -1.2808 -2.2306
    6MOL   H641 4251   7.769   7.560   4.953  1.0543  0.5602 -2.4938
    6MOL   H642 4252   7.756   7.494   4.792 -2.3898  0.2414 -1.9448
    6MOL   H643 4253   7.564   7.373   4.842  1.5609  0.5011 -0.2047
    6MOL   H644 4254   7.558   7.446   5.008  0.3297  3.1915 -0.5592
    6MOL   H645 4255   7.647   7.209   5.002 -1.6825  0.8601  0.8980
    6MOL   H646 4256   7.788   7.271   4.908 -0.8334 -0.2592 -0.6567
    6MOL   H647 4257   7.744   7.397   5.158 -1.0458 -0.7551  0.2761
    6MOL   H648 4258   7.549   0.250   4.313 -0.5770  1.3880  0.2129
    6MOL   H649 4259   7.611   0.482   4.263 -0.2650  2.3540  1.2810
    6MOL   C650 4260   0.022   7.276   5.123  0.3771 -0.2432 -0.1226
    6MOL   O651 4261   0.050   7.170   5.079 -0.1694  0.7698 -0.1091
    6MOL   C652 4262   0.108   7.348   5.223  0.0139 -0.0088  0.6919
    6MOL   C653 4263   0.142   7.282   5.343 -0.0944  0.4536 -0.0844
    6MOL   C654 4264   0.218   7.354   5.440 -0.7090 -0.2489  0.5309
    6MOL   C655 4265   0.277   7.479   5.413  0.6163 -0.2158 -0.6721
    6MOL   C656 4266   0.345   7.549   5.527  0.1243  0.4380  0.7905
    6MOL   O657 4267   0.337   7.506   5.644  0.0092  0.0555  0.5670
    6MOL   N658 4268   0.384   7.672   5.507 -0.7054 -0.6704 -0.2155
    6MOL   C659 4269   0.429   7.775   5.595 -0.6406  0.1380 -0.1617
    6MOL   C660 4270   0.328   0.008   5.624 -0.0961 -0.0888 -0.0366
    6MOL   C661 4271   0.393   0.124   5.709  0.2092 -0.5462  0.2166
    6MOL   C662 4272   0.316   0.254   5.718  0.2316  0.6101  0.0208
    6MOL   C663 4273   0.198   0.255   5.810  0.0461  0.2290  0.6015
    6MOL   C664 4274   0.131   0.390   5.834  0.5470  0.4659  0.2796
    6MOL   N665 4275   0.019   0.377   5.916 -0.3274  0.3000 -0.0455
    6MOL   C666 4276   0.250   7.537   5.285 -0.3022 -0.0133 -0.3156
    6MOL   C667 4277   0.163   7.476   5.192 -0.4124  0.1340 -0.6684
    6MOL   H668 4278   0.113   7.180   5.362 -1.3738  0.7512 -0.3732
    6MOL   H669 4279   0.241   7.296   5.529 -1.1367 -2.5651 -0.8233
    6MOL   H670 4280   0.384   7.711   5.414  0.9613  0.4147  0.2193
    6MOL   H671 4281   0.470   7.734   5.688 -3.1823  0.0163  0.9580
    6MOL   H672 4282   0.526   7.811   5.560 -0.1304  0.8985  1.9478
    6MOL   H673 4283   0.247   7.852   5.684  0.6182 -0.1401  0.8976
    6MOL   H674 4284   0.291   0.049   5.530  1.5473  0.3720 -0.4981
    6MOL   H675 4285   0.415   0.077   5.804 -0.2720  0.8877  1.0536
    6MOL   H676 4286   0.492   0.145   5.668  0.8250 -1.1854  1.3555
    6MOL   H677 4287   0.275   0.264   5.617  1.6667  1.0363 -0.5241
    6MOL   H678 4288   0.385   0.336   5.735  0.9036  0.5070 -2.0292
    6MOL   H679 4289   0.236   0.229   5.909 -1.1588  0.2803  1.0935
    6MOL   H680 4290   0.124   0.180   5.780  1.6804 -1.5015  0.8285
    6MOL   H681 4291   0.195   0.468   5.877 -1.2697  1.2299  1.6343
    6MOL   H682 4292   0.096   0.433   5.740 -0.2538  0.7960  0.7304
    6MOL   H683 4293   0.042   0.374   6.014 -1.2405  1.3537  0.2094
    6MOL   H684 4294   0.289   7.636   5.265  1.6661 -0.9067 -0.9986
    6MOL   H685 4295   0.150   7.531   5.100 -1.1480 -1.0380 -1.2793
    6MOL   C686 4296   7.774   0.378   5.871 -0.1227  0.0523  0.3033
    6MOL   O687 4297   7.746   0.383   5.754 -0.0825 -0.0231 -0.9142
    6MOL   C688 4298   7.668   0.355   5.975 -0.1172  0.2923 -0.2519
    6MOL   C689 4299   7.549   0.288   5.943  0.4211  1.3192  0.2437
    6MOL   C690 4300   7.456   0.257   6.046  0.8079 -0.7398 -0.1662
    6MOL   C691 4301   7.480   0.300   6.175  0.3368  0.6036 -0.7101
    6MOL   C692 4302   7.374   0.292   6.283  0.4870  0.7897 -0.2650
    6MOL   O693 4303   7.341   0.400   6.332 -0.0641  0.1118 -0.7695
    6MOL   N694 4304   7.321   0.172   6.305 -0.4318  0.2730  0.2405
    6MOL   C695 4305   7.202   0.134   6.388 -0.2511  0.2677 -0.3641
    6MOL   C696 4306   7.215   0.164   6.537  0.9959  0.2346 -0.2162
    6MOL   C697 4307   7.336   0.107   6.608 -0.8624 -0.3776  0.4899
    6MOL   C698 4308   7.462   0.201   6.600  0.5387  0.4402 -0.3171
    6MOL   C699 4309   7.567   0.160   6.696  0.9835  0.3968  0.4251
    6MOL   C700 4310   7.705   0.223   6.679  0.2642  0.1916 -0.4042
    6MOL   N701 4311   7.800   0.151   6.760 -0.3118  0.2872  0.5842
    6MOL   C702 4312   7.605   0.359   6.204  0.1581  0.5305 -0.1888
    6MOL   C703 4313   7.694   0.395   6.107  0.4331 -0.0125  0.1032
    6MOL   H704 4314   7.522   0.258   5.843  2.1493  2.2304 -0.5245
    6MOL   H705 4315   7.364   0.210   6.015 -0.4106  0.2343  1.8846
    6MOL   H706 4316   7.375   0.099   6.259  0.7117  0.4070  1.3249
    6MOL   H707 4317   7.109   0.176   6.348 -1.8773 -0.6351  2.3028
    6MOL   H708 4318   7.194   0.027   6.369  2.5143 -0.0529  0.1143
    6MOL   H709 4319   7.125   0.133   6.590  0.3245 -1.6561 -2.4006
    6MOL   H710 4320   7.213   0.271   6.558 -0.0764  0.0324  0.7150
    6MOL   H711 4321   7.315   0.093   6.714 -3.0907 -1.3420 -0.0268
    6MOL   H712 4322   7.370   0.008   6.577 -1.0640 -0.7335  1.4049
    6MOL   H713 4323   7.429   0.304   6.614 -0.8845 -0.3927  3.0378
    6MOL   H714 4324   7.492   0.193   6.496  0.3629 -0.4918 -0.2961
    6MOL   H715 4325   7.577   0.053   6.679  0.2992  0.2600  0.8480
    6MOL   H716 4326   7.526   0.161   6.797 -0.1054  0.5557 -0.0115
    6MOL   H717 4327   7.745   0.219   6.577 -1.2430  1.7299 -1.0717
    6MOL   H718 4328   7.701   0.326   6.716  2.1389 -0.0342  0.4683
    6MOL   H719 4329   7.802   0.182   6.856  0.5042 -0.8786  0.9512
    6MOL   H720 4330   7.632   0.363   6.308 -0.2244  1.7212 -0.1300
    6MOL   H721 4331   7.784   0.434   6.151  0.5179 -1.1972  1.0282
    6MOL   H722 4332   0.005   0.184   6.730 -1.9486  3.1645 -1.4918
    7MOL     C1 4333   6.118   2.526   4.118  0.2198  0.0700 -0.0875
    7MOL     O2 4334   6.074   2.591   4.026 -0.0305 -0.0624  0.0879
    7MOL     C3 4335   6.068   2.389   4.150 -0.3430 -0.0966 -0.0604
    7MOL     C4 4336   6.143   2.311   4.236  0.2503  0.0160  0.5531
    7MOL     C5 4337   6.085   2.190   4.272 -0.6795 -1.0078 -0.8988
    7MOL     C6 4338   5.953   2.154   4.232 -0.4136  0.4699 -0.7965
    7MOL     C7 4339   5.899   2.021   4.279 -0.5418 -0.9353  0.2087
    7MOL     O8 4340   5.861   1.934   4.202  0.1979 -0.3518 -0.2977
    7MOL     N9 4341   5.909   2.003   4.413  0.4271  0.2431 -0.2117
    7MOL    C10 4342   5.838   1.905   4.487  1.1246 -0.1681  0.2322
    7MOL    C11 4343   5.915   1.769   4.496  0.0910 -0.4132  0.1231
    7MOL    C12 4344   6.047   1.771   4.573 -0.1326 -0.3791 -0.2899
    7MOL    C13 4345   6.118   1.643   4.618  0.5106 -0.3908  0.0185
    7MOL    C14 4346   6.231   1.645   4.722  0.1837 -0.3239 -0.2746
    7MOL    C15 4347   6.313   1.509   4.726 -1.0252 -0.5037  0.2459
    7MOL    N16 4348   6.234   1.391   4.736 -0.9620  0.3978  0.3276
    7MOL    C17 4349   5.886   2.231   4.139 -0.2234  0.3289  0.3464
    7MOL    C18 4350   5.943   2.357   4.102 -0.3661  0.5289  0.3867
    7MOL    H19 4351   6.243   2.334   4.270  0.1345  0.8849  0.3190
    7MOL    H20 4352   6.132   2.126   4.344 -0.3148  0.6787  0.3783
    7MOL    H21 4353   5.951   2.080   4.464 -1.0443 -0.6557  2.4560
    7MOL    H22 4354   5.822   1.943   4.588 -1.9768 -1.5557  0.3216
    7MOL    H23 4355   5.741   1.881   4.444  0.6303  3.7914 -1.0021
    7MOL    H24 4356   5.933   1.730   4.396  2.9693  1.7130 -0.2706
    7MOL    H25 4357   5.847   1.706   4.553  0.2086 -0.4175  0.2601
    7MOL    H26 4358   6.112   1.832   4.509  0.2439 -0.8304 -0.3389
    7MOL    H27 4359   6.040   1.831   4.664  2.1375 -0.1097 -0.2627
    7MOL    H28 4360   6.146   1.595   4.524  0.6473 -0.8972  0.3139
    7MOL    H29 4361   6.043   1.574   4.657 -1.1720  1.4192  0.0874
    7MOL    H30 4362   6.181   1.647   4.819  1.5815  0.2301  0.4378
    7MOL    H31 4363   6.302   1.727   4.717  0.1897 -0.1384  2.1383
    7MOL    H32 4364   6.366   1.488   4.634 -1.9838 -0.6170 -0.2911
    7MOL    H33 4365   6.383   1.502   4.810 -0.9137 -2.1271  0.0393
    7MOL    H34 4366   6.137   1.388   4.708 -0.8378 -0.4451 -0.0306
    7MOL    H35 4367   5.788   2.191   4.116  0.2739  0.0227 -1.2779
    7MOL    H36 4368   5.885   2.422   4.039  0.4501  2.1981  1.3420
    7MOL    H37 4369   6.181   2.571   4.194 -1.4647  1.3478  0.5786
    7MOL    C38 4370   6.284   1.270   4.757  0.4227 -0.0009 -0.1535
    7MOL    O39 4371   6.404   1.241   4.777  0.2884 -0.7643  0.1051
    7MOL    C40 4372   6.182   1.159   4.759  0.0060 -0.3466  0.2356
    7MOL    C41 4373   6.049   1.177   4.790 -0.2100  0.4644 -0.4590
    7MOL    C42 4374   5.951   1.075   4.782 -0.2736 -0.8080  0.0404
    7MOL    C43 4375   5.998   0.946   4.753 -0.1255  0.5296  0.0429
    7MOL    C44 4376   5.904   0.829   4.765  0.2771 -0.0258  0.6268
    7MOL    O45 4377   5.946   0.721   4.799  0.8625 -0.1835 -0.3130
    7MOL    N46 4378   5.777   0.850   4.727  0.2609 -0.5549 -0.5718
    7MOL    C47 4379   5.677   0.747   4.733 -0.4725 -0.1425  0.6420
    7MOL    C48 4380   5.541   0.807   4.762  0.6228 -0.2182  0.5077
    7MOL    C49 4381   5.429   0.705   4.755  0.1332 -0.0136  0.3204
    7MOL    C50 4382   5.373   0.671   4.614 -0.0560  0.2676  0.3114
    7MOL    C51 4383   5.280   0.550   4.627  0.3337 -0.5766  0.5419
    7MOL    C52 4384   5.226   0.500   4.486  0.0041 -0.0125 -0.3819
    7MOL    N53 4385   5.331   0.494   4.384 -0.0167  0.5089  0.0817
    7MOL    C54 4386   6.133   0.919   4.734  0.5494  0.3015  0.0558
    7MOL    C55 4387   6.228   1.026   4.733  0.3935 -0.2571 -0.3617
    7MOL    H56 4388   6.014   1.278   4.807  0.8164  0.7405  0.0497
    7MOL    H57 4389   5.851   1.096   4.817 -0.8930 -2.4807 -0.6628
    7MOL    H58 4390   5.761   0.935   4.675  3.3351  0.7791  0.5795
    7MOL    H59 4391   5.659   0.707   4.633 -1.7051 -0.5322  1.0072
    7MOL    H60 4392   5.692   0.669   4.807 -1.6521 -0.2683  0.7586
    7MOL    H61 4393   5.519   0.895   4.701 -0.0734 -0.5440  0.2785
    7MOL    H62 4394   5.550   0.845   4.864  1.7235 -0.3712  0.4737
    7MOL    H63 4395   5.471   0.617   4.803  0.1632  0.0624  0.4326
    7MOL    H64 4396   5.345   0.726   4.822  0.0308  2.5904 -0.5464
    7MOL    H65 4397   5.461   0.651   4.552  0.6012 -0.7296  1.5398
    7MOL    H66 4398   5.328   0.762   4.576 -1.5935 -1.1838 -1.4963
    7MOL    H67 4399   5.206   0.552   4.707 -0.0633  2.2197  0.1654
    7MOL    H68 4400   5.338   0.465   4.663  2.5154  0.7066  0.1625
    7MOL    H69 4401   5.186   0.399   4.491 -1.6072  0.5895 -0.8887
    7MOL    H70 4402   5.147   0.560   4.441  2.3074  3.4816 -0.0509
    7MOL    H71 4403   5.306   0.532   4.294  0.9065 -1.1233 -0.8781
    7MOL    H72 4404   6.156   0.814   4.727  0.0705  0.2348 -0.5259
    7MOL    H73 4405   6.334   1.009   4.719  0.4798  0.3216 -0.4496
    7MOL    C74 4406   5.436   0.412   4.384 -0.1738  0.4419  0.8568
    7MOL    O75 4407   5.491   0.368   4.484  0.1756 -0.4713  0.4402
    7MOL    C76 4408   5.489   0.371   4.245 -0.0123 -0.1694 -0.7558
    7MOL    C77 4409   5.404   0.324   4.145  0.1799  0.0389 -0.2462
    7MOL    C78 4410   5.450   0.276   4.023  0.4313 -0.3662  0.3957
    7MOL    C79 4411   5.595   0.279   3.997  0.2802 -0.1380 -0.1161
    7MOL    C80 4412   5.651   0.217   3.868  0.7683 -0.2288 -0.1191
    7MOL    O81 4413   5.769   0.191   3.857  0.0924  0.0034  0.0556
    7MOL    N82 4414   5.553   0.179   3.772 -0.1540 -0.1902 -0.5648
    7MOL    C83 4415   5.586   0.115   3.650 -0.3900  0.4653 -0.3853
    7MOL    C84 4416   5.490   0.154   3.533  0.6579 -0.5211  0.0125
    7MOL    C85 4417   5.521   0.069   3.410 -0.0376 -0.1905  0.6336
    7MOL    C86 4418   5.427   0.100   3.286 -0.3991  0.1951  0.0192
    7MOL    C87 4419   5.445   7.884   3.177  0.4553 -0.6235 -0.6977
    7MOL    C88 4420   5.580   0.003   3.101  0.1967  0.2710 -0.0185
    7MOL    N89 4421   5.576   7.771   3.019 -0.1351 -0.2186 -0.4064
    7MOL    C90 4422   5.682   0.322   4.097  0.0256  0.4040  0.2964
    7MOL    C91 4423   5.631   0.363   4.221 -0.7738 -0.5023  0.6382
    7MOL    H92 4424   5.298   0.333   4.163  0.0596 -0.7943 -0.5412
    7MOL    H93 4425   5.381   0.234   3.952  0.3887  0.0092  0.2185
    7MOL    H94 4426   5.461   0.191   3.811 -0.2810  0.7079 -1.1281
    7MOL    H95 4427   5.688   0.130   3.616  1.0325 -3.1580  1.9624
    7MOL    H96 4428   5.569   0.007   3.658  0.5451  0.3728  0.3746
    7MOL    H97 4429   5.489   0.263   3.523  0.1947 -0.4743  0.4925
    7MOL    H98 4430   5.387   0.131   3.561 -0.0911 -0.5483 -2.6625
    7MOL    H99 4431   5.621   0.081   3.370 -0.8609  1.5534 -0.9542
    7MOL   H100 4432   5.506   7.850   3.434 -2.1127 -0.4224 -1.4986
    7MOL   H101 4433   5.452   0.194   3.238 -1.1540  1.4037  1.9295
    7MOL   H102 4434   5.323   0.109   3.318  0.0296  2.7053  0.7990
    7MOL   H103 4435   5.361   0.020   3.111 -0.6342  3.0655  1.7719
    7MOL   H104 4436   5.433   7.785   3.221  1.6444 -0.6476 -0.4254
    7MOL   H105 4437   5.588   0.089   3.035  1.1856 -0.7720 -1.2703
    7MOL   H106 4438   5.673   0.008   3.158 -0.1214  2.1023  0.3696
    7MOL   H107 4439   5.484   7.731   3.001 -0.5264  0.0433  1.0006
    7MOL   H108 4440   5.789   0.319   4.079  0.5976 -0.3533  3.4027
    7MOL   H109 4441   5.696   0.375   4.307 -2.7647 -1.6572  2.3205
    7MOL   C110 4442   5.675   7.702   2.958 -0.1918  0.6140 -0.4990
    7MOL   O111 4443   5.793   7.743   2.947 -0.0469 -0.0911  0.4684
    7MOL   C112 4444   5.629   7.571   2.905 -0.9222  0.9088 -0.0271
    7MOL   C113 4445   5.726   7.476   2.873  0.5215 -0.4575  0.3318
    7MOL   C114 4446   5.694   7.352   2.818  0.2956 -0.4401 -0.0271
    7MOL   C115 4447   5.555   7.323   2.801  0.1915 -0.3942 -1.3804
    7MOL   C116 4448   5.512   7.187   2.746  0.4181 -0.1006 -0.0275
    7MOL   O117 4449   5.394   7.155   2.732  0.4749  0.4985  0.3926
    7MOL   N118 4450   5.602   7.102   2.706 -0.1713 -0.8403  0.6421
    7MOL   C119 4451   5.577   6.988   2.615  1.0714 -0.4086  1.1009
    7MOL   C120 4452   5.695   6.968   2.509  0.2922 -0.3759 -0.6803
    7MOL   C121 4453   5.670   6.853   2.404  0.0438  1.3735  0.1833
    7MOL   C122 4454   5.681   6.716   2.475 -0.2706  0.0925 -1.0007
    7MOL   C123 4455   5.618   6.597   2.397  0.1022  0.8061 -0.0805
    7MOL   C124 4456   5.623   6.461   2.467 -1.0184 -0.1450  0.5726
    7MOL   N125 4457   5.533   6.361   2.415  0.2215  0.1270 -0.2980
    7MOL   C126 4458   5.463   7.419   2.845  0.0464  0.7254 -0.3462
    7MOL   C127 4459   5.497   7.541   2.899  0.1430 -0.2306  0.4520
    7MOL   H128 4460   5.831   7.498   2.887 -0.2027  2.1344  1.9540
    7MOL   H129 4461   5.772   7.280   2.800  0.9016  0.2785 -0.2895
    7MOL   H130 4462   5.698   7.132   2.719 -0.9648  1.2218  2.1754
    7MOL   H131 4463   5.566   6.908   2.688  0.7386  1.4868  3.1684
    7MOL   H132 4464   5.488   7.009   2.556  1.7393 -1.2731 -0.2571
    7MOL   H133 4465   5.788   6.939   2.557  0.1608  2.1551  1.2071
    7MOL   H134 4466   5.717   7.057   2.449  1.2480  0.3999  0.8051
    7MOL   H135 4467   5.571   6.857   2.359 -0.4533  2.0434  1.3113
    7MOL   H136 4468   5.751   6.857   2.331  0.9601  3.4857  1.2845
    7MOL   H137 4469   5.621   6.728   2.565 -0.4310  2.9674 -1.4388
    7MOL   H138 4470   5.787   6.694   2.491 -0.4796 -0.9634 -1.0445
    7MOL   H139 4471   5.659   6.603   2.296  0.1377 -0.1057 -0.1257
    7MOL   H140 4472   5.513   6.625   2.386 -0.6737 -2.3242 -1.0426
    7MOL   H141 4473   5.721   6.416   2.484 -0.2068  0.9383 -1.0669
    7MOL   H142 4474   5.594   6.469   2.572  0.9732  0.9494  1.0787
    7MOL   H143 4475   5.556   6.320   2.326 -0.5728 -2.8849  0.7969
    7MOL   H144 4476   5.358   7.396   2.828 -0.0896  1.4030 -0.4262
    7MOL   H145 4477   5.412   7.607   2.913  0.7347  0.7888 -0.6867
    7MOL   C146 4478   5.414   6.321   2.461 -0.5209 -0.3196  0.2163
    7MOL   O147 4479   5.354   6.364   2.559  0.5211 -1.2266  0.2687
    7MOL   C148 4480   5.337   6.244   2.359  1.0010  0.3460 -0.2583
    7MOL   C149 4481   5.387   6.123   2.303  0.3323  0.5162  0.2391
    7MOL   C150 4482   5.315   6.062   2.193 -1.0141  0.1216 -0.9993
    7MOL   C151 4483   5.193   6.113   2.148 -0.1749  0.0942  0.1713
    7MOL   C152 4484   5.115   6.040   2.047  0.4903  0.2287 -0.3420
    7MOL   O153 4485   5.176   5.989   1.951  0.0335 -0.0425 -0.3250
    7MOL   N154 4486   4.982   6.042   2.062  0.4826  0.2043  1.0842
    7MOL   C155 4487   4.890   6.021   1.960  0.4990 -0.1660 -0.8504
    7MOL   C156 4488   4.880   6.126   1.854  0.0381 -0.6834 -0.2316
    7MOL   C157 4489   4.838   6.267   1.909  0.0702  0.7799  0.1626
    7MOL   C158 4490   4.963   6.358   1.909 -0.3274  0.1738 -0.2029
    7MOL   C159 4491   4.953   6.473   2.009  0.6331  0.6478  0.2218
    7MOL   C160 4492   5.084   6.555   2.037  0.4294 -0.1981  0.2811
    7MOL   N161 4493   5.066   6.643   2.152 -0.0386  0.1091  0.3741
    7MOL   C162 4494   5.145   6.232   2.199 -0.2513  0.0558 -0.0538
    7MOL   C163 4495   5.212   6.296   2.308  0.3619 -0.2184  0.3560
    7MOL   H164 4496   5.469   6.067   2.344  2.4848  1.7693 -2.2219
    7MOL   H165 4497   5.354   5.964   2.167 -1.6417 -0.3495 -0.2029
    7MOL   H166 4498   4.955   6.082   2.150 -3.1908 -0.3646  0.2954
    7MOL   H167 4499   4.907   5.917   1.932  2.6349 -0.3490  0.9585
    7MOL   H168 4500   4.792   6.021   2.008  1.9302  1.6961  2.2175
    7MOL   H169 4501   4.796   6.107   1.787  1.1856 -0.3264 -1.8202
    7MOL   H170 4502   4.973   6.136   1.797  0.2689 -1.3412  0.0235
    7MOL   H171 4503   4.753   6.312   1.857 -1.7765 -0.1961  2.2403
    7MOL   H172 4504   4.802   6.266   2.011  3.1514  0.1034  1.3002
    7MOL   H173 4505   4.993   6.388   1.809  1.7869 -0.4082  0.2368
    7MOL   H174 4506   5.047   6.296   1.940 -0.7787  0.5205  1.7821
    7MOL   H175 4507   4.927   6.423   2.102  2.4315 -1.4573 -0.3706
    7MOL   H176 4508   4.873   6.543   1.983  1.0216  1.1264  0.3220
    7MOL   H177 4509   5.159   6.479   2.059  0.6563 -0.5429 -1.5666
    7MOL   H178 4510   5.125   6.601   1.947 -2.0576  0.0035 -0.7808
    7MOL   H179 4511   4.986   6.704   2.153  1.9809  2.8809 -0.0472
    7MOL   H180 4512   5.058   6.271   2.148  0.2413  1.3465  0.0667
    7MOL   H181 4513   5.177   6.392   2.343  0.7885  0.5474 -1.2683
    7MOL   C182 4514   5.159   6.661   2.245  0.4419  0.1873  0.1317
    7MOL   O183 4515   5.278   6.628   2.239 -0.6677  0.1649 -0.7458
    7MOL   C184 4516   5.115   6.736   2.361  0.2368  1.0200 -0.4488
    7MOL   C185 4517   5.209   6.821   2.429 -0.0428  0.2071 -0.3745
    7MOL   C186 4518   5.173   6.909   2.529 -0.8309  0.1275  0.5759
    7MOL   C187 4519   5.046   6.905   2.588  0.1283 -0.2532 -0.4754
    7MOL   C188 4520   5.007   7.006   2.700  0.6850  0.0591  0.8943
    7MOL   O189 4521   4.891   7.031   2.724  0.5297 -0.0213 -0.4789
    7MOL   N190 4522   5.108   7.052   2.772  0.2200 -0.5505 -0.3162
    7MOL   C191 4523   5.086   7.172   2.857 -0.1859  0.0152  0.2759
    7MOL   C192 4524   5.141   7.147   3.004  0.4054  0.1632  0.2250
    7MOL   C193 4525   5.108   7.262   3.102 -0.5078  0.1110 -0.4538
    7MOL   C194 4526   5.141   7.219   3.243  0.3434  0.7296 -0.6751
    7MOL   C195 4527   5.112   7.337   3.339  0.3670  0.3333 -0.3092
    7MOL   C196 4528   5.170   7.474   3.311  0.1955 -0.0280 -0.4947
    7MOL   N197 4529   5.312   7.462   3.286 -0.4447 -0.1926  0.6797
    7MOL   C198 4530   4.954   6.812   2.534 -0.4264 -0.2076  0.3944
    7MOL   C199 4531   4.988   6.731   2.419 -0.3809 -0.6391  0.5820
    7MOL   H200 4532   5.309   6.829   2.387  0.1526 -1.4920 -0.2504
    7MOL   H201 4533   5.250   6.979   2.558  0.0699 -0.6380  0.0617
    7MOL   H202 4534   5.203   7.030   2.745  0.3626  0.6550 -0.8421
    7MOL   H203 4535   5.144   7.259   2.827 -2.7124  1.0051 -1.8865
    7MOL   H204 4536   4.985   7.211   2.857 -0.5344 -0.8407 -0.6757
    7MOL   H205 4537   5.248   7.129   3.003  0.7567  2.0798  1.1415
    7MOL   H206 4538   5.098   7.055   3.045  2.7019 -1.0100  0.0570
    7MOL   H207 4539   5.151   7.361   3.083 -0.9175  0.0149 -1.9259
    7MOL   H208 4540   5.001   7.283   3.092 -1.0249 -1.7963  0.8952
    7MOL   H209 4541   5.245   7.193   3.263  0.1400  1.2019  1.1028
    7MOL   H210 4542   5.072   7.140   3.273  0.7402  1.4999  2.4786
    7MOL   H211 4543   5.146   7.310   3.439 -1.0353 -0.7269 -0.0972
    7MOL   H212 4544   5.005   7.353   3.355  0.5851  1.4276  0.0905
    7MOL   H213 4545   5.103   7.532   3.247  0.4704  0.9863  0.1252
    7MOL   H214 4546   5.169   7.522   3.408  0.1543 -0.0015 -0.5084
    7MOL   H215 4547   5.328   7.421   3.195 -0.4840 -0.0803  0.6216
    7MOL   H216 4548   4.855   6.805   2.578 -0.3056  1.4245  0.9416
    7MOL   H217 4549   4.913   6.664   2.378 -0.4251 -0.0297 -0.3535
    7MOL   C218 4550   5.415   7.503   3.361 -0.2735 -0.0501  0.2994
    7MOL   O219 4551   5.398   7.548   3.474 -0.0792  0.5467 -0.2245
    7MOL   C220 4552   5.557   7.481   3.303  0.2284  0.1586 -0.1913
    7MOL   C221 4553   5.583   7.373   3.214  0.2983 -0.1775  0.3703
    7MOL   C222 4554   5.717   7.346   3.175  0.2225 -0.5982 -0.1095
    7MOL   C223 4555   5.827   7.432   3.213 -0.5350 -0.1069 -0.8943
    7MOL   C224 4556   5.959   7.424   3.152 -0.0582  0.9768 -0.4703
    7MOL   O225 4557   6.016   7.317   3.120 -0.2884  0.5982  0.1417
    7MOL   N226 4558   6.009   7.546   3.138 -0.5808 -0.7549 -0.0196
    7MOL   C227 4559   6.142   7.565   3.077  0.3481 -0.1350 -0.3763
    7MOL   C228 4560   6.153   7.557   2.922 -0.0831  0.0456  0.0165
    7MOL   C229 4561   6.292   7.589   2.889 -0.3227  0.0376 -0.0016
    7MOL   C230 4562   6.380   7.465   2.890 -0.0641 -0.4422  0.7764
    7MOL   C231 4563   6.529   7.499   2.876 -0.0315  0.1310  0.3625
    7MOL   C232 4564   6.626   7.382   2.843  0.2465  0.6581 -0.1933
    7MOL   N233 4565   6.628   7.359   2.701 -0.0832 -0.1299  0.1537
    7MOL   C234 4566   5.796   7.537   3.304 -0.7884  0.3734  0.6763
    7MOL   C235 4567   5.664   7.568   3.339  0.1429  0.2195  0.0232
    7MOL   H236 4568   5.503   7.303   3.192  0.5262 -0.3433  0.0745
    7MOL   H237 4569   5.745   7.267   3.107 -1.2363 -0.9070 -0.3637
    7MOL   H238 4570   5.954   7.622   3.174  1.7056  0.6262  0.6542
    7MOL   H239 4571   6.169   7.668   3.100 -0.6359 -0.0061  0.2389
    7MOL   H240 4572   6.205   7.491   3.126  0.8334  0.9508  0.6856
    7MOL   H241 4573   6.084   7.620   2.866 -0.1979  1.2689  1.4789
    7MOL   H242 4574   6.139   7.454   2.890  0.0364  0.3309 -0.9495
    7MOL   H243 4575   6.300   7.639   2.792 -0.0510 -0.7955 -0.4188
    7MOL   H244 4576   6.336   7.658   2.961  2.4700 -0.6439 -0.9634
    7MOL   H245 4577   6.356   7.404   2.803  1.9060 -0.2928  0.1063
    7MOL   H246 4578   6.359   7.391   2.967 -0.2543 -2.8655 -1.5390
    7MOL   H247 4579   6.553   7.540   2.974  0.6151  0.9990 -0.1539
    7MOL   H248 4580   6.544   7.579   2.803 -1.3535 -1.3564 -1.5761
    7MOL   H249 4581   6.726   7.416   2.868  1.6586 -1.7223 -2.4202
    7MOL   H250 4582   6.605   7.292   2.900  2.5053 -1.5662 -2.7400
    7MOL   H251 4583   6.699   7.410   2.651  0.5984 -0.8005  0.4269
    7MOL   H252 4584   5.876   7.605   3.330  0.5769 -0.0592 -2.1340
    7MOL   H253 4585   5.633   7.653   3.398  0.8345 -0.3411  1.2141
    7MOL   C254 4586   6.540   7.288   2.634 -0.5781  0.7287  0.2651
    7MOL   O255 4587   6.454   7.219   2.693 -0.0227  0.3115  0.3091
    7MOL   C256 4588   6.536   7.286   2.485 -0.8209  0.7932  0.0757
    7MOL   C257 4589   6.516   7.168   2.423 -0.3838  0.4080 -0.0309
    7MOL   C258 4590   6.521   7.167   2.281  0.5534  0.1124 -0.4997
    7MOL   C259 4591   6.508   7.284   2.207 -0.4597  0.0894  0.9560
    7MOL   C260 4592   6.489   7.278   2.053 -0.3693  0.3256  0.6932
    7MOL   O261 4593   6.538   7.186   1.986  0.1669  0.0098 -0.1281
    7MOL   N262 4594   6.419   7.379   1.996  0.1763 -0.5389  0.1144
    7MOL   C263 4595   6.384   7.387   1.854  0.2290  0.0391  0.4782
    7MOL   C264 4596   6.331   7.530   1.815 -0.5275  0.3422  0.2083
    7MOL   C265 4597   6.288   7.555   1.665 -0.1310 -0.6572  0.0778
    7MOL   C266 4598   6.195   7.442   1.618  0.5762  0.1372  0.5401
    7MOL   C267 4599   6.063   7.413   1.690 -0.2289  0.0909 -0.0306
    7MOL   C268 4600   5.971   7.326   1.614  0.5144  0.5531  0.0867
    7MOL   N269 4601   5.904   7.393   1.503 -0.7180  0.1101 -0.9174
    7MOL   C270 4602   6.531   7.405   2.272 -0.2114  0.2605 -0.2633
    7MOL   C271 4603   6.547   7.407   2.413 -0.1206  0.6826  0.8342
    7MOL   H272 4604   6.519   7.075   2.477 -0.1513  0.8566  0.7357
    7MOL   H273 4605   6.508   7.072   2.230  0.0548 -0.5885  0.9196
    7MOL   H274 4606   6.379   7.450   2.057 -1.3986 -0.4471 -1.0070
    7MOL   H275 4607   6.469   7.353   1.794 -1.9396 -2.3264 -1.3947
    7MOL   H276 4608   6.302   7.316   1.839 -0.4812  1.3566 -2.2451
    7MOL   H277 4609   6.404   7.604   1.847  1.0241 -0.8216 -0.5285
    7MOL   H278 4610   6.241   7.543   1.876 -0.2406  0.6328  0.5752
    7MOL   H279 4611   6.237   7.651   1.661 -0.1548 -0.6136  1.3960
    7MOL   H280 4612   6.377   7.568   1.603 -0.0926  0.5843  0.3894
    7MOL   H281 4613   6.244   7.347   1.600  0.0501  0.0041 -0.1914
    7MOL   H282 4614   6.161   7.463   1.517 -3.2893  2.6792  2.2441
    7MOL   H283 4615   6.010   7.507   1.704  1.1491  1.1600 -1.7371
    7MOL   H284 4616   6.082   7.371   1.789 -0.6468  0.4931  0.2221
    7MOL   H285 4617   6.027   7.240   1.576 -1.6859 -1.2221  0.7854
    7MOL   H286 4618   5.901   7.279   1.683  1.0321  1.0960  0.9919
    7MOL   H287 4619   5.954   7.399   1.415 -1.2044  0.7745 -1.1504
    7MOL   H288 4620   6.537   7.495   2.212  2.9836  0.9330  0.9597
    7MOL   H289 4621   6.558   7.502   2.462 -1.7522  1.3654 -0.0765
    7MOL   C290 4622   5.795   7.467   1.524 -0.0994  0.0062 -0.0280
    7MOL   O291 4623   5.723   7.452   1.621  0.0482 -0.1205 -0.4021
    7MOL   C292 4624   5.742   7.558   1.416  0.3983 -0.3224  0.3587
    7MOL   C293 4625   5.832   7.613   1.323 -0.6031 -0.2301 -0.2467
    7MOL   C294 4626   5.790   7.716   1.242 -0.4649  0.2753 -0.3174
    7MOL   C295 4627   5.660   7.757   1.245  0.4114 -1.1641  0.2763
    7MOL   C296 4628   5.618   7.869   1.157  0.9401  0.6382 -0.3030
    7MOL   O297 4629   5.696   0.060   1.105 -0.3927 -0.0227  0.1290
    7MOL   N298 4630   5.490   7.881   1.144 -0.4182  0.1918 -0.5138
    7MOL   C299 4631   5.416   0.096   1.066  0.0180 -0.3707  0.2827
    7MOL   C300 4632   5.280   0.131   1.121  0.0184  0.5370 -1.0029
    7MOL   C301 4633   5.192   0.209   1.031 -0.0370  0.8457  0.7121
    7MOL   C302 4634   5.049   0.215   1.078 -0.1027  0.1355  0.0445
    7MOL   C303 4635   4.958   0.300   0.987  0.2540 -0.4136 -0.1986
    7MOL   C304 4636   5.013   0.433   0.941 -0.3322 -0.3817 -0.1908
    7MOL   N305 4637   5.048   0.516   1.057 -0.2259 -0.5019  0.4959
    7MOL   C306 4638   5.564   7.699   1.331  0.6428  0.0858 -0.0697
    7MOL   C307 4639   5.607   7.598   1.415  0.6902  0.7098 -0.1791
    7MOL   H308 4640   5.938   7.596   1.316 -0.5697 -0.0550 -0.1490
    7MOL   H309 4641   5.855   7.768   1.173 -1.5674 -0.0605 -1.6439
    7MOL   H310 4642   5.426   7.828   1.203 -0.8748  1.5458  0.2284
    7MOL   H311 4643   5.473   0.186   1.043  0.3687  0.4132  3.8924
    7MOL   H312 4644   5.391   0.050   0.971 -0.2684  3.0757 -1.4207
    7MOL   H313 4645   5.292   0.191   1.212 -0.0583 -0.1615 -0.5318
    7MOL   H314 4646   5.232   0.035   1.138 -3.1653  2.3314  0.4431
    7MOL   H315 4647   5.241   0.307   1.033  2.7087 -0.4128 -1.1475
    7MOL   H316 4648   5.199   0.173   0.928  1.8132  1.3059  0.6580
    7MOL   H317 4649   5.056   0.259   1.177 -0.3525  0.5572 -0.1272
    7MOL   H318 4650   4.995   0.124   1.106  0.8526 -0.3282  0.4234
    7MOL   H319 4651   4.855   0.317   1.021 -0.1336  1.6056 -2.2677
    7MOL   H320 4652   4.943   0.246   0.894  2.5543 -0.9417 -0.2948
    7MOL   H321 4653   5.101   0.424   0.877 -0.1483 -1.7999  0.2438
    7MOL   H322 4654   4.934   0.469   0.875  0.7429  1.4023 -0.5446
    7MOL   H323 4655   5.004   0.492   1.145 -1.8584  0.5472 -0.0006
    7MOL   H324 4656   5.461   7.730   1.339 -0.0615 -1.9507 -1.0702
    7MOL   H325 4657   5.539   7.565   1.492  0.7680 -2.5764 -1.4426
    7MOL   C326 4658   5.152   0.604   1.051 -0.1394 -0.3056 -0.3573
    7MOL   O327 4659   5.187   0.648   0.942  0.5900 -0.2801  0.0847
    7MOL   C328 4660   5.210   0.651   1.177  0.4791 -0.1091  0.5491
    7MOL   C329 4661   5.202   0.575   1.297  0.2764 -0.0179 -0.8479
    7MOL   C330 4662   5.250   0.628   1.421  0.1850 -0.1311 -0.1423
    7MOL   C331 4663   5.316   0.753   1.423 -0.2255 -0.0120 -0.5125
    7MOL   C332 4664   5.379   0.802   1.552 -0.1289 -0.4352  0.5384
    7MOL   O333 4665   5.365   0.734   1.653 -0.2447 -0.3300 -0.0134
    7MOL   N334 4666   5.451   0.916   1.546 -0.2944  0.7356 -0.2134
    7MOL   C335 4667   5.476   0.990   1.671 -0.3358 -0.1799 -0.1961
    7MOL   C336 4668   5.353   1.039   1.749  0.5227  0.4810  0.8731
    7MOL   C337 4669   5.381   1.156   1.848  0.6155  0.2308 -0.0837
    7MOL   C338 4670   5.242   1.223   1.868  0.3557  0.3731  1.3585
    7MOL   C339 4671   5.228   1.309   1.993  0.3050 -0.5943 -0.5324
    7MOL   C340 4672   5.075   1.338   2.015  0.2873 -0.6259  0.3618
    7MOL   N341 4673   5.062   1.433   2.118  0.2745  0.4332  0.4774
    7MOL   C342 4674   5.330   0.828   1.300  0.8375 -0.1993  0.7263
    7MOL   C343 4675   5.274   0.778   1.184  0.0246 -0.0694  0.3133
    7MOL   H344 4676   5.162   0.475   1.297 -2.6529  1.0990  1.4521
    7MOL   H345 4677   5.230   0.580   1.515  0.4812 -1.0442 -0.5402
    7MOL   H346 4678   5.467   0.949   1.452 -1.3113 -0.3751 -0.7917
    7MOL   H347 4679   5.526   0.917   1.735 -0.7144 -0.0472  0.2546
    7MOL   H348 4680   5.546   1.067   1.640  0.9524 -0.8890  0.9034
    7MOL   H349 4681   5.315   0.955   1.807  2.0237 -0.3200  0.7121
    7MOL   H350 4682   5.284   1.073   1.671  1.8371 -0.9574 -0.9287
    7MOL   H351 4683   5.412   1.131   1.949 -0.8542 -0.3180  0.2480
    7MOL   H352 4684   5.449   1.232   1.810  1.0388 -0.6152 -1.0380
    7MOL   H353 4685   5.161   1.150   1.868 -0.4497  1.2335  0.2839
    7MOL   H354 4686   5.231   1.286   1.779 -2.1393 -3.6292 -1.3630
    7MOL   H355 4687   5.283   1.402   1.985  0.1010 -0.0142  3.4351
    7MOL   H356 4688   5.264   1.258   2.083 -0.4470  1.1315  0.7665
    7MOL   H357 4689   5.033   1.377   1.923  1.0888 -0.2534  0.1461
    7MOL   H358 4690   5.015   1.250   2.040 -1.4775  0.6936  0.8503
    7MOL   H359 4691   5.087   1.526   2.089 -1.3130  1.3771  2.0962
    7MOL   H360 4692   5.383   0.921   1.289 -1.9041  1.4423  0.9817
    7MOL   H361 4693   5.289   0.830   1.090  0.5319  0.1296  0.5021
    7MOL   C362 4694   5.021   1.409   2.242  0.7655  0.4336  0.0309
    7MOL   O363 4695   4.977   1.295   2.273 -0.0914  0.2482 -0.5439
    7MOL   C364 4696   5.035   1.518   2.349 -0.2071  0.5981 -0.7605
    7MOL   C365 4697   5.009   1.484   2.485 -1.0181  0.4982  0.6891
    7MOL   C366 4698   5.034   1.577   2.585  0.1640  0.6157  0.2057
    7MOL   C367 4699   5.073   1.712   2.555  0.7680  0.5278  0.2936
    7MOL   C368 4700   5.088   1.819   2.662  0.1633  0.0309  0.5109
    7MOL   O369 4701   5.065   1.935   2.640 -0.1435 -0.1968 -0.9740
    7MOL   N370 4702   5.123   1.775   2.781 -0.2368 -0.9575  0.5330
    7MOL   C371 4703   5.144   1.839   2.906  0.3308  0.0924 -0.0052
    7MOL   C372 4704   5.156   1.730   3.010 -0.1773 -0.3230 -0.0880
    7MOL   C373 4705   5.152   1.767   3.160 -1.1376  0.4380  0.7081
    7MOL   C374 4706   5.123   1.659   3.266  0.4216  0.2717 -0.7773
    7MOL   C375 4707   5.116   1.722   3.407  0.4568  0.3434  1.0669
    7MOL   C376 4708   5.098   1.620   3.517  0.4177 -0.7683  0.2896
    7MOL   N377 4709   4.971   1.546   3.498 -0.4834  0.0872 -0.3071
    7MOL   C378 4710   5.079   1.750   2.418  0.0871  0.6661  0.4807
    7MOL   C379 4711   5.065   1.652   2.316  0.0060  0.2757 -0.2069
    7MOL   H380 4712   4.987   1.382   2.512 -2.4800  0.4195 -0.6865
    7MOL   H381 4713   5.009   1.553   2.688 -1.4045 -1.9976 -0.7569
    7MOL   H382 4714   5.121   1.674   2.775 -0.2564 -1.0285  1.5131
    7MOL   H383 4715   5.227   1.910   2.908  1.2222 -0.9103 -0.6646
    7MOL   H384 4716   5.061   1.907   2.927  0.1810 -0.6099  1.7324
    7MOL   H385 4717   5.238   1.662   2.987  0.8543  0.3267  1.5942
    7MOL   H386 4718   5.073   1.660   2.996 -0.4614 -0.0395  0.1660
    7MOL   H387 4719   5.241   1.824   3.187 -0.2394 -1.7318  2.5295
    7MOL   H388 4720   5.073   1.839   3.179 -0.6518  1.6976 -1.8268
    7MOL   H389 4721   5.208   1.591   3.262  1.8859  1.9163  1.0987
    7MOL   H390 4722   5.031   1.609   3.236 -2.2489  3.5583  1.5369
    7MOL   H391 4723   5.039   1.798   3.398 -0.9529 -1.2885 -1.0887
    7MOL   H392 4724   5.213   1.771   3.422  0.4896  0.5814  0.1034
    7MOL   H393 4725   5.186   1.555   3.524  2.8107  2.4578  0.9758
    7MOL   H394 4726   5.102   1.682   3.606  1.5685 -1.0685  0.4580
    7MOL   H395 4727   4.964   1.511   3.404 -0.5993 -1.0613  0.1202
    7MOL   H396 4728   5.087   1.853   2.388 -1.6039  1.0298  1.2246
    7MOL   H397 4729   5.087   1.672   2.212 -0.7087  0.7787 -0.2642
    7MOL   C398 4730   4.869   1.536   3.579  0.3727 -0.3210 -0.1107
    7MOL   O399 4731   4.860   1.615   3.677 -0.0893 -0.6103  0.3872
    7MOL   C400 4732   4.751   1.452   3.535 -0.3114  0.2193  0.7893
    7MOL   C401 4733   4.620   1.495   3.566  0.5147 -0.1670  0.5743
    7MOL   C402 4734   4.505   1.418   3.527 -0.3718  0.7207  0.5959
    7MOL   C403 4735   4.528   1.299   3.457  0.6215 -0.2629  0.0825
    7MOL   C404 4736   4.414   1.213   3.421 -0.0107 -0.2461  0.4255
    7MOL   O405 4737   4.318   1.258   3.365  0.2656  0.2572 -0.2099
    7MOL   N406 4738   4.423   1.091   3.472  0.1758 -0.2929 -0.2594
    7MOL   C407 4739   4.338   0.976   3.447 -0.5119  0.6072 -0.8650
    7MOL   C408 4740   4.354   0.942   3.298 -0.7788  0.0182 -0.3903
    7MOL   C409 4741   4.279   0.812   3.263  0.3460  0.5710  0.3791
    7MOL   C410 4742   4.295   0.789   3.109  0.0867 -0.2886  0.4621
    7MOL   C411 4743   4.222   0.658   3.052  0.0012 -0.4773  0.2688
    7MOL   C412 4744   4.234   0.623   2.898  0.5029  0.0797 -0.1816
    7MOL   N413 4745   4.234   0.738   2.802  0.2623  0.0782  0.1348
    7MOL   C414 4746   4.658   1.261   3.427  0.2720 -0.8344 -0.1368
    7MOL   C415 4747   4.773   1.335   3.461  0.0044 -0.4576  0.1630
    7MOL   H416 4748   4.610   1.592   3.612  0.7335 -0.4188  1.1646
    7MOL   H417 4749   4.404   1.449   3.547 -0.9706 -0.2819 -0.8384
    7MOL   H418 4750   4.510   1.067   3.517  0.0953  0.1614  0.1436
    7MOL   H419 4751   4.379   0.900   3.514 -1.1047  0.1356 -1.0380
    7MOL   H420 4752   4.236   1.004   3.471 -1.5931 -1.2580 -3.0834
    7MOL   H421 4753   4.458   0.928   3.268 -0.9560 -1.4865 -0.3471
    7MOL   H422 4754   4.331   1.033   3.243  0.3460  0.1312 -0.6937
    7MOL   H423 4755   4.329   0.726   3.307 -0.5961 -0.2119 -0.0815
    7MOL   H424 4756   4.177   0.828   3.296  0.4089 -0.0441  0.8764
    7MOL   H425 4757   4.402   0.785   3.092  0.1360 -0.5790  0.8375
    7MOL   H426 4758   4.263   0.877   3.052 -0.8948  0.5567  2.2819
    7MOL   H427 4759   4.118   0.684   3.071 -0.3032 -1.7035  0.2937
    7MOL   H428 4760   4.239   0.571   3.115 -0.7213  0.5384  1.9174
    7MOL   H429 4761   4.319   0.557   2.879 -1.0621 -2.4091  1.2204
    7MOL   H430 4762   4.162   0.545   2.873  0.0897  0.6076 -0.6406
    7MOL   H431 4763   4.309   0.739   2.734 -0.6123  0.7311 -0.8311
    7MOL   H432 4764   4.668   1.164   3.379 -2.8027 -1.6722  0.8267
    7MOL   H433 4765   4.871   1.312   3.424 -0.6840  0.0115 -2.0434
    7MOL   C434 4766   4.138   0.829   2.771 -0.4856  0.0780 -0.9323
    7MOL   O435 4767   4.029   0.838   2.828 -0.0161 -0.7100  0.3190
    7MOL   C436 4768   4.171   0.906   2.646 -0.0681 -0.1518  0.5420
    7MOL   C437 4769   4.299   0.920   2.590  0.7735  0.2094  0.6722
    7MOL   C438 4770   4.311   0.980   2.465  0.0592 -0.0358 -0.2249
    7MOL   C439 4771   4.205   1.053   2.397 -0.4889  0.5836 -1.3499
    7MOL   C440 4772   4.226   1.125   2.267 -0.1133  0.2339 -0.6561
    7MOL   O441 4773   4.320   1.084   2.204 -0.0223  0.4413  0.5380
    7MOL   N442 4774   4.145   1.228   2.228 -0.1723 -0.2938 -0.5473
    7MOL   C443 4775   4.144   1.295   2.108  0.0296  0.0182  0.0920
    7MOL   C444 4776   4.005   1.360   2.079 -0.3493 -0.4382  1.2036
    7MOL   C445 4777   3.991   1.396   1.922  1.2392  0.6610  0.2293
    7MOL   C446 4778   3.840   1.425   1.879  0.2179 -0.3937  0.2837
    7MOL   C447 4779   3.772   1.518   1.977 -0.4654 -0.1441  0.2422
    7MOL   C448 4780   3.629   1.555   1.940  0.7101  0.1449  0.0956
    7MOL   N449 4781   3.554   1.601   2.052  0.0838  0.2291 -0.3971
    7MOL   C450 4782   4.081   1.043   2.459 -0.3716 -0.0540 -0.3470
    7MOL   C451 4783   4.058   0.970   2.581  0.5703 -0.0335  0.3318
    7MOL   H452 4784   4.390   0.876   2.629  1.5865  2.5994  1.5743
    7MOL   H453 4785   4.407   0.981   2.415  0.8082  0.9660  1.1965
    7MOL   H454 4786   4.083   1.257   2.301  1.7100  0.3277  0.8506
    7MOL   H455 4787   4.227   1.365   2.113  0.3380 -0.2382 -1.1930
    7MOL   H456 4788   4.167   1.227   2.026 -0.4426  0.5493 -0.4827
    7MOL   H457 4789   4.003   1.449   2.141 -0.0184  0.9348 -0.7142
    7MOL   H458 4790   3.925   1.300   2.123  1.7374 -2.7986  1.8982
    7MOL   H459 4791   4.063   1.470   1.886 -0.6075  0.7529 -3.5879
    7MOL   H460 4792   4.028   1.316   1.858 -1.0148  0.7988 -1.2974
    7MOL   H461 4793   3.789   1.329   1.870 -0.9854  0.0929  1.5938
    7MOL   H462 4794   3.838   1.472   1.781 -0.1216  0.4028  0.6668
    7MOL   H463 4795   3.826   1.612   1.981  0.3759 -0.6893  2.0753
    7MOL   H464 4796   3.774   1.466   2.073  1.7445  1.3019  1.0020
    7MOL   H465 4797   3.626   1.633   1.864  0.1306  0.9667  0.9492
    7MOL   H466 4798   3.588   1.465   1.894  0.2376 -0.8529  2.3761
    7MOL   H467 4799   3.593   1.688   2.087  0.6622 -0.5382  0.9223
    7MOL   H468 4800   3.999   1.098   2.414 -3.0685 -1.8728  2.1462
    7MOL   H469 4801   3.965   0.981   2.634  0.5686  0.6824  0.1792
    7MOL   C470 4802   3.423   1.591   2.073 -0.3623 -0.0676  0.3355
    7MOL   O471 4803   3.347   1.534   1.997 -0.5008 -0.3051  0.1447
    7MOL   C472 4804   3.374   1.643   2.205  0.2702 -0.1918 -0.2685
    7MOL   C473 4805   3.452   1.635   2.324  0.0812 -0.0150  0.0211
    7MOL   C474 4806   3.406   1.694   2.444  0.3571 -0.9814 -0.0640
    7MOL   C475 4807   3.275   1.737   2.457 -0.1996  0.7289  0.0069
    7MOL   C476 4808   3.223   1.792   2.586 -0.1279 -0.2457 -0.0027
    7MOL   O477 4809   3.169   1.718   2.665 -0.6598 -0.5291  0.7387
    7MOL   N478 4810   3.247   1.925   2.607  0.3147  0.2487 -0.2284
    7MOL   C479 4811   3.198   1.998   2.721  0.5185 -0.4947  0.8008
    7MOL   C480 4812   3.220   2.153   2.696 -0.1367  0.4191  0.6106
    7MOL   C481 4813   3.162   2.241   2.806 -0.2412  0.3199 -0.2568
    7MOL   C482 4814   3.183   2.392   2.792 -0.4594 -0.0370 -0.6742
    7MOL   C483 4815   3.097   2.465   2.896  0.7459 -0.8356 -1.0713
    7MOL   C484 4816   3.112   2.616   2.899 -0.2558  0.3086 -0.2896
    7MOL   N485 4817   3.022   2.675   2.994  0.0752  0.6669  0.7960
    7MOL   C486 4818   3.189   1.726   2.344  0.0105  0.1020  0.4830
    7MOL   C487 4819   3.233   1.678   2.218 -0.9389 -0.2339  0.3201
    7MOL   H488 4820   3.553   1.597   2.318 -0.6117 -2.0607  0.7631
    7MOL   H489 4821   3.475   1.706   2.526 -0.6701 -0.7118  0.7779
    7MOL   H490 4822   3.307   1.973   2.542 -1.4415  1.1571 -1.2052
    7MOL   H491 4823   3.090   1.990   2.733  0.3704 -0.4911 -0.4901
    7MOL   H492 4824   3.234   1.959   2.816 -1.2566 -1.1699  1.2006
    7MOL   H493 4825   3.174   2.177   2.601 -0.0364 -0.5673  0.3022
    7MOL   H494 4826   3.328   2.170   2.700 -0.2179  1.2489 -0.5666
    7MOL   H495 4827   3.056   2.223   2.822 -0.5060  2.8640  1.1416
    7MOL   H496 4828   3.210   2.228   2.904  1.6705 -0.5524 -1.2758
    7MOL   H497 4829   3.169   2.422   2.688 -1.3279 -0.1628 -0.6030
    7MOL   H498 4830   3.288   2.417   2.802 -1.0191  1.7249  1.3146
    7MOL   H499 4831   3.110   2.426   2.997 -1.8512  1.4975  0.2134
    7MOL   H500 4832   2.995   2.447   2.862  0.5434  1.3717 -1.7091
    7MOL   H501 4833   3.217   2.636   2.919  0.0248 -1.3357 -0.0716
    7MOL   H502 4834   3.090   2.658   2.801 -2.5976 -0.4085 -0.0991
    7MOL   H503 4835   2.978   2.616   3.062  0.4735 -0.5646  0.0130
    7MOL   H504 4836   3.085   1.754   2.346 -0.2137 -0.7474  0.8711
    7MOL   H505 4837   3.167   1.659   2.135  0.3787  2.2560 -1.3697
    7MOL   C506 4838   3.013   2.808   3.002  0.0458 -0.3952 -0.6852
    7MOL   O507 4839   3.071   2.884   2.921  0.5823  1.0380 -0.2475
    7MOL   C508 4840   2.924   2.873   3.109 -0.8815 -0.1201 -0.0069
    7MOL   C509 4841   2.859   2.792   3.199  0.0115 -0.4322  0.7932
    7MOL   C510 4842   2.761   2.848   3.289 -0.5312 -0.0815 -0.0669
    7MOL   C511 4843   2.742   2.990   3.290  0.2434 -0.6188  0.9805
    7MOL   C512 4844   2.637   3.047   3.377  0.6458 -0.1075  0.6821
    7MOL   O513 4845   2.550   2.969   3.422 -0.1657  0.4036  0.6640
    7MOL   N514 4846   2.635   3.177   3.396  0.1699 -0.1951  0.6381
    7MOL   C515 4847   2.519   3.254   3.437  0.4410  1.1098  0.0776
    7MOL   C516 4848   2.530   3.406   3.417  0.1725  0.2810 -0.5983
    7MOL   C517 4849   2.406   3.481   3.448  0.1611 -0.5152 -0.1445
    7MOL   C518 4850   2.385   3.505   3.596 -0.2989  0.5103  0.1036
    7MOL   C519 4851   2.261   3.591   3.608  0.3094 -0.6567 -0.3589
    7MOL   C520 4852   2.201   3.609   3.756 -0.1870  0.9937  0.3711
    7MOL   N521 4853   2.163   3.481   3.816  0.1919 -0.1678  0.0811
    7MOL   C522 4854   2.817   3.072   3.200  0.0155  0.3645 -0.3712
    7MOL   C523 4855   2.908   3.012   3.110  0.1994  0.3498 -0.3852
    7MOL   H524 4856   2.866   2.684   3.204  1.7669 -0.3438  0.6669
    7MOL   H525 4857   2.715   2.778   3.357 -0.1287  0.0351  0.3297
    7MOL   H526 4858   2.710   3.232   3.356  0.1951  0.1826  1.1925
    7MOL   H527 4859   2.426   3.223   3.388  0.6015 -0.0332  0.4759
    7MOL   H528 4860   2.492   3.230   3.540 -3.8987 -0.0234 -1.1933
    7MOL   H529 4861   2.557   3.430   3.314 -3.2379 -0.2181 -1.6552
    7MOL   H530 4862   2.617   3.438   3.475  0.3850 -2.2388  0.5103
    7MOL   H531 4863   2.406   3.573   3.391  2.5205  0.1829  0.9246
    7MOL   H532 4864   2.321   3.430   3.403 -1.0268  0.3533  1.0498
    7MOL   H533 4865   2.458   3.560   3.655  0.1190 -0.3421  0.3834
    7MOL   H534 4866   2.369   3.413   3.652  0.6310 -0.9946 -2.0545
    7MOL   H535 4867   2.189   3.543   3.541  0.5189  0.8778 -1.7222
    7MOL   H536 4868   2.283   3.690   3.569 -0.1153 -0.3711  0.1353
    7MOL   H537 4869   2.284   3.648   3.814 -0.3160 -1.0095  1.9602
    7MOL   H538 4870   2.118   3.678   3.748 -1.5089 -0.6713 -0.6305
    7MOL   H539 4871   2.241   3.448   3.871 -0.3951  1.0090  1.6457
    7MOL   H540 4872   2.803   3.179   3.197 -1.5976  0.1897  0.6364
    7MOL   H541 4873   2.964   3.075   3.043 -1.0227  2.5768  0.6055
    7MOL   C542 4874   2.046   3.410   3.799 -0.2918  0.5744  0.3397
    7MOL   O543 4875   1.964   3.433   3.707 -0.3967  0.1814  0.2107
    7MOL   C544 4876   2.030   3.291   3.891  0.0789  0.5138  0.5463
    7MOL   C545 4877   2.082   3.297   4.027  0.5131 -0.3898 -0.5316
    7MOL   C546 4878   2.062   3.181   4.111  0.2769 -0.1308 -0.1300
    7MOL   C547 4879   1.990   3.070   4.068 -0.0498  0.4247  0.2675
    7MOL   C548 4880   1.981   2.948   4.153 -0.3855 -0.8540 -0.0302
    7MOL   O549 4881   2.078   2.918   4.228 -0.0448  0.0635  0.1081
    7MOL   N550 4882   1.872   2.877   4.139  0.4092  0.1342 -0.0044
    7MOL   C551 4883   1.864   2.741   4.185  0.1078 -0.2625  0.3194
    7MOL   C552 4884   1.961   2.648   4.122  0.0678  0.1758  0.4980
    7MOL   C553 4885   1.904   2.507   4.109 -0.5436  0.5419 -0.4414
    7MOL   C554 4886   2.008   2.412   4.059  0.2847 -0.7861 -0.0440
    7MOL   C555 4887   2.049   2.442   3.913 -0.2280 -0.3259  0.5604
    7MOL   C556 4888   2.144   2.322   3.862 -0.6885  0.1876  0.4565
    7MOL   N557 4889   2.179   2.334   3.717 -0.5885 -0.2839 -0.4976
    7MOL   C558 4890   1.954   3.063   3.931  0.2759  0.2230 -0.1183
    7MOL   C559 4891   1.961   3.175   3.848 -0.1346 -0.3489 -0.2046
    7MOL   H560 4892   2.135   3.381   4.068 -0.4629 -0.0851  0.1163
    7MOL   H561 4893   2.100   3.191   4.211  1.4671 -0.5813 -0.5228
    7MOL   H562 4894   1.798   2.909   4.079 -0.3184 -1.8495 -0.2052
    7MOL   H563 4895   1.866   2.754   4.293  0.3525 -1.0749  0.4168
    7MOL   H564 4896   1.770   2.691   4.162  0.2088 -0.4270  0.2601
    7MOL   H565 4897   2.053   2.647   4.180 -0.3387  0.6520  1.1551
    7MOL   H566 4898   1.989   2.692   4.026 -0.0903 -0.0197  0.3621
    7MOL   H567 4899   1.873   2.464   4.205  0.6022  3.4895  1.3145
    7MOL   H568 4900   1.813   2.509   4.048  1.5510 -1.6795 -3.8167
    7MOL   H569 4901   1.961   2.314   4.060 -0.3638 -0.4756  1.9008
    7MOL   H570 4902   2.097   2.407   4.122 -0.0828 -2.5847  0.3445
    7MOL   H571 4903   2.101   2.538   3.901 -2.5235  0.8228 -0.4313
    7MOL   H572 4904   1.962   2.441   3.848 -1.0335 -1.8189  1.6402
    7MOL   H573 4905   2.242   2.337   3.908 -0.8732  1.8274  0.3381
    7MOL   H574 4906   2.103   2.224   3.885  0.1285 -0.5053 -0.9460
    7MOL   H575 4907   2.228   2.417   3.688  0.6534 -1.8520 -3.0058
    7MOL   H576 4908   1.899   2.976   3.898 -0.3416 -0.1502  1.8390
    7MOL   H577 4909   1.932   3.173   3.744 -0.9952  1.6149 -0.0286
    7MOL   C578 4910   2.145   2.255   3.614 -0.0306  0.4073  0.1907
    7MOL   O579 4911   2.098   2.142   3.642  0.2091 -0.3327 -0.2161
    7MOL   C580 4912   2.167   2.287   3.468  0.3514 -0.6578  0.3961
    7MOL   C581 4913   2.174   2.421   3.429  0.7631 -0.0612  0.0076
    7MOL   C582 4914   2.180   2.452   3.291 -0.1746  0.6083  0.9062
    7MOL   C583 4915   2.174   2.351   3.194  0.6619  0.0250  0.4144
    7MOL   C584 4916   2.196   2.388   3.046 -0.4917 -0.3349 -0.6505
    7MOL   O585 4917   2.307   2.427   3.015  0.2568  0.3325  0.5655
    7MOL   N586 4918   2.100   2.356   2.965  0.2550 -0.3499 -0.1146
    7MOL   C587 4919   2.107   2.370   2.820  0.0556  0.4115  0.5070
    7MOL   C588 4920   2.044   2.249   2.757 -0.0214 -0.2228  0.0610
    7MOL   C589 4921   1.980   2.275   2.620  0.0343 -0.0576  0.0808
    7MOL   C590 4922   1.943   2.148   2.544 -0.4848 -0.5267 -0.1612
    7MOL   C591 4923   1.850   2.167   2.425 -0.0189  1.0825 -0.0155
    7MOL   C592 4924   1.840   2.035   2.346 -0.3548  0.0269 -0.2348
    7MOL   N593 4925   1.741   2.018   2.245  0.4512 -0.0907  0.7601
    7MOL   C594 4926   2.157   2.218   3.235 -0.3740  0.0215 -0.1813
    7MOL   C595 4927   2.168   2.189   3.371 -0.4787  0.3639 -1.0444
    7MOL   H596 4928   2.190   2.500   3.500  1.5425  0.3135 -0.5803
    7MOL   H597 4929   2.198   2.555   3.262 -1.2776  0.3944 -0.6203
    7MOL   H598 4930   2.023   2.301   2.999 -1.9944  2.0919 -1.0515
    7MOL   H599 4931   2.044   2.456   2.799 -1.7518 -0.7189  1.2440
    7MOL   H600 4932   2.207   2.391   2.781 -0.1927 -0.9492 -0.9051
    7MOL   H601 4933   1.969   2.197   2.818 -2.1365  1.6871 -0.8233
    7MOL   H602 4934   2.123   2.175   2.746 -0.5537 -0.9315  0.9106
    7MOL   H603 4935   1.896   2.343   2.636  0.4178  0.8096 -1.5511
    7MOL   H604 4936   2.048   2.327   2.553  0.5069 -3.3036 -2.0894
    7MOL   H605 4937   1.890   2.074   2.604 -1.6119  0.4347  0.0475
    7MOL   H606 4938   2.039   2.105   2.515 -0.2118 -1.2659  1.7997
    7MOL   H607 4939   1.883   2.251   2.363 -0.5452  0.8986 -0.5509
    7MOL   H608 4940   1.758   2.196   2.476  0.2391  2.3307 -0.2201
    7MOL   H609 4941   1.937   2.006   2.305  0.7012  0.7501  1.6977
    7MOL   H610 4942   1.831   1.955   2.419  2.3101  0.0939  0.1976
    7MOL   H611 4943   1.687   2.099   2.219  2.0208  0.2562 -1.6020
    7MOL   H612 4944   2.171   2.134   3.168 -1.5352  0.4629 -0.9868
    7MOL   H613 4945   2.157   2.086   3.401  0.4087  0.0743 -1.6961
    7MOL   C614 4946   1.693   1.903   2.199 -0.2753 -0.2144 -0.4146
    7MOL   O615 4947   1.740   1.795   2.227  0.2128  0.6040 -0.2342
    7MOL   C616 4948   1.572   1.906   2.116 -0.3405  0.4177  0.3206
    7MOL   C617 4949   1.541   2.024   2.041 -0.5909  0.0595 -0.1569
    7MOL   C618 4950   1.428   2.023   1.960 -0.2939  0.5053 -0.1137
    7MOL   C619 4951   1.346   1.912   1.955  0.0816 -0.3881 -0.7320
    7MOL   C620 4952   1.221   1.918   1.869  0.2598 -0.1201  0.2484
    7MOL   O621 4953   1.147   2.012   1.879 -0.1572  0.3619  0.0972
    7MOL   N622 4954   1.193   1.809   1.795  0.0614 -0.7380  1.0684
    7MOL   C623 4955   1.076   1.811   1.703  0.1986 -0.1168 -0.8679
    7MOL   C624 4956   1.070   1.690   1.617  0.6679 -0.4702 -0.2806
    7MOL   C625 4957   0.943   1.670   1.525  0.8064  0.0216 -0.1289
    7MOL   C626 4958   0.899   1.795   1.438 -0.3375  0.7092 -0.0069
    7MOL   C627 4959   0.797   1.754   1.332 -0.0602  0.0899 -0.3889
    7MOL   C628 4960   0.734   1.866   1.253 -0.0666  0.3731  0.7792
    7MOL   N629 4961   0.650   1.818   1.139 -0.0676  0.6776 -0.3996
    7MOL   C630 4962   1.390   1.787   2.009 -0.2823  0.1760 -0.0968
    7MOL   C631 4963   1.502   1.784   2.090  0.1680 -0.0028  0.3662
    7MOL   H632 4964   1.600   2.114   2.052  0.7790 -0.6788 -1.2874
    7MOL   H633 4965   1.406   2.104   1.893  2.5661  1.1189 -0.3663
    7MOL   H634 4966   1.260   1.734   1.804  0.8666 -0.0798  0.7417
    7MOL   H635 4967   0.987   1.831   1.762 -0.7559  0.7100 -2.5624
    7MOL   H636 4968   1.096   1.903   1.650  0.1730  0.9787  0.9644
    7MOL   H637 4969   1.068   1.604   1.683  1.0848 -0.0294  0.3180
    7MOL   H638 4970   1.162   1.685   1.558  0.8542  0.7148 -0.1039
    7MOL   H639 4971   0.969   1.578   1.472 -1.2969 -0.8710  0.3192
    7MOL   H640 4972   0.855   1.637   1.580  1.5526 -0.8813  0.5633
    7MOL   H641 4973   0.989   1.831   1.388 -0.0454  0.8768  0.6314
    7MOL   H642 4974   0.864   1.880   1.498  0.4367  1.3438 -0.4436
    7MOL   H643 4975   0.724   1.700   1.393  0.1899 -0.8895 -0.9449
    7MOL   H644 4976   0.843   1.673   1.275  0.3741  0.1501 -0.1353
    7MOL   H645 4977   0.670   1.921   1.322 -1.9386  0.1299 -0.7278
    7MOL   H646 4978   0.809   1.935   1.214  0.4951 -0.1646  0.8945
    7MOL   H647 4979   0.691   1.822   1.047  3.2196 -1.2793  0.8908
    7MOL   H648 4980   1.329   1.698   2.006  0.5890 -0.4799  1.2153
    7MOL   H649 4981   1.537   1.694   2.137  0.4186  0.0431  0.2665
    7MOL   C650 4982   0.536   1.754   1.147 -0.5958 -0.3242 -0.0765
    7MOL   O651 4983   0.490   1.714   1.251 -0.2272 -0.1459 -0.4488
    7MOL   C652 4984   0.471   1.712   1.017 -0.3425  0.4535 -0.2217
    7MOL   C653 4985   0.497   1.786   0.895  0.7161  0.8640 -0.3689
    7MOL   C654 4986   0.444   1.747   0.773 -0.1764 -0.7813 -0.1320
    7MOL   C655 4987   0.375   1.626   0.766  0.2418  0.6401 -0.0322
    7MOL   C656 4988   0.325   1.569   0.637  0.3594  0.6576  0.7813
    7MOL   O657 4989   0.358   1.457   0.603  0.3917 -0.2388 -0.2014
    7MOL   N658 4990   0.233   1.639   0.574  0.5598 -0.0740 -0.4192
    7MOL   C659 4991   0.159   1.598   0.455 -0.1728 -0.3784  0.0624
    7MOL   C660 4992   0.040   1.509   0.494 -0.4128  0.0427 -0.7262
    7MOL   C661 4993   7.826   1.498   0.382  0.1120  0.5099  0.6545
    7MOL   C662 4994   7.700   1.422   0.432 -0.3688  0.1810 -0.2010
    7MOL   C663 4995   7.601   1.391   0.321 -0.3014  0.2100  0.2675
    7MOL   C664 4996   7.477   1.316   0.368 -0.3204 -0.2311 -0.4309
    7MOL   N665 4997   7.405   1.385   0.474 -0.0363 -0.5563 -0.2050
    7MOL   C666 4998   0.339   1.559   0.886  0.0396  0.8465 -0.3421
    7MOL   C667 4999   0.388   1.595   1.010 -0.5731 -0.5058 -0.7319
    7MOL   H668 5000   0.556   1.876   0.902 -3.0360  3.4612 -0.4933
    7MOL   H669 5001   0.455   1.805   0.683  0.9685  0.5538  0.8501
    7MOL   H670 5002   0.212   1.731   0.610 -2.2582  0.0633 -2.2361
    7MOL   H671 5003   0.124   1.694   0.420  2.4094 -0.3037 -2.5521
    7MOL   H672 5004   0.222   1.549   0.380 -0.0011 -1.1764  0.7067
    7MOL   H673 5005   7.880   1.550   0.584 -2.1569 -1.4038 -0.9195
    7MOL   H674 5006   0.066   1.407   0.521 -1.2601  0.2439  0.8959
    7MOL   H675 5007   7.798   1.599   0.353 -3.8153 -0.4461  0.8454
    7MOL   H676 5008   7.865   1.449   0.292 -1.6880  1.0425 -0.4386
    7MOL   H677 5009   7.657   1.469   0.521 -0.6638  0.5677 -0.5448
    7MOL   H678 5010   7.737   1.325   0.467 -0.3097 -0.4658 -2.0097
    7MOL   H679 5011   7.650   1.327   0.248 -2.2219 -2.9748  1.6659
    7MOL   H680 5012   7.569   1.478   0.263 -0.2690  0.1592  0.1734
    7MOL   H681 5013   7.404   1.311   0.287 -1.3082 -0.5178  0.4710
    7MOL   H682 5014   7.519   1.221   0.402  0.5379  0.2984  0.0091
    7MOL   H683 5015   7.439   1.469   0.518 -0.4789 -0.4319 -0.1035
    7MOL   H684 5016   0.289   1.463   0.882  0.0341  0.7909  1.0193
    7MOL   H685 5017   0.356   1.547   1.102 -1.7526  0.2039 -0.7586
    7MOL   C686 5018   7.322   1.319   0.553  0.0081 -0.2119  0.0162
    7MOL   O687 5019   7.256   1.221   0.512  0.1684 -0.0495 -0.5431
    7MOL   C688 5020   7.319   1.370   0.691 -0.7067  0.0657  0.0856
    7MOL   C689 5021   7.242   1.307   0.793 -0.9589 -0.0258  0.1892
    7MOL   C690 5022   7.253   1.339   0.927  0.4533 -0.6475 -0.1049
    7MOL   C691 5023   7.347   1.442   0.971 -0.1491 -0.9251  0.1526
    7MOL   C692 5024   7.365   1.473   1.114 -0.1688  0.3453 -0.0606
    7MOL   O693 5025   7.472   1.521   1.149 -0.5777 -0.4421  0.1399
    7MOL   N694 5026   7.264   1.444   1.198  0.1998  0.1071  0.1261
    7MOL   C695 5027   7.272   1.460   1.341 -0.1269 -0.2973  0.0618
    7MOL   C696 5028   7.139   1.434   1.412  0.2872  0.2004 -0.2072
    7MOL   C697 5029   7.076   1.293   1.383  0.2203 -0.0909 -0.2898
    7MOL   C698 5030   7.178   1.176   1.374  0.0795 -0.2943  0.0741
    7MOL   C699 5031   7.233   1.143   1.507 -0.2231  0.2840  0.1190
    7MOL   C700 5032   7.318   1.014   1.511 -0.3039  0.3208  0.0915
    7MOL   N701 5033   7.364   0.989   1.647  0.2458 -0.1423  0.5214
    7MOL   C702 5034   7.432   1.506   0.876  0.4029  0.5810  0.1806
    7MOL   C703 5035   7.413   1.469   0.736 -0.4730  0.2524  0.4733
    7MOL   H704 5036   7.172   1.237   0.751 -2.8945  2.2638 -0.4961
    7MOL   H705 5037   7.184   1.287   0.993 -1.7621  1.2846 -0.8355
    7MOL   H706 5038   7.176   1.432   1.150  0.0697 -0.5047  0.5119
    7MOL   H707 5039   7.350   1.395   1.382 -1.2000 -0.4500  1.8889
    7MOL   H708 5040   7.312   1.559   1.359  0.0234  0.3202 -3.2438
    7MOL   H709 5041   7.076   1.516   1.380  0.5961  0.6254  0.2726
    7MOL   H710 5042   7.144   1.441   1.521 -0.2353 -0.2128 -0.1504
    7MOL   H711 5043   7.005   1.274   1.463 -0.9219 -1.4822 -1.6089
    7MOL   H712 5044   7.013   1.285   1.294 -2.0620  1.4866  1.1243
    7MOL   H713 5045   7.264   1.193   1.310 -0.2457 -1.2684 -0.6252
    7MOL   H714 5046   7.116   1.097   1.333  0.2416 -0.5572  0.3387
    7MOL   H715 5047   7.149   1.110   1.569 -0.8672  0.8235 -0.4546
    7MOL   H716 5048   7.278   1.226   1.560 -0.8733  0.0276  1.0851
    7MOL   H717 5049   7.250   0.931   1.489 -0.8384  0.3644  1.5725
    7MOL   H718 5050   7.388   1.007   1.427 -1.4270  0.3793 -0.8630
    7MOL   H719 5051   7.431   0.914   1.632 -0.8552 -0.9310 -0.5758
    7MOL   H720 5052   7.515   1.568   0.906  0.4062  0.0870  1.2192
    7MOL   H721 5053   7.480   1.516   0.666  1.4001 -1.2271  1.2088
    7MOL   H722 5054   7.429   1.056   1.684 -0.3708  0.0689  1.2371
    8MOL     C1 5055   0.488   2.718   6.082  0.8508  0.1428 -1.1077
    8MOL     O2 5056   0.393   2.703   6.001  0.1960 -0.7815  0.4956
    8MOL     C3 5057   0.629   2.728   6.036 -0.2610  0.4172  0.2912
    8MOL     C4 5058   0.732   2.758   6.133  0.0002 -0.1292  0.6565
    8MOL     C5 5059   0.865   2.755   6.096 -0.2891 -0.0330  0.1237
    8MOL     C6 5060   0.899   2.738   5.959 -0.6811  0.3123 -1.0259
    8MOL     C7 5061   1.040   2.741   5.905  0.3215  0.3423 -0.1502
    8MOL     O8 5062   1.050   2.760   5.784  0.2982 -0.1736  0.3578
    8MOL     N9 5063   1.142   2.721   5.990 -0.4127  0.4167  0.1920
    8MOL    C10 5064   1.271   2.676   5.961  0.6168 -0.8896 -0.0469
    8MOL    C11 5065   1.340   2.602   6.076  0.3846 -0.6661 -0.2293
    8MOL    C12 5066   1.485   2.553   6.055 -0.8058 -0.3314  0.3797
    8MOL    C13 5067   1.542   2.497   6.185  0.2695 -0.4191  0.4484
    8MOL    C14 5068   1.684   2.446   6.182 -0.1585  0.7516  0.1145
    8MOL    C15 5069   1.719   2.387   6.319 -0.2509 -0.2132  0.5525
    8MOL    N16 5070   1.859   2.343   6.319  0.2548 -0.1008  0.1289
    8MOL    C17 5071   0.796   2.709   5.866  0.2384 -0.2397 -0.0349
    8MOL    C18 5072   0.657   2.703   5.902 -0.2178  0.2548 -1.0167
    8MOL    H19 5073   0.709   2.794   6.232  0.6695 -0.8291  1.0687
    8MOL    H20 5074   0.935   2.768   6.177 -0.6942  0.0019  0.4712
    8MOL    H21 5075   1.105   2.703   6.082 -0.2629 -2.3162 -0.2234
    8MOL    H22 5076   1.261   2.612   5.873  1.2201 -0.4903 -0.4117
    8MOL    H23 5077   1.321   2.769   5.934 -2.3397  0.9934  0.7808
    8MOL    H24 5078   1.278   2.517   6.105  1.8934 -0.9233  2.4713
    8MOL    H25 5079   1.335   2.669   6.162  0.0727  0.3618 -1.0333
    8MOL    H26 5080   1.498   2.475   5.980  1.8634  1.1679 -0.7754
    8MOL    H27 5081   1.552   2.631   6.019  1.7279 -2.0559  1.2232
    8MOL    H28 5082   1.484   2.406   6.202 -3.3734  0.8645 -3.9752
    8MOL    H29 5083   1.518   2.567   6.266 -2.0789  1.2119 -1.5446
    8MOL    H30 5084   1.755   2.518   6.142  2.0633 -2.1565 -1.3982
    8MOL    H31 5085   1.700   2.364   6.111 -0.3372  0.9406 -0.1438
    8MOL    H32 5086   1.699   2.458   6.399 -0.0627  0.8279 -0.3122
    8MOL    H33 5087   1.656   2.300   6.337  0.4261 -0.9659 -0.5968
    8MOL    H34 5088   1.879   2.280   6.242 -0.8249  0.8244 -0.9183
    8MOL    H35 5089   0.817   2.696   5.761  1.0492 -2.1341  0.3486
    8MOL    H36 5090   0.580   2.682   5.830  1.8147 -1.8817 -2.6398
    8MOL    H37 5091   0.472   2.721   6.190  1.1787 -0.3269 -1.0450
    8MOL    C38 5092   1.945   2.352   6.423 -0.3445 -0.2283 -0.6169
    8MOL    O39 5093   1.920   2.421   6.521  0.0891 -0.1681  0.6810
    8MOL    C40 5094   2.078   2.277   6.401  0.6589  0.4457  0.9188
    8MOL    C41 5095   2.092   2.172   6.311  0.5061 -0.6090  0.4680
    8MOL    C42 5096   2.216   2.109   6.289  0.3869  0.3084 -0.6206
    8MOL    C43 5097   2.325   2.137   6.377  0.2292 -0.2200 -0.0153
    8MOL    C44 5098   2.453   2.057   6.374 -0.0650  0.2677 -0.2089
    8MOL    O45 5099   2.556   2.098   6.427 -0.2431  0.0607  0.0723
    8MOL    N46 5100   2.450   1.946   6.297  0.0804 -0.6094  0.4666
    8MOL    C47 5101   2.568   1.866   6.275  0.3648 -0.9763  0.0936
    8MOL    C48 5102   2.555   1.742   6.176  0.8808 -0.8064 -0.3094
    8MOL    C49 5103   2.474   1.626   6.230 -0.4377 -0.2415  0.0024
    8MOL    C50 5104   2.458   1.506   6.132  0.2031 -0.3935  1.4047
    8MOL    C51 5105   2.381   1.532   6.001 -0.2771 -0.6567  0.4685
    8MOL    C52 5106   2.232   1.545   6.032  0.8349 -0.6317 -0.2550
    8MOL    N53 5107   2.165   1.651   5.955 -0.6569  0.4338  0.3344
    8MOL    C54 5108   2.317   2.236   6.476  0.2280  0.2596 -0.4380
    8MOL    C55 5109   2.188   2.304   6.488 -0.5246 -0.1868  0.4315
    8MOL    H56 5110   2.005   2.153   6.250  1.2752 -0.3351 -0.7361
    8MOL    H57 5111   2.231   2.037   6.210  2.1520 -0.8653  0.7419
    8MOL    H58 5112   2.360   1.929   6.255  0.3230  0.5863 -0.5694
    8MOL    H59 5113   2.641   1.938   6.238 -0.3732  0.5177  1.4730
    8MOL    H60 5114   2.610   1.835   6.370 -0.3115  0.2657  0.8159
    8MOL    H61 5115   2.653   1.708   6.144  0.1625 -1.8464 -1.4583
    8MOL    H62 5116   2.505   1.773   6.084  2.1721  1.2907 -0.3428
    8MOL    H63 5117   2.517   1.593   6.324  0.4264  0.1210 -0.2611
    8MOL    H64 5118   2.373   1.657   6.255 -0.9196 -2.2751  0.6772
    8MOL    H65 5119   2.405   1.422   6.178  2.2353 -2.1203  0.6588
    8MOL    H66 5120   2.553   1.454   6.119  0.2249  0.2487 -1.3241
    8MOL    H67 5121   2.390   1.441   5.942  2.2359 -0.2663  0.1716
    8MOL    H68 5122   2.428   1.605   5.935  1.6309 -2.2954 -0.0470
    8MOL    H69 5123   2.184   1.449   6.015 -0.9068  0.3231 -0.8479
    8MOL    H70 5124   2.221   1.566   6.138  0.5572  1.5694 -0.6893
    8MOL    H71 5125   2.110   1.621   5.876 -0.7456 -2.0394  1.2909
    8MOL    H72 5126   2.394   2.250   6.550 -0.0617 -0.4850  0.0092
    8MOL    H73 5127   2.179   2.384   6.560  0.3487  0.1330  0.1838
    8MOL    C74 5128   2.182   1.780   5.977 -0.0205  0.8413 -0.1953
    8MOL    O75 5129   2.267   1.822   6.058 -0.1408  0.1473  0.5225
    8MOL    C76 5130   2.082   1.877   5.911 -0.5280 -0.3836  0.6818
    8MOL    C77 5131   2.056   2.006   5.962  0.2511 -0.6991  0.1928
    8MOL    C78 5132   1.964   2.090   5.890 -0.5078  0.5665  0.1655
    8MOL    C79 5133   1.892   2.038   5.778  0.0643 -0.5807  0.5566
    8MOL    C80 5134   1.785   2.125   5.712 -0.8717  0.0742  0.1815
    8MOL    O81 5135   1.791   2.250   5.726  0.5348  1.0505  0.2426
    8MOL    N82 5136   1.689   2.067   5.640  0.5889  0.2782  0.0964
    8MOL    C83 5137   1.592   2.122   5.548 -0.0498  0.1576 -0.2735
    8MOL    C84 5138   1.566   2.029   5.430 -0.3038  0.5690 -0.1045
    8MOL    C85 5139   1.445   2.077   5.349  0.0228  0.1362  0.1917
    8MOL    C86 5140   1.476   2.184   5.240  0.1741 -0.0812 -0.2028
    8MOL    C87 5141   1.341   2.227   5.165 -0.7086  0.3145 -0.0443
    8MOL    C88 5142   1.321   2.125   5.056  0.9446  0.2500  0.3064
    8MOL    N89 5143   1.237   2.013   5.105  0.7645  0.1439  0.4285
    8MOL    C90 5144   1.924   1.913   5.724 -0.2979 -0.8540  0.0443
    8MOL    C91 5145   2.024   1.840   5.790 -0.6475 -0.2293 -0.5712
    8MOL    H92 5146   2.116   2.043   6.044  1.1151  0.1820 -0.8333
    8MOL    H93 5147   1.948   2.193   5.918 -0.3530  0.4322  0.7579
    8MOL    H94 5148   1.676   1.967   5.652  0.2513  0.2987 -0.0976
    8MOL    H95 5149   1.506   2.165   5.599 -0.7395 -2.7924  1.1422
    8MOL    H96 5150   1.652   2.209   5.518  2.8826 -1.5835  0.3120
    8MOL    H97 5151   1.542   1.930   5.470  0.2194  0.4809 -0.0090
    8MOL    H98 5152   1.658   2.029   5.371  0.0891  0.3143  0.5072
    8MOL    H99 5153   1.418   1.991   5.288 -2.4894  0.0331  1.4240
    8MOL   H100 5154   1.356   2.110   5.401  0.1774 -0.2955  0.7269
    8MOL   H101 5155   1.558   2.147   5.178 -1.3932 -1.8990 -1.2348
    8MOL   H102 5156   1.518   2.273   5.286 -0.8410  0.1072  0.3848
    8MOL   H103 5157   1.368   2.321   5.118 -1.1860  0.1885 -0.5917
    8MOL   H104 5158   1.259   2.251   5.233 -0.8260 -3.2949  1.2242
    8MOL   H105 5159   1.267   2.173   4.974 -0.4007  1.0754  1.6547
    8MOL   H106 5160   1.409   2.092   5.001  0.3729 -0.1492 -0.3865
    8MOL   H107 5161   1.281   1.952   5.172 -1.0811 -2.3351 -0.5208
    8MOL   H108 5162   1.883   1.873   5.632  0.8607  1.0085 -1.3162
    8MOL   H109 5163   2.048   1.745   5.744 -0.5011 -0.2123 -0.5278
    8MOL   C110 5164   1.109   1.982   5.071 -0.1798 -0.3137 -0.1049
    8MOL   O111 5165   1.049   2.035   4.970 -0.5826  0.6258 -0.0502
    8MOL   C112 5166   1.036   1.890   5.161  0.3489 -0.8871  0.1897
    8MOL   C113 5167   0.911   1.853   5.125 -0.0269  0.0403 -0.2928
    8MOL   C114 5168   0.834   1.765   5.202  0.3559 -0.1250 -0.4107
    8MOL   C115 5169   0.890   1.705   5.315 -0.2465  0.2379  0.2158
    8MOL   C116 5170   0.801   1.611   5.398  0.5140  0.4336  0.5060
    8MOL   O117 5171   0.818   1.587   5.517 -0.9441  0.0229  0.1340
    8MOL   N118 5172   0.708   1.544   5.334 -0.0330 -0.0958 -0.1867
    8MOL   C119 5173   0.593   1.470   5.396  0.2959 -0.1573 -0.1036
    8MOL   C120 5174   0.523   1.380   5.282  0.2837 -0.8384 -0.2419
    8MOL   C121 5175   0.418   1.289   5.340 -0.1718  0.3577  1.5631
    8MOL   C122 5176   0.356   1.207   5.225  0.0413 -0.2969  0.3147
    8MOL   C123 5177   0.282   1.079   5.279  0.2540 -0.0822 -1.0308
    8MOL   C124 5178   0.247   0.976   5.172 -0.3598  0.3570 -0.0790
    8MOL   N125 5179   0.214   0.858   5.238  0.0513 -0.2108 -0.9389
    8MOL   C126 5180   1.020   1.740   5.354 -0.3213 -0.2344  0.4162
    8MOL   C127 5181   1.090   1.843   5.283  0.3946  0.2067  0.2406
    8MOL   H128 5182   0.867   1.887   5.033 -0.8919  1.1208  0.4934
    8MOL   H129 5183   0.738   1.737   5.161  0.4693  1.2922 -1.6805
    8MOL   H130 5184   0.713   1.556   5.234  0.9809  0.7905 -0.0313
    8MOL   H131 5185   0.632   1.403   5.472  2.6556  1.0192 -0.2309
    8MOL   H132 5186   0.513   1.531   5.437 -0.8344 -0.3736 -1.9321
    8MOL   H133 5187   0.589   1.322   5.217  0.4589 -0.1952 -0.6476
    8MOL   H134 5188   0.473   1.442   5.208  0.6547  3.0810  2.5892
    8MOL   H135 5189   0.461   1.222   5.415 -1.4415  1.1976  3.0643
    8MOL   H136 5190   0.343   1.346   5.394 -0.9897 -0.2282  1.0507
    8MOL   H137 5191   0.439   1.174   5.162  0.6257  0.2258  0.7918
    8MOL   H138 5192   0.288   1.262   5.159  1.3247  0.5013 -0.3686
    8MOL   H139 5193   0.196   1.114   5.335  0.5280  0.1392 -0.7517
    8MOL   H140 5194   0.356   1.030   5.343  0.6557 -0.9072 -2.1025
    8MOL   H141 5195   0.177   1.013   5.098 -0.2784  1.3496  0.3304
    8MOL   H142 5196   0.337   0.953   5.115  0.2819  1.6700  0.3706
    8MOL   H143 5197   0.292   0.798   5.261 -1.5977 -2.3217 -0.6929
    8MOL   H144 5198   1.057   1.696   5.445 -1.9669  1.4187  1.9245
    8MOL   H145 5199   1.190   1.872   5.313  0.2166  0.3166  0.7302
    8MOL   C146 5200   0.089   0.807   5.250 -1.1458  0.1077  0.1967
    8MOL   O147 5201   7.878   0.874   5.225  0.0623  0.3135  0.2025
    8MOL   C148 5202   0.079   0.668   5.303 -0.0434 -0.3533 -0.4771
    8MOL   C149 5203   7.863   0.590   5.257  0.1344 -0.5515 -0.7467
    8MOL   C150 5204   7.848   0.458   5.299 -0.3055 -0.0974  0.5997
    8MOL   C151 5205   0.048   0.403   5.397  0.4339  0.1071  0.1121
    8MOL   C152 5206   0.027   0.257   5.434 -0.3867  0.5672  0.3551
    8MOL   O153 5207   0.096   0.177   5.373 -0.3288  0.0254  0.3310
    8MOL   N154 5208   7.814   0.230   5.519  0.2379  0.4672 -0.0633
    8MOL   C155 5209   7.787   0.092   5.575  0.1069  0.1869 -0.3252
    8MOL   C156 5210   7.648   0.035   5.519  0.1216  0.0329  0.1668
    8MOL   C157 5211   7.651   7.871   5.375 -0.5541 -0.1846 -0.0024
    8MOL   C158 5212   7.518   7.822   5.322  0.0116  0.3625  0.1489
    8MOL   C159 5213   7.445   0.045   5.252 -0.2013 -0.8551 -0.5870
    8MOL   C160 5214   7.481   0.080   5.104 -0.1794  0.1095  0.1676
    8MOL   N161 5215   7.424   0.202   5.064  0.0015  0.4678  0.1696
    8MOL   C162 5216   0.152   0.481   5.447  0.2364  0.8487 -0.1279
    8MOL   C163 5217   0.169   0.615   5.400 -0.1971  0.1227  0.2157
    8MOL   H164 5218   7.792   0.632   5.188 -1.5275  0.1435  1.2985
    8MOL   H165 5219   7.766   0.414   5.243  0.7320  0.6774 -1.5670
    8MOL   H166 5220   7.765   0.310   5.558 -0.7439 -0.3359  0.3820
    8MOL   H167 5221   7.866   0.023   5.545  1.2175  0.4554  1.8579
    8MOL   H168 5222   7.790   0.097   5.684 -0.4311 -5.0531  0.0390
    8MOL   H169 5223   7.569   0.110   5.525  0.7521  0.6903  0.1561
    8MOL   H170 5224   7.630   7.835   5.585 -0.2750 -0.2302 -0.2828
    8MOL   H171 5225   7.705   0.053   5.309 -0.4536  0.4461  0.7283
    8MOL   H172 5226   7.717   7.784   5.374  2.2257  1.8139  2.3972
    8MOL   H173 5227   7.463   7.765   5.397 -0.0497  0.4607  0.1784
    8MOL   H174 5228   7.545   7.740   5.256 -2.4723  1.2741 -2.0809
    8MOL   H175 5229   7.471   0.133   5.311 -0.3851 -0.5811 -0.9159
    8MOL   H176 5230   7.337   0.041   5.263 -0.1416 -0.3671  0.2210
    8MOL   H177 5231   7.589   0.083   5.096 -0.2818  0.3283 -1.2272
    8MOL   H178 5232   7.445   0.002   5.036 -2.9647  0.0112  1.6595
    8MOL   H179 5233   7.347   0.193   4.999  2.6387  1.7042 -3.2447
    8MOL   H180 5234   0.215   0.438   5.524 -2.1267 -0.4948  1.1268
    8MOL   H181 5235   0.250   0.675   5.441 -0.1636  0.3723 -0.2145
    8MOL   C182 5236   7.462   0.321   5.104  0.2821  0.3645  0.6981
    8MOL   O183 5237   7.544   0.344   5.193 -0.2068  0.0430 -0.0713
    8MOL   C184 5238   7.405   0.440   5.031  0.0520  0.6682  0.6731
    8MOL   C185 5239   7.308   0.420   4.931 -0.8603 -0.7662 -0.6680
    8MOL   C186 5240   7.257   0.534   4.865 -0.4091 -1.0457 -0.3762
    8MOL   C187 5241   7.306   0.669   4.896  0.3802  0.6120  0.1504
    8MOL   C188 5242   7.258   0.780   4.814  0.1383  0.3513  0.3302
    8MOL   O189 5243   7.143   0.818   4.812  0.3182  0.0745  0.3512
    8MOL   N190 5244   7.350   0.831   4.728 -0.3410  0.3707 -0.6997
    8MOL   C191 5245   7.313   0.909   4.611  0.2100  0.7097 -0.6757
    8MOL   C192 5246   7.377   1.051   4.633 -0.3362 -0.4016  0.7552
    8MOL   C193 5247   7.381   1.135   4.500  1.1445  1.0007  0.0711
    8MOL   C194 5248   7.495   1.230   4.494 -0.6989 -0.3118  1.0158
    8MOL   C195 5249   7.469   1.363   4.563 -0.4180 -0.7721  0.5313
    8MOL   C196 5250   7.586   1.463   4.533 -0.0465 -0.5754  0.5525
    8MOL   N197 5251   7.578   1.591   4.601  0.2345  0.3202 -0.5119
    8MOL   C198 5252   7.403   0.680   4.999 -0.6711 -0.0521 -0.2227
    8MOL   C199 5253   7.454   0.566   5.065  0.2081  0.6425 -0.2669
    8MOL   H200 5254   7.275   0.322   4.899 -1.1494 -0.2797 -1.8876
    8MOL   H201 5255   7.185   0.527   4.785  0.2129  2.9325 -1.3883
    8MOL   H202 5256   7.445   0.798   4.723 -0.4523  0.1542 -1.5849
    8MOL   H203 5257   7.357   0.864   4.522 -0.0620 -1.9633  0.4901
    8MOL   H204 5258   7.206   0.915   4.591 -0.4795 -0.9375  2.2483
    8MOL   H205 5259   7.472   1.039   4.685  0.2020 -1.1566 -0.3747
    8MOL   H206 5260   7.303   1.105   4.691 -0.1365  1.0140 -0.2805
    8MOL   H207 5261   7.392   1.068   4.415  2.5187 -1.4471  2.1132
    8MOL   H208 5262   7.287   1.189   4.484  0.6741  0.4369  0.8861
    8MOL   H209 5263   7.512   1.253   4.389  0.2714 -0.2270  1.1866
    8MOL   H210 5264   7.588   1.190   4.536 -0.7439  0.1269  1.5417
    8MOL   H211 5265   7.475   1.324   4.664 -0.4135 -0.7664  0.5336
    8MOL   H212 5266   7.370   1.404   4.543  0.1931 -0.2668 -1.5780
    8MOL   H213 5267   7.686   1.427   4.557  0.3818  0.0576 -0.2443
    8MOL   H214 5268   7.588   1.484   4.426  1.8321 -0.7607  0.5219
    8MOL   H215 5269   7.621   1.592   4.692 -0.8194 -1.6054  0.0228
    8MOL   H216 5270   7.459   0.771   5.015  1.4593 -1.4398  0.3997
    8MOL   H217 5271   7.530   0.575   5.142 -0.1570 -2.0008  0.4541
    8MOL   C218 5272   7.540   1.707   4.544 -0.1570 -0.7365  0.5541
    8MOL   O219 5273   7.515   1.723   4.420  0.2645  0.4198  0.0155
    8MOL   C220 5274   7.530   1.824   4.636  0.4045  0.2222  0.0564
    8MOL   C221 5275   7.628   1.846   4.741  0.3468 -0.1403 -0.2975
    8MOL   C222 5276   7.612   1.951   4.833  0.1007 -1.1391  0.4239
    8MOL   C223 5277   7.500   2.032   4.829  0.8784  0.1814  0.0794
    8MOL   C224 5278   7.478   2.129   4.942 -1.2485 -0.7595 -0.4829
    8MOL   O225 5279   7.571   2.173   5.013  0.1067 -0.3418 -0.4544
    8MOL   N226 5280   7.354   2.181   4.949  0.5786 -0.6093 -0.1575
    8MOL   C227 5281   7.303   2.285   5.028  0.8330 -0.1638  0.0322
    8MOL   C228 5282   7.396   2.402   5.032  0.3125 -0.3551  0.8637
    8MOL   C229 5283   7.329   2.528   5.080 -0.2378  0.5116  0.2269
    8MOL   C230 5284   7.425   2.649   5.067  0.4691  0.0522 -0.5489
    8MOL   C231 5285   7.363   2.786   5.094 -0.6578  0.1794  0.3415
    8MOL   C232 5286   7.308   2.801   5.233  0.3305  0.2245  0.5200
    8MOL   N233 5287   7.408   2.768   5.337 -0.5767  1.5533  0.1588
    8MOL   C234 5288   7.413   2.024   4.719 -0.6009  0.6989 -0.4109
    8MOL   C235 5289   7.424   1.921   4.625  0.0464 -0.0534 -0.1352
    8MOL   H236 5290   7.710   1.777   4.755  0.1282 -0.2066  0.7433
    8MOL   H237 5291   7.685   1.956   4.912 -0.2777 -1.9148  0.8262
    8MOL   H238 5292   7.286   2.136   4.890  1.1340 -0.4546 -0.9195
    8MOL   H239 5293   7.213   2.309   4.972  0.9460 -2.9037 -1.3757
    8MOL   H240 5294   7.277   2.250   5.128  1.7714  1.4685  0.8883
    8MOL   H241 5295   7.445   2.429   4.938 -1.3691  1.4595  0.4734
    8MOL   H242 5296   7.482   2.377   5.094  0.0330  0.6916  1.6848
    8MOL   H243 5297   7.245   2.539   5.012 -1.2083 -1.2826  1.0855
    8MOL   H244 5298   7.299   2.510   5.184  1.6156  1.3150  0.9272
    8MOL   H245 5299   7.455   2.661   4.963 -0.3790  0.6142 -0.7341
    8MOL   H246 5300   7.511   2.622   5.129 -0.4499 -1.2222  0.1948
    8MOL   H247 5301   7.294   2.831   5.023  0.0303 -0.1846 -0.5778
    8MOL   H248 5302   7.448   2.850   5.074  0.0420 -1.1958 -1.2142
    8MOL   H249 5303   7.276   2.905   5.241  1.1730  0.7714 -2.5826
    8MOL   H250 5304   7.220   2.738   5.246 -0.4331  1.0653 -0.5029
    8MOL   H251 5305   7.488   2.829   5.338  0.5699  0.1114 -0.8200
    8MOL   H252 5306   7.341   2.103   4.704  0.5297  1.7402 -0.4307
    8MOL   H253 5307   7.352   1.925   4.544  1.4069  2.8265 -1.2678
    8MOL   C254 5308   7.418   2.668   5.423  0.4461  0.2877  0.2886
    8MOL   O255 5309   7.325   2.604   5.460 -0.3523 -0.6709  0.8138
    8MOL   C256 5310   7.561   2.632   5.445  0.1750  0.9441 -0.0032
    8MOL   C257 5311   7.622   2.531   5.365  0.5245 -0.9200  0.0251
    8MOL   C258 5312   7.754   2.498   5.398 -0.1749 -0.8195  0.4407
    8MOL   C259 5313   7.829   2.569   5.494  0.3480 -0.1816  0.3689
    8MOL   C260 5314   0.088   2.534   5.523  0.0893  0.3919 -0.3711
    8MOL   O261 5315   0.150   2.454   5.448  0.2328  0.3345 -0.1131
    8MOL   N262 5316   0.143   2.588   5.632  0.6585 -0.0665  0.1247
    8MOL   C263 5317   0.278   2.560   5.680  0.8022 -0.3902  0.5952
    8MOL   C264 5318   0.284   2.440   5.775 -0.1136 -0.3867  0.5577
    8MOL   C265 5319   0.183   2.434   5.897 -0.9382 -0.9748  0.2381
    8MOL   C266 5320   0.206   2.319   5.998 -0.2040 -0.8063 -0.0833
    8MOL   C267 5321   0.080   2.271   6.077  0.0055 -0.5275 -0.0208
    8MOL   C268 5322   0.064   2.336   6.225  0.4269 -0.0215  0.5173
    8MOL   N269 5323   7.845   2.278   6.300 -0.4671  0.2387  0.2300
    8MOL   C270 5324   7.764   2.667   5.571 -0.1328  0.1057  0.4930
    8MOL   C271 5325   7.629   2.696   5.547 -0.4281 -1.7621 -0.4900
    8MOL   H272 5326   7.572   2.482   5.283  1.6095 -0.9461 -0.6312
    8MOL   H273 5327   7.806   2.424   5.339 -1.7355  0.8758 -3.1976
    8MOL   H274 5328   0.092   2.662   5.677  1.3507  1.3375 -1.3385
    8MOL   H275 5329   0.347   2.553   5.596  0.2478 -0.6446  0.1589
    8MOL   H276 5330   0.307   2.646   5.741  3.4927 -1.2452  0.5481
    8MOL   H277 5331   0.385   2.426   5.814 -0.4100  1.7660  2.1992
    8MOL   H278 5332   0.272   2.354   5.709  1.9719  0.0358 -0.4352
    8MOL   H279 5333   0.172   2.531   5.946  1.8963  0.5555 -2.0247
    8MOL   H280 5334   0.086   2.416   5.850 -0.8564 -2.1638  0.4949
    8MOL   H281 5335   0.292   2.329   6.064 -0.7536  0.7262  0.4098
    8MOL   H282 5336   0.241   2.235   5.938  0.2965 -0.0347 -0.8798
    8MOL   H283 5337   0.100   2.165   6.095 -3.2205 -1.2621 -0.4415
    8MOL   H284 5338   7.871   2.282   6.025  0.1996 -1.2133 -0.5393
    8MOL   H285 5339   0.153   2.314   6.284  0.3259 -1.5940  0.0914
    8MOL   H286 5340   0.053   2.443   6.208  0.0156 -0.0691  0.4940
    8MOL   H287 5341   7.800   2.198   6.259 -0.7533  0.8660 -0.7214
    8MOL   H288 5342   7.824   2.726   5.639 -1.2880  1.4322  0.3855
    8MOL   H289 5343   7.575   2.765   5.610  1.8565  0.1405 -0.5303
    8MOL   C290 5344   7.783   2.344   6.401 -0.6454  0.0484  0.1738
    8MOL   O291 5345   7.836   2.442   6.457  0.1456 -0.0053  0.0716
    8MOL   C292 5346   7.653   2.289   6.442 -0.1129 -0.4025  0.0075
    8MOL   C293 5347   7.641   2.154   6.452  0.4059  0.9882  0.5053
    8MOL   C294 5348   7.520   2.096   6.495 -0.8542  0.3906 -0.0855
    8MOL   C295 5349   7.411   2.173   6.546 -0.1515 -0.0800 -0.5762
    8MOL   C296 5350   7.288   2.108   6.601 -1.1662 -0.3799 -0.4263
    8MOL   O297 5351   7.251   2.000   6.557 -1.1986  0.4383  0.2990
    8MOL   N298 5352   7.236   2.180   6.698  0.1894 -0.1076 -0.2901
    8MOL   C299 5353   7.110   2.146   6.763  0.2105 -1.0603  0.4492
    8MOL   C300 5354   6.992   2.232   6.714  0.7838  0.1175  0.6534
    8MOL   C301 5355   6.962   2.261   6.569  0.2553  0.4597  0.3378
    8MOL   C302 5356   7.041   2.374   6.508  0.8567 -0.0859 -0.4648
    8MOL   C303 5357   7.003   2.411   6.367  0.0734 -0.0878  0.0707
    8MOL   C304 5358   7.100   2.510   6.296 -0.1806  0.5908  0.0733
    8MOL   N305 5359   7.120   2.637   6.367  0.0974  0.1169  0.8372
    8MOL   C306 5360   7.436   2.315   6.549  0.2752  0.4250  0.0700
    8MOL   C307 5361   7.551   2.371   6.492  0.3065  0.1735 -0.1831
    8MOL   H308 5362   7.700   2.082   6.399  0.1060  0.8637  0.3400
    8MOL   H309 5363   7.509   1.989   6.502  1.2978  0.2213  1.1898
    8MOL   H310 5364   7.298   2.248   6.740 -1.2109  0.0580  1.5493
    8MOL   H311 5365   7.085   2.040   6.759 -1.9166 -0.5425 -0.6406
    8MOL   H312 5366   7.133   2.163   6.868  3.0359  0.1134 -0.3110
    8MOL   H313 5367   6.993   2.329   6.765 -1.9066  1.1023 -1.0161
    8MOL   H314 5368   6.897   2.189   6.749  0.5359 -0.8997 -1.2416
    8MOL   H315 5369   6.968   2.167   6.514 -0.4050  0.4856  0.2204
    8MOL   H316 5370   6.857   2.286   6.557  0.2352 -0.6559 -1.8506
    8MOL   H317 5371   7.146   2.347   6.512  0.8663 -0.1665 -1.1990
    8MOL   H318 5372   7.036   2.464   6.570  0.3505  0.6743 -1.5914
    8MOL   H319 5373   6.900   2.445   6.371 -0.2512 -1.1092  0.3540
    8MOL   H320 5374   6.981   2.331   6.297 -0.6844  0.9002 -0.8459
    8MOL   H321 5375   7.192   2.453   6.280  1.2023  2.7079  0.2288
    8MOL   H322 5376   7.065   2.542   6.198 -1.2368  2.1004  0.9199
    8MOL   H323 5377   7.048   2.696   6.407 -1.2070 -0.5416 -0.5072
    8MOL   H324 5378   7.365   2.393   6.575  1.6179  1.3762  0.9888
    8MOL   H325 5379   7.578   2.475   6.482  1.9175 -0.3962 -1.9036
    8MOL   C326 5380   7.241   2.698   6.363 -0.2672 -0.1177  0.0857
    8MOL   O327 5381   7.342   2.640   6.324  0.2571  0.4399 -0.4850
    8MOL   C328 5382   7.245   2.845   6.391 -0.4941  0.0639  0.0306
    8MOL   C329 5383   7.144   2.920   6.455  0.2724 -0.7367 -0.0749
    8MOL   C330 5384   7.164   3.057   6.491 -0.7280 -0.1533  0.9156
    8MOL   C331 5385   7.278   3.126   6.445  0.1292 -0.7893 -0.1038
    8MOL   C332 5386   7.287   3.277   6.453  0.5833  0.4757 -0.2504
    8MOL   O333 5387   7.390   3.334   6.457  0.4766 -0.3880 -0.4170
    8MOL   N334 5388   7.173   3.341   6.455 -0.3709  0.1834 -0.1125
    8MOL   C335 5389   7.144   3.480   6.479 -0.4100 -0.5127  0.9124
    8MOL   C336 5390   7.053   3.490   6.598  0.3160  0.4510  0.1522
    8MOL   C337 5391   7.103   3.432   6.726  0.3730  0.0580 -0.4705
    8MOL   C338 5392   7.004   3.440   6.847 -0.1875  0.3843  0.2090
    8MOL   C339 5393   6.863   3.382   6.827  0.2760  0.2002  1.1346
    8MOL   C340 5394   6.863   3.231   6.808 -0.0042  0.4126  0.7107
    8MOL   N341 5395   6.753   3.177   6.731 -0.4923 -0.1981  0.2108
    8MOL   C342 5396   7.381   3.057   6.373 -0.0334 -0.5163 -0.6358
    8MOL   C343 5397   7.361   2.920   6.355  0.0502 -0.5596 -0.8903
    8MOL   H344 5398   7.046   2.882   6.478 -0.4892  1.2012 -0.0057
    8MOL   H345 5399   7.088   3.118   6.537  0.6874  1.7647  0.8216
    8MOL   H346 5400   7.094   3.282   6.434 -0.3800  0.9047 -2.1959
    8MOL   H347 5401   7.238   3.534   6.494 -1.0105  0.4377  1.3044
    8MOL   H348 5402   7.098   3.520   6.389  0.7074 -0.0394  0.5393
    8MOL   H349 5403   6.960   3.441   6.570 -0.2551  2.3390 -1.3577
    8MOL   H350 5404   7.026   3.595   6.607 -0.5312  0.3232 -0.8087
    8MOL   H351 5405   7.129   3.327   6.711  1.3459  0.1667  0.3962
    8MOL   H352 5406   7.197   3.476   6.759 -0.1331  1.5573 -1.0012
    8MOL   H353 5407   6.997   3.547   6.869  0.6315  0.6518 -0.7780
    8MOL   H354 5408   7.042   3.388   6.935 -1.8127  0.7397  1.1353
    8MOL   H355 5409   6.820   3.427   6.737 -1.4908  2.1347  2.8911
    8MOL   H356 5410   6.802   3.406   6.914 -0.7125 -3.4752  1.5406
    8MOL   H357 5411   6.956   3.196   6.763 -1.5282  1.2854 -3.3786
    8MOL   H358 5412   6.843   3.199   6.910  3.0808 -0.1322  1.1788
    8MOL   H359 5413   6.671   3.141   6.778 -0.4979 -0.9257 -0.3434
    8MOL   H360 5414   7.462   3.119   6.339  0.1330  0.4743  1.4401
    8MOL   H361 5415   7.435   2.863   6.299  0.0715 -0.3696 -1.0542
    8MOL   C362 5416   6.759   3.163   6.595  0.0271 -0.4021 -0.4716
    8MOL   O363 5417   6.852   3.184   6.516  0.3714 -0.7902 -0.4963
    8MOL   C364 5418   6.638   3.098   6.534  1.2651 -0.4275  0.6236
    8MOL   C365 5419   6.509   3.154   6.539 -0.1780  0.5658 -0.3188
    8MOL   C366 5420   6.398   3.087   6.500  0.0929  0.1656 -0.2161
    8MOL   C367 5421   6.410   2.954   6.443  0.4738  0.1407 -0.2510
    8MOL   C368 5422   6.284   2.870   6.412  0.0012 -0.0176  0.8388
    8MOL   O369 5423   6.169   2.898   6.458 -0.0658  0.2013  0.4977
    8MOL   N370 5424   6.308   2.759   6.339  0.3000  0.3559  0.2364
    8MOL   C371 5425   6.209   2.657   6.308  0.0002  0.3481  0.2462
    8MOL   C372 5426   6.206   2.559   6.425  0.7594  1.0222 -1.0190
    8MOL   C373 5427   6.160   2.416   6.377  0.3093 -0.1619  0.0261
    8MOL   C374 5428   6.029   2.411   6.296  0.4442  0.6442  0.2367
    8MOL   C375 5429   5.965   2.273   6.280 -0.3724 -0.1364  1.0464
    8MOL   C376 5430   5.880   2.224   6.397  1.4700 -0.1242 -0.5776
    8MOL   N377 5431   5.756   2.296   6.415  0.0483 -0.3153  0.3436
    8MOL   C378 5432   6.542   2.905   6.419 -0.2326 -0.4830  0.3107
    8MOL   C379 5433   6.652   2.978   6.459 -0.2421  0.4679  0.0208
    8MOL   H380 5434   6.498   3.247   6.593  0.4663 -0.3802  1.5156
    8MOL   H381 5435   6.298   3.124   6.516 -0.2052 -1.0443  0.8445
    8MOL   H382 5436   6.403   2.756   6.305  0.0560  0.6704 -0.4905
    8MOL   H383 5437   6.110   2.703   6.305  0.1303  0.5341 -2.4510
    8MOL   H384 5438   6.221   2.599   6.216  1.0715  0.7829  0.1119
    8MOL   H385 5439   6.145   2.600   6.505  1.8005 -0.5369  0.6382
    8MOL   H386 5440   6.305   2.543   6.468 -0.0217  3.2617  1.7746
    8MOL   H387 5441   6.240   2.372   6.318 -0.2081 -0.7371 -0.2380
    8MOL   H388 5442   6.153   2.345   6.460 -2.1291  1.0721  0.9354
    8MOL   H389 5443   6.067   2.449   6.201  1.6942 -2.4512 -0.5464
    8MOL   H390 5444   5.954   2.486   6.321 -0.0988  0.7664 -1.6951
    8MOL   H391 5445   6.047   2.204   6.259 -0.4027  0.2633 -0.4283
    8MOL   H392 5446   5.905   2.272   6.189  0.7503 -0.4090  0.3052
    8MOL   H393 5447   5.867   2.117   6.388  1.7497 -0.0069 -2.5508
    8MOL   H394 5448   5.941   2.239   6.486 -0.7135 -1.4870  1.2029
    8MOL   H395 5449   5.752   2.397   6.421 -0.3714 -0.3622  0.8011
    8MOL   H396 5450   6.558   2.808   6.374 -0.7787 -0.9002  0.9865
    8MOL   H397 5451   6.751   2.937   6.443 -1.0341 -1.1759 -0.8414
    8MOL   C398 5452   5.635   2.250   6.382 -0.0774  0.3170 -0.6605
    8MOL   O399 5453   5.625   2.138   6.339  0.3916 -0.2620  0.3662
    8MOL   C400 5454   5.527   2.358   6.394  0.2545 -0.2822  0.2626
    8MOL   C401 5455   5.548   2.471   6.310  0.3603 -0.3893 -1.3398
    8MOL   C402 5456   5.439   2.555   6.291  0.3796 -0.0465  0.0352
    8MOL   C403 5457   5.309   2.531   6.344 -0.1078  0.0023  0.0708
    8MOL   C404 5458   5.198   2.623   6.325 -1.1843  0.6506 -0.0610
    8MOL   O405 5459   5.134   2.654   6.425 -0.0324  0.1150  0.3405
    8MOL   N406 5460   5.182   2.680   6.205  0.3392 -0.0828  0.2157
    8MOL   C407 5461   5.072   2.771   6.165  0.4031 -0.1281 -0.4881
    8MOL   C408 5462   5.102   2.864   6.048 -0.6514  0.4599 -0.6850
    8MOL   C409 5463   5.228   2.949   6.061 -0.3847 -0.0854 -0.5862
    8MOL   C410 5464   5.242   3.031   6.191  0.4154  0.4372 -0.6567
    8MOL   C411 5465   5.389   3.080   6.212  0.2528 -0.0762  0.0549
    8MOL   C412 5466   5.408   3.137   6.355 -0.1131 -0.1800  0.2427
    8MOL   N413 5467   5.415   3.033   6.450  0.2334  0.3115  0.3078
    8MOL   C414 5468   5.293   2.425   6.430 -0.3695  0.0313 -0.6447
    8MOL   C415 5469   5.400   2.332   6.452  0.2177  0.1278 -0.1839
    8MOL   H416 5470   5.643   2.490   6.261  0.5218  1.8267 -0.2438
    8MOL   H417 5471   5.443   2.643   6.228 -0.2575 -0.8404 -1.1280
    8MOL   H418 5472   5.235   2.640   6.129 -0.9541 -0.0316 -0.7222
    8MOL   H419 5473   4.985   2.710   6.144  1.2831 -1.5295 -0.1078
    8MOL   H420 5474   5.044   2.835   6.249 -1.4468 -1.6675  0.0919
    8MOL   H421 5475   5.004   2.912   6.037 -0.4820  1.1618  0.7670
    8MOL   H422 5476   5.116   2.812   5.953  1.9541  0.3738 -0.2689
    8MOL   H423 5477   5.316   2.890   6.037 -0.8833 -1.5727  1.1567
    8MOL   H424 5478   5.219   3.016   5.975  1.6629  1.7058  0.5696
    8MOL   H425 5479   5.241   2.950   6.264  3.0677 -0.6528 -1.7597
    8MOL   H426 5480   5.164   3.105   6.210  1.0504  0.4886  2.0269
    8MOL   H427 5481   5.412   3.163   6.145  0.4714  0.0246  0.2548
    8MOL   H428 5482   5.458   2.999   6.192 -0.7428 -0.8503 -0.3048
    8MOL   H429 5483   5.496   3.202   6.352 -0.8701  0.7363 -2.5444
    8MOL   H430 5484   5.336   3.209   6.393 -0.2020 -0.1930  0.0969
    8MOL   H431 5485   5.331   2.979   6.464  0.1323  0.6801  1.2132
    8MOL   H432 5486   5.197   2.409   6.476  0.3087 -0.9491  0.4927
    8MOL   H433 5487   5.388   2.240   6.508  1.8837 -1.1029 -1.7982
    8MOL   C434 5488   5.498   3.020   6.549 -0.5376 -0.2716 -0.4052
    8MOL   O435 5489   5.597   3.092   6.563  0.1205 -0.4225  0.2651
    8MOL   C436 5490   5.488   2.905   6.647 -0.3524  0.0536 -0.3992
    8MOL   C437 5491   5.534   2.921   6.782 -0.7022  0.1070 -0.2240
    8MOL   C438 5492   5.529   2.810   6.870 -0.3348 -0.3796 -0.1530
    8MOL   C439 5493   5.484   2.687   6.821  0.4745  0.6334  0.0747
    8MOL   C440 5494   5.485   2.574   6.920  0.2460  0.3033 -0.3240
    8MOL   O441 5495   5.556   2.588   7.021 -0.4332 -0.4845  1.1068
    8MOL   N442 5496   5.412   2.465   6.901  0.4044  0.3757  0.2783
    8MOL   C443 5497   5.409   2.345   6.986 -0.0569  0.0778 -0.2388
    8MOL   C444 5498   5.516   2.243   6.950  0.1163 -1.0016 -0.1183
    8MOL   C445 5499   5.516   2.176   6.813  0.7278  0.4895 -0.9033
    8MOL   C446 5500   5.628   2.058   6.801 -0.5112  0.4851 -0.1480
    8MOL   C447 5501   5.617   1.930   6.881 -0.2793 -0.0793 -0.7355
    8MOL   C448 5502   5.687   1.803   6.826 -0.5023  0.2671  0.0199
    8MOL   N449 5503   5.832   1.813   6.822 -0.5296  0.6698  0.0311
    8MOL   C450 5504   5.444   2.669   6.689  0.3873 -0.6505 -0.6288
    8MOL   C451 5505   5.453   2.779   6.600 -0.2346 -0.1711 -0.7403
    8MOL   H452 5506   5.564   3.015   6.827 -3.1299  0.9247 -0.2574
    8MOL   H453 5507   5.550   2.820   6.975 -2.5471 -0.5659  0.3319
    8MOL   H454 5508   5.338   2.471   6.833 -2.0118 -0.7815  2.7070
    8MOL   H455 5509   5.424   2.373   7.090  1.6147 -2.5355  0.2775
    8MOL   H456 5510   5.310   2.303   6.970 -0.1830  0.1716  0.3000
    8MOL   H457 5511   5.518   2.168   7.029  2.0403  1.7911  2.6317
    8MOL   H458 5512   5.619   2.278   6.962 -0.1465  0.1925 -1.2161
    8MOL   H459 5513   5.414   2.139   6.802  1.4097 -1.8926  0.5028
    8MOL   H460 5514   5.531   2.249   6.733  0.5178  0.8469 -0.6148
    8MOL   H461 5515   5.728   2.101   6.805 -0.1593 -0.1965 -1.3563
    8MOL   H462 5516   5.616   2.025   6.698  1.1623  2.1083 -0.8978
    8MOL   H463 5517   5.511   1.908   6.895 -0.2388  0.5841  0.7766
    8MOL   H464 5518   5.652   1.956   6.981 -2.9497  1.0010 -0.0461
    8MOL   H465 5519   5.689   1.729   6.906 -0.9074 -1.3458 -1.4408
    8MOL   H466 5520   5.639   1.755   6.741 -3.5065  0.4970  1.5133
    8MOL   H467 5521   5.884   1.776   6.901 -0.6326  1.1725  0.3379
    8MOL   H468 5522   5.408   2.572   6.657 -3.6923  0.5291  0.1058
    8MOL   H469 5523   5.424   2.774   6.496  1.3917  0.4722 -1.2425
    8MOL   C470 5524   5.909   1.829   6.713 -0.1003  0.6793 -0.3774
    8MOL   O471 5525   5.864   1.876   6.613 -0.2131 -0.1889 -0.1755
    8MOL   C472 5526   6.057   1.792   6.728  0.5161  0.2416  0.3216
    8MOL   C473 5527   6.089   1.667   6.782  0.7874  0.2364  0.8789
    8MOL   C474 5528   6.223   1.620   6.789  0.5383  0.0772  0.6625
    8MOL   C475 5529   6.325   1.704   6.740  0.0276 -0.3654  0.7331
    8MOL   C476 5530   6.467   1.666   6.761  0.4454  0.0596  0.2083
    8MOL   O477 5531   6.490   1.557   6.807 -0.3503 -0.1129  0.4256
    8MOL   N478 5532   6.560   1.761   6.737 -0.0262  0.1193 -0.4900
    8MOL   C479 5533   6.693   1.759   6.791  0.3038  0.3644  0.3273
    8MOL   C480 5534   6.774   1.876   6.730 -0.0552  0.4524  0.4971
    8MOL   C481 5535   6.816   1.867   6.577 -0.3227 -0.5243  0.7297
    8MOL   C482 5536   6.713   1.892   6.464  0.5847  1.0490  0.1776
    8MOL   C483 5537   6.762   1.872   6.318  0.0173 -0.0318  0.7310
    8MOL   C484 5538   6.672   1.926   6.211  0.1171  0.4317  0.2155
    8MOL   N485 5539   6.543   1.858   6.217 -0.0103  0.6275 -0.4425
    8MOL   C486 5540   6.294   1.828   6.682  0.7023  0.2168 -0.1414
    8MOL   C487 5541   6.161   1.875   6.677 -0.2687  0.3027 -0.4000
    8MOL   H488 5542   6.009   1.603   6.816 -0.0122  1.2937  1.0058
    8MOL   H489 5543   6.246   1.519   6.820  1.7258  0.7187  1.9307
    8MOL   H490 5544   6.526   1.851   6.707 -2.1218 -1.1354 -1.9464
    8MOL   H491 5545   6.664   1.764   6.896 -0.1012  1.1642  0.1831
    8MOL   H492 5546   6.749   1.666   6.786 -0.3911 -0.0223 -0.5246
    8MOL   H493 5547   6.863   1.883   6.792  0.2378 -0.2432  0.1597
    8MOL   H494 5548   6.726   1.973   6.748  1.2582  1.2148 -0.0905
    8MOL   H495 5549   6.896   1.940   6.567 -0.3729 -0.7197 -1.3002
    8MOL   H496 5550   6.873   1.775   6.563 -0.0899 -0.0500 -1.7132
    8MOL   H497 5551   6.682   1.996   6.461  0.0089  0.8695 -0.0593
    8MOL   H498 5552   6.620   1.836   6.470  0.4237  0.7938 -3.4828
    8MOL   H499 5553   6.779   1.766   6.301  0.0625  0.2395 -1.0400
    8MOL   H500 5554   6.858   1.923   6.320  0.1120 -0.2562  1.9335
    8MOL   H501 5555   6.666   2.034   6.224  1.7491  0.6039 -0.4003
    8MOL   H502 5556   6.718   1.902   6.115 -0.3212 -0.8302  0.3102
    8MOL   H503 5557   6.554   1.758   6.229 -0.5588  0.7545  1.2176
    8MOL   H504 5558   6.370   1.897   6.648  1.5354  0.0733  1.3621
    8MOL   H505 5559   6.150   1.969   6.626  0.5457 -0.2141 -1.5478
    8MOL   C506 5560   6.430   1.914   6.253  0.8136 -0.1928  0.0507
    8MOL   O507 5561   6.422   2.032   6.269  0.2077 -0.2310 -0.8761
    8MOL   C508 5562   6.312   1.823   6.262 -0.6680  0.2089  0.3932
    8MOL   C509 5563   6.202   1.868   6.331  0.7143  1.4289 -0.2285
    8MOL   C510 5564   6.093   1.785   6.351  0.3042  0.6696  0.1419
    8MOL   C511 5565   6.084   1.667   6.281 -0.4861 -0.4656  0.3412
    8MOL   C512 5566   5.960   1.578   6.308  0.0382 -0.6621  0.6528
    8MOL   O513 5567   5.907   1.510   6.217 -0.0352 -0.0575  0.2075
    8MOL   N514 5568   5.926   1.567   6.437  0.1374  0.0397  0.9500
    8MOL   C515 5569   5.824   1.491   6.494 -0.0513 -0.1156  0.5209
    8MOL   C516 5570   5.691   1.567   6.493  0.2170 -0.2669 -0.0946
    8MOL   C517 5571   5.562   1.502   6.544 -0.1923  0.1756 -0.4880
    8MOL   C518 5572   5.433   1.581   6.514 -0.3187  0.4961 -0.2027
    8MOL   C519 5573   5.391   1.564   6.364  0.1119 -0.6177  0.2002
    8MOL   C520 5574   5.253   1.625   6.347 -0.6539  0.1827 -0.2064
    8MOL   N521 5575   5.207   1.612   6.211 -0.0569 -0.5164  0.4872
    8MOL   C522 5576   6.193   1.619   6.209  0.0828  0.3660 -0.1808
    8MOL   C523 5577   6.307   1.699   6.195  0.3319  0.0273 -0.9121
    8MOL   H524 5578   6.192   1.964   6.380 -0.9647  2.5863 -2.7484
    8MOL   H525 5579   6.007   1.824   6.403  0.0494  0.3442 -0.0319
    8MOL   H526 5580   5.985   1.619   6.501  0.2467  2.0415 -0.7668
    8MOL   H527 5581   5.819   1.394   6.444 -1.8705  0.6984 -0.9619
    8MOL   H528 5582   5.854   1.467   6.596  2.1792 -2.2609 -0.6100
    8MOL   H529 5583   5.669   1.590   6.389 -0.4509 -0.9287 -0.1019
    8MOL   H530 5584   5.707   1.666   6.538  1.9301 -1.4562  2.0391
    8MOL   H531 5585   5.546   1.401   6.507 -0.6389 -1.0868  2.9164
    8MOL   H532 5586   5.570   1.491   6.653  0.9491  2.8238 -0.2851
    8MOL   H533 5587   5.441   1.687   6.537 -1.1787  0.8009 -1.2864
    8MOL   H534 5588   5.357   1.547   6.585 -0.7278  3.2293  0.7181
    8MOL   H535 5589   5.392   1.460   6.334  2.4254 -0.5614 -0.0434
    8MOL   H536 5590   5.451   1.622   6.293 -0.9490 -0.9050 -0.9636
    8MOL   H537 5591   5.180   1.589   6.419  0.6719 -1.3356  0.4073
    8MOL   H538 5592   5.269   1.728   6.380 -0.5264  0.0055  0.2865
    8MOL   H539 5593   5.249   1.662   6.134  1.3721 -2.1223  0.1782
    8MOL   H540 5594   6.184   1.524   6.158  1.2607  0.1426  0.0116
    8MOL   H541 5595   6.397   1.669   6.143  2.2853 -1.5473  3.2013
    8MOL   C542 5596   5.120   1.523   6.170  0.3081 -0.2887 -0.8755
    8MOL   O543 5597   5.058   1.447   6.244  0.6294  0.2500 -0.3917
    8MOL   C544 5598   5.106   1.509   6.023 -0.1039  0.6893  0.6827
    8MOL   C545 5599   5.102   1.610   5.927  0.1083 -0.2417  0.4199
    8MOL   C546 5600   5.051   1.597   5.798 -0.1079  0.3716 -0.2716
    8MOL   C547 5601   5.021   1.470   5.747  1.0000 -0.1678  0.2546
    8MOL   C548 5602   4.958   1.447   5.617 -0.7452 -0.0558  1.1031
    8MOL   O549 5603   4.893   1.343   5.586 -0.2923  0.2988 -0.5675
    8MOL   N550 5604   4.981   1.547   5.529  0.3447 -0.2692  0.9691
    8MOL   C551 5605   4.917   1.570   5.402 -0.1779  0.1424 -0.2830
    8MOL   C552 5606   4.793   1.661   5.427 -0.0484  0.7892 -0.0490
    8MOL   C553 5607   4.724   1.716   5.305  1.1230 -0.2313  0.3423
    8MOL   C554 5608   4.758   1.864   5.269 -0.2788 -0.2919 -0.0278
    8MOL   C555 5609   4.687   1.927   5.149  0.5692  0.4192 -0.1568
    8MOL   C556 5610   4.741   2.062   5.106  0.2866  0.5773  0.0927
    8MOL   N557 5611   4.887   2.080   5.111  0.6606 -0.2833 -0.7530
    8MOL   C558 5612   5.037   1.360   5.832  0.0782  1.2472 -0.7976
    8MOL   C559 5613   5.074   1.383   5.966 -0.7971  0.3604  0.7770
    8MOL   H560 5614   5.122   1.712   5.954 -0.2318 -0.4772  1.5878
    8MOL   H561 5615   5.052   1.689   5.741 -2.5939  0.2529 -0.5509
    8MOL   H562 5616   5.068   1.594   5.550  0.4822 -0.5867  1.1272
    8MOL   H563 5617   4.989   1.619   5.337  1.2407 -0.4936  0.7766
    8MOL   H564 5618   4.891   1.478   5.349  1.0446 -0.4948  0.1976
    8MOL   H565 5619   4.815   1.746   5.491 -2.7101  1.8507 -0.4833
    8MOL   H566 5620   4.717   1.602   5.478  2.5492 -0.2423  2.8065
    8MOL   H567 5621   4.727   1.655   5.214  1.8040  0.2643  0.0216
    8MOL   H568 5622   4.619   1.728   5.332  0.8751 -0.6229 -0.4356
    8MOL   H569 5623   4.866   1.856   5.257 -0.0071  0.2418  1.9254
    8MOL   H570 5624   4.737   1.925   5.356  0.0981  0.7982 -0.6918
    8MOL   H571 5625   4.581   1.938   5.172  0.9383  0.1180  1.7321
    8MOL   H572 5626   4.700   1.868   5.058 -2.8348  1.4561 -1.4232
    8MOL   H573 5627   4.710   2.074   5.002  0.5866 -0.2493 -0.0940
    8MOL   H574 5628   4.707   2.149   5.162 -2.1711  1.3554 -2.4645
    8MOL   H575 5629   4.933   2.013   5.170 -0.5310 -0.6090 -0.1708
    8MOL   H576 5630   5.011   1.263   5.792  0.3804 -0.1026  2.1600
    8MOL   H577 5631   5.071   1.297   6.032  1.7267 -2.2412 -2.2984
    8MOL   C578 5632   4.953   2.194   5.072 -0.0243  0.3232 -0.3092
    8MOL   O579 5633   4.887   2.283   5.014 -0.5048  0.0436 -0.1638
    8MOL   C580 5634   5.096   2.211   5.113 -0.2448  0.5829  1.2312
    8MOL   C581 5635   5.162   2.340   5.107 -0.0113  1.1790  0.4683
    8MOL   C582 5636   5.293   2.361   5.148 -0.9832 -0.1629 -0.7034
    8MOL   C583 5637   5.367   2.245   5.197  0.6098  0.0839  0.0834
    8MOL   C584 5638   5.509   2.258   5.241 -0.7041  0.1116  0.1372
    8MOL   O585 5639   5.586   2.164   5.217 -0.6993  0.7480 -0.1485
    8MOL   N586 5640   5.547   2.371   5.297  0.2879 -0.3564  0.1906
    8MOL   C587 5641   5.683   2.400   5.336  0.9223  0.5240  0.6184
    8MOL   C588 5642   5.685   2.479   5.468 -0.0913  0.3055  0.7497
    8MOL   C589 5643   5.824   2.533   5.500  0.3533  0.3198  0.0609
    8MOL   C590 5644   5.938   2.424   5.513 -0.1137  0.3169 -0.4771
    8MOL   C591 5645   6.078   2.469   5.555  0.3604  1.1776  0.5335
    8MOL   C592 5646   6.186   2.357   5.541 -0.1460 -0.0699 -0.7244
    8MOL   N593 5647   6.314   2.388   5.594  0.2495 -0.0411 -0.4211
    8MOL   C594 5648   5.302   2.117   5.212 -0.4007  0.4262 -0.0970
    8MOL   C595 5649   5.168   2.100   5.165  0.0162 -0.3063  0.0812
    8MOL   H596 5650   5.118   2.433   5.072 -0.4083  1.1429  0.8576
    8MOL   H597 5651   5.344   2.456   5.147 -0.3935 -0.4692 -0.5213
    8MOL   H598 5652   5.479   2.446   5.299  1.7481  1.0112 -0.2448
    8MOL   H599 5653   5.747   2.314   5.354  0.0705  0.1509  1.9649
    8MOL   H600 5654   5.730   2.451   5.252  2.0923  0.7343  1.3912
    8MOL   H601 5655   5.666   2.396   5.535 -0.7101 -0.9745 -0.9935
    8MOL   H602 5656   5.607   2.556   5.466 -1.1283 -0.7640 -2.1140
    8MOL   H603 5657   5.851   2.618   5.436 -2.3240 -0.5699 -2.3287
    8MOL   H604 5658   5.810   2.579   5.597 -0.8849 -1.3433  0.6849
    8MOL   H605 5659   5.940   2.362   5.424 -0.1934 -1.8021  0.9606
    8MOL   H606 5660   5.898   2.365   5.595  0.8662  1.3177  0.7520
    8MOL   H607 5661   6.079   2.493   5.661  0.2124 -1.0798  1.0600
    8MOL   H608 5662   6.108   2.557   5.497 -0.9914  1.5427  0.3798
    8MOL   H609 5663   6.156   2.275   5.606 -0.0767 -0.2445 -0.9104
    8MOL   H610 5664   6.193   2.319   5.439  0.8904 -0.5734 -0.4768
    8MOL   H611 5665   6.326   2.475   5.643  2.3442 -0.5335  0.0029
    8MOL   H612 5666   5.361   2.032   5.241 -0.8148 -0.1172 -0.8240
    8MOL   H613 5667   5.126   2.000   5.174  1.2923 -0.8241  0.3555
    8MOL   C614 5668   6.417   2.306   5.589  0.0629  0.5599  0.3645
    8MOL   O615 5669   6.407   2.195   5.545  0.3359 -0.4568  0.0206
    8MOL   C616 5670   6.549   2.345   5.655  0.3719  0.9125  0.3451
    8MOL   C617 5671   6.558   2.466   5.719 -0.2797 -0.6199 -0.0833
    8MOL   C618 5672   6.679   2.500   5.789  0.9474 -0.1746  0.4905
    8MOL   C619 5673   6.789   2.415   5.792  0.5952 -0.1390 -0.8044
    8MOL   C620 5674   6.903   2.448   5.885 -0.0983  0.1777 -0.6138
    8MOL   O621 5675   6.883   2.499   5.991 -0.4399 -0.0292 -0.8849
    8MOL   N622 5676   7.024   2.425   5.829  0.5761 -0.6556 -0.3350
    8MOL   C623 5677   7.159   2.468   5.867 -0.5243 -0.0849 -0.7460
    8MOL   C624 5678   7.163   2.622   5.842  0.4004  0.0494  0.5491
    8MOL   C625 5679   7.298   2.684   5.879  0.5550  0.2669 -0.3216
    8MOL   C626 5680   7.298   2.839   5.875  0.5134  0.3255 -0.5784
    8MOL   C627 5681   7.436   2.901   5.881 -0.1278 -0.0331  0.1549
    8MOL   C628 5682   7.489   2.910   6.026 -0.3452  0.4858 -0.0548
    8MOL   N629 5683   7.611   2.986   6.041 -0.2768  0.6945 -0.1045
    8MOL   C630 5684   6.781   2.297   5.717 -0.7197 -0.3520 -0.1957
    8MOL   C631 5685   6.662   2.261   5.653 -0.3064  0.3689  0.2038
    8MOL   H632 5686   6.477   2.538   5.714  0.3042  0.0527 -0.0538
    8MOL   H633 5687   6.687   2.584   5.856  5.2147  0.0436 -0.1432
    8MOL   H634 5688   7.019   2.372   5.743 -0.7667  1.2906 -1.4836
    8MOL   H635 5689   7.194   2.441   5.967  1.1223  1.3568 -0.9213
    8MOL   H636 5690   7.228   2.429   5.793  0.4497 -0.1638  0.1862
    8MOL   H637 5691   7.104   2.670   5.920 -0.1391  2.8477 -1.5116
    8MOL   H638 5692   7.118   2.651   5.747 -0.1217  0.6953  0.9859
    8MOL   H639 5693   7.319   2.648   5.980  0.7106 -1.0511 -0.8128
    8MOL   H640 5694   7.377   2.644   5.815  0.2330  1.3492 -1.4018
    8MOL   H641 5695   7.233   2.879   5.953  0.1183 -0.4440 -0.5014
    8MOL   H642 5696   7.246   2.854   5.780 -0.6796  0.6905  0.1200
    8MOL   H643 5697   7.431   2.995   5.827 -3.2647 -0.2130  0.0330
    8MOL   H644 5698   7.505   2.842   5.821  0.6930  2.8507 -1.8126
    8MOL   H645 5699   7.411   2.961   6.084 -1.4696  0.6654 -1.6806
    8MOL   H646 5700   7.503   2.810   6.066  0.7632  0.5521 -0.2731
    8MOL   H647 5701   7.701   2.940   6.046 -1.9928 -2.6274  2.2936
    8MOL   H648 5702   6.867   2.234   5.702 -1.0878 -0.7830 -0.5235
    8MOL   H649 5703   6.673   2.166   5.602 -1.1654 -0.1156  0.9102
    8MOL   C650 5704   7.622   3.118   6.032  0.1299 -0.7011  0.0425
    8MOL   O651 5705   7.524   3.190   6.009 -0.3783  0.4615  0.3554
    8MOL   C652 5706   7.761   3.182   6.067 -0.4037 -0.2085 -0.3718
    8MOL   C653 5707   7.878   3.095   6.070  0.2406  0.1956 -0.4187
    8MOL   C654 5708   0.114   3.153   6.093  0.6425  0.2528  0.3348
    8MOL   C655 5709   0.126   3.288   6.131 -0.0960 -0.1451  0.0211
    8MOL   C656 5710   0.259   3.341   6.175 -0.2462 -0.0526  0.0369
    8MOL   O657 5711   0.275   3.415   6.273 -0.1252 -0.0365  0.2635
    8MOL   N658 5712   0.370   3.299   6.105 -0.3714 -0.3074  0.2413
    8MOL   C659 5713   0.511   3.311   6.146 -0.1661  0.3229  0.0305
    8MOL   C660 5714   0.563   3.189   6.224 -0.5872  0.0409 -0.0392
    8MOL   C661 5715   0.690   3.207   6.297  0.1620  0.0009 -0.5762
    8MOL   C662 5716   0.742   3.072   6.339 -0.0705 -0.1290 -0.1325
    8MOL   C663 5717   0.868   3.080   6.425  0.3143  0.1916 -0.0701
    8MOL   C664 5718   0.911   2.938   6.455  0.2262  0.7478  0.0052
    8MOL   N665 5719   1.054   2.932   6.497 -0.1012  0.1377 -0.0176
    8MOL   C666 5720   0.009   3.368   6.143  0.3183  0.5036  0.0292
    8MOL   C667 5721   7.768   3.314   6.106 -0.6570 -0.2344  0.4243
    8MOL   H668 5722   7.881   2.990   6.048  0.5103 -0.6812  3.4825
    8MOL   H669 5723   0.207   3.097   6.086  0.9632  0.6387  1.3976
    8MOL   H670 5724   0.354   3.272   6.009  2.0590  0.6288 -0.4448
    8MOL   H671 5725   0.569   3.336   6.058  0.4571 -0.3808  0.2345
    8MOL   H672 5726   0.527   3.392   6.217  2.3329  0.9263 -1.1730
    8MOL   H673 5727   0.576   3.111   6.148 -1.0635  0.3141 -0.4028
    8MOL   H674 5728   0.492   3.155   6.299  1.7074  1.1431  2.7132
    8MOL   H675 5729   0.769   3.254   6.238  1.2952  0.6697  1.3986
    8MOL   H676 5730   0.674   3.266   6.387  0.5587 -0.2055 -0.3689
    8MOL   H677 5731   0.754   3.010   6.249  2.0221 -0.6307  0.4640
    8MOL   H678 5732   0.663   3.026   6.398  0.2414 -0.5566 -0.0474
    8MOL   H679 5733   0.864   3.140   6.516  0.5275 -1.7554  1.2578
    8MOL   H680 5734   0.950   3.126   6.369 -1.0181  1.8198 -0.6975
    8MOL   H681 5735   0.846   2.885   6.525  0.6047 -0.7200 -0.7271
    8MOL   H682 5736   0.900   2.879   6.364 -1.1970  1.5728 -0.3778
    8MOL   H683 5737   1.072   2.969   6.589 -0.5079 -1.1715  0.5945
    8MOL   H684 5738   0.020   3.471   6.176  1.3340  0.0234  1.2211
    8MOL   H685 5739   7.681   3.377   6.097 -0.9789 -0.9862 -2.0509
    8MOL   C686 5740   1.154   2.881   6.427 -0.5669 -0.6430  0.2418
    8MOL   O687 5741   1.130   2.815   6.324  0.0454 -0.5677  0.0799
    8MOL   C688 5742   1.294   2.917   6.483  0.3252 -0.0922  1.0184
    8MOL   C689 5743   1.412   2.845   6.451  0.7303 -0.2202 -0.5582
    8MOL   C690 5744   1.540   2.880   6.502 -0.2150 -0.3895 -0.0988
    8MOL   C691 5745   1.549   3.000   6.582  0.1220 -0.0713 -0.6631
    8MOL   C692 5746   1.673   3.041   6.652 -0.1878 -0.5280  0.4079
    8MOL   O693 5747   1.756   2.963   6.698 -0.0177 -0.0119  0.2754
    8MOL   N694 5748   1.697   3.170   6.649  0.4060  0.3787 -0.5963
    8MOL   C695 5749   1.821   3.231   6.688 -0.1145 -0.9841  0.1484
    8MOL   C696 5750   1.776   3.374   6.721 -0.0601  0.1868  0.1123
    8MOL   C697 5751   1.898   3.463   6.756 -1.0912  0.2856 -0.2507
    8MOL   C698 5752   1.869   3.610   6.781  0.2151  0.3241 -0.1401
    8MOL   C699 5753   1.996   3.692   6.804 -0.7451 -0.4749  0.4646
    8MOL   C700 5754   1.961   3.845   6.800 -0.0454  0.5241 -0.5338
    8MOL   N701 5755   1.903   3.873   6.930  0.1297  0.1966 -0.4131
    8MOL   C702 5756   1.429   3.069   6.614 -0.0769  1.0102 -0.2405
    8MOL   C703 5757   1.308   3.032   6.559 -0.0067  0.0886 -0.0494
    8MOL   H704 5758   1.417   2.773   6.371  2.1000 -0.5798 -0.1670
    8MOL   H705 5759   1.625   2.823   6.467  0.6623  1.5418 -1.2058
    8MOL   H706 5760   1.645   3.227   6.583 -0.9276 -0.9861 -0.7385
    8MOL   H707 5761   1.860   3.191   6.781 -0.3645 -3.2171 -0.6881
    8MOL   H708 5762   1.894   3.233   6.606  0.9251 -1.4134  1.0576
    8MOL   H709 5763   1.716   3.373   6.811 -1.6999 -0.9076 -0.9719
    8MOL   H710 5764   1.710   3.416   6.645  0.9435 -0.4233 -1.1158
    8MOL   H711 5765   1.957   3.423   6.838 -0.4693  1.6962  0.0149
    8MOL   H712 5766   1.957   3.452   6.665 -0.8537  1.7353 -0.2879
    8MOL   H713 5767   1.802   3.623   6.866  0.5944 -0.2099  0.2451
    8MOL   H714 5768   1.799   3.647   6.706  2.4575  1.8917 -1.4834
    8MOL   H715 5769   2.058   3.680   6.716 -2.2615  0.7568 -0.7915
    8MOL   H716 5770   2.058   3.657   6.887  2.2441  1.0836 -1.0342
    8MOL   H717 5771   2.053   3.904   6.790 -0.6237  1.6512  0.5943
    8MOL   H718 5772   1.889   3.865   6.721 -1.6167 -0.7882  0.5433
    8MOL   H719 5773   1.862   3.786   6.962  0.4837  0.0939 -0.2387
    8MOL   H720 5774   1.431   3.149   6.687  2.3192  0.9358 -0.1923
    8MOL   H721 5775   1.220   3.091   6.582  0.0317 -0.3475  1.3141
    8MOL   H722 5776   1.818   3.925   6.917  0.1177  0.3867  0.3607
    9MOL     C1 5777   2.186   1.511   4.269 -0.4300 -0.2845 -0.1482
    9MOL     O2 5778   2.142   1.615   4.309  0.0853  0.5100 -0.3751
    9MOL     C3 5779   2.249   1.410   4.352 -0.2943 -1.0516 -0.2978
    9MOL     C4 5780   2.268   1.286   4.292 -0.5278 -0.1330  0.5476
    9MOL     C5 5781   2.320   1.180   4.364 -0.0251  0.2538 -0.7216
    9MOL     C6 5782   2.361   1.203   4.495 -0.6812  0.1843 -0.5171
    9MOL     C7 5783   2.413   1.087   4.575 -0.2997 -0.0441 -0.1498
    9MOL     O8 5784   2.374   0.972   4.545 -0.5511 -0.3053 -0.0293
    9MOL     N9 5785   2.461   1.115   4.693 -0.9763 -0.1363 -0.1146
    9MOL    C10 5786   2.521   1.018   4.791 -1.0801 -0.0325  0.2397
    9MOL    C11 5787   2.420   1.000   4.899  0.1113  0.4236  0.0675
    9MOL    C12 5788   2.452   0.909   5.022  0.3448  0.1022 -0.1053
    9MOL    C13 5789   2.563   0.974   5.097 -0.3285  0.0752 -0.0060
    9MOL    C14 5790   2.590   0.915   5.235  0.4311 -0.6730  0.0259
    9MOL    C15 5791   2.679   0.998   5.321  0.8059 -0.7851  0.1442
    9MOL    N16 5792   2.718   0.938   5.451  0.3724 -0.5368 -0.1078
    9MOL    C17 5793   2.348   1.326   4.560  0.0748 -0.8223 -0.6653
    9MOL    C18 5794   2.293   1.428   4.485  0.3240  0.8193  0.2739
    9MOL    H19 5795   2.212   1.259   4.203  0.2883 -0.6204  0.1848
    9MOL    H20 5796   2.326   1.085   4.313 -2.6527 -0.6783  0.6228
    9MOL    H21 5797   2.471   1.214   4.709 -2.1871 -0.2382  1.4898
    9MOL    H22 5798   2.551   0.926   4.739  1.6481  0.5458  0.6973
    9MOL    H23 5799   2.619   1.056   4.819 -1.5768  0.8317  0.8172
    9MOL    H24 5800   2.336   0.955   4.847 -0.2559 -1.0815  1.9105
    9MOL    H25 5801   2.376   1.093   4.936 -1.2581  0.1430 -0.8196
    9MOL    H26 5802   2.367   0.895   5.089  0.7991  0.9323  0.6504
    9MOL    H27 5803   2.483   0.813   4.981  0.1034  0.2225 -0.5725
    9MOL    H28 5804   2.533   1.077   5.118  0.7868  0.4363 -0.1434
    9MOL    H29 5805   2.654   0.977   5.037  0.0007  1.9392  0.5565
    9MOL    H30 5806   2.635   0.816   5.227 -1.9100 -1.6851 -1.2271
    9MOL    H31 5807   2.498   0.903   5.291 -0.1794  2.4962 -0.2520
    9MOL    H32 5808   2.773   1.008   5.267  0.8575  1.4440  0.6134
    9MOL    H33 5809   2.620   1.087   5.341 -2.2301 -2.7509  0.3579
    9MOL    H34 5810   2.811   0.898   5.459  0.8655  0.6436  0.1241
    9MOL    H35 5811   2.384   1.344   4.660  1.3096 -2.6076 -0.7572
    9MOL    H36 5812   2.287   1.526   4.529 -0.0549  1.3565 -0.9543
    9MOL    H37 5813   2.184   1.478   4.165  1.3174 -1.1581  0.0834
    9MOL    C38 5814   2.632   0.925   5.554  0.0252  0.5192 -0.1273
    9MOL    O39 5815   2.513   0.960   5.533 -0.1081  0.1391 -0.0763
    9MOL    C40 5816   2.683   0.863   5.682  0.4903  0.2646 -0.2117
    9MOL    C41 5817   2.599   0.871   5.796 -0.0530  1.0993 -0.0660
    9MOL    C42 5818   2.648   0.820   5.918 -0.2834  0.1620 -0.0805
    9MOL    C43 5819   2.769   0.755   5.927  0.1604  0.1237 -0.4184
    9MOL    C44 5820   2.825   0.712   6.059  0.5385  0.2028  0.2116
    9MOL    O45 5821   2.941   0.677   6.060 -0.0457  0.1995 -0.2629
    9MOL    N46 5822   2.743   0.717   6.165  0.2628 -0.0597 -0.2522
    9MOL    C47 5823   2.780   0.679   6.303  0.3306 -0.6827  0.1838
    9MOL    C48 5824   2.863   0.784   6.364  0.0525  0.2283 -0.0208
    9MOL    C49 5825   2.895   0.748   6.509 -0.3053  0.1873  0.0748
    9MOL    C50 5826   2.785   0.739   6.613  0.1796 -0.2127 -0.1135
    9MOL    C51 5827   2.838   0.773   6.753  0.0466 -0.0858  0.0603
    9MOL    C52 5828   2.741   0.769   6.868 -0.1605  0.5183 -0.2841
    9MOL    N53 5829   2.614   0.838   6.835  0.6742  0.8167  0.2934
    9MOL    C54 5830   2.850   0.742   5.814  0.3184 -0.0199  0.2998
    9MOL    C55 5831   2.806   0.791   5.695 -0.7386 -0.2910 -0.1342
    9MOL    H56 5832   2.505   0.923   5.791 -1.1646 -0.8043  0.7869
    9MOL    H57 5833   2.584   0.845   6.002  1.1401  0.5903  0.8917
    9MOL    H58 5834   2.648   0.746   6.152 -0.1880 -1.3746  0.0683
    9MOL    H59 5835   2.689   0.663   6.361  1.7974 -0.0764  2.7258
    9MOL    H60 5836   2.844   0.591   6.310  2.7187  1.0162  0.2446
    9MOL    H61 5837   2.822   0.884   6.360  2.3198  1.2772  1.5188
    9MOL    H62 5838   2.962   0.791   6.320  0.8684  1.3355  1.9146
    9MOL    H63 5839   2.956   0.659   6.519  2.0490  1.6244 -1.1828
    9MOL    H64 5840   2.978   0.815   6.533 -0.9289  1.4094 -1.1421
    9MOL    H65 5841   2.736   0.642   6.622  1.1068 -0.9554 -2.7323
    9MOL    H66 5842   2.698   0.802   6.594  0.2868 -0.2081 -0.5826
    9MOL    H67 5843   2.887   0.871   6.753 -0.3077  0.0939  0.3399
    9MOL    H68 5844   2.921   0.705   6.771 -0.7067 -0.7165  1.2438
    9MOL    H69 5845   2.720   0.666   6.896  0.2893  0.6538  0.5762
    9MOL    H70 5846   2.786   0.803   6.962 -0.7491  3.6156 -1.0780
    9MOL    H71 5847   2.600   0.888   6.748  1.8330  0.5237 -0.0565
    9MOL    H72 5848   2.947   0.695   5.814 -0.0878 -0.8705  0.2684
    9MOL    H73 5849   2.871   0.778   5.610 -0.1483  0.0292  0.2669
    9MOL    C74 5850   2.526   0.883   6.925  0.5304 -0.7415 -0.3154
    9MOL    O75 5851   2.543   0.874   7.046  0.1041 -0.5033  0.2408
    9MOL    C76 5852   2.405   0.954   6.866 -0.0184  0.5007 -0.2237
    9MOL    C77 5853   2.381   0.928   6.730 -0.0901 -0.0393 -0.1206
    9MOL    C78 5854   2.268   0.987   6.663  0.5498 -0.2508 -0.5545
    9MOL    C79 5855   2.164   1.047   6.744 -0.6694 -0.3177 -0.7645
    9MOL    C80 5856   2.040   1.080   6.671 -0.0960 -0.0628 -0.7681
    9MOL    O81 5857   2.040   1.090   6.544  0.0523  0.5117  0.2702
    9MOL    N82 5858   1.928   1.098   6.746 -0.3731 -0.0122  0.3685
    9MOL    C83 5859   1.805   1.128   6.670  0.2997  0.0098 -0.7962
    9MOL    C84 5860   1.692   1.105   6.770  0.8630 -0.5394  0.7315
    9MOL    C85 5861   1.562   1.149   6.722 -0.0903 -0.6731  0.0224
    9MOL    C86 5862   1.445   1.141   6.822  0.6627  0.1015 -0.3144
    9MOL    C87 5863   1.387   0.996   6.846 -0.0719 -0.0586  0.4189
    9MOL    C88 5864   1.260   0.996   6.936  0.8103 -0.6301 -0.1461
    9MOL    N89 5865   1.211   0.860   6.937 -0.7963 -0.8569  0.3004
    9MOL    C90 5866   2.188   1.076   6.880  0.6618  0.2365  0.6648
    9MOL    C91 5867   2.314   1.032   6.943  0.5748 -0.0291  0.4544
    9MOL    H92 5868   2.456   0.886   6.664  0.2321 -0.3233  0.4307
    9MOL    H93 5869   2.256   0.965   6.558 -0.2066  2.6601 -1.1086
    9MOL    H94 5870   1.941   1.089   6.845  1.7003  1.3285  0.2698
    9MOL    H95 5871   1.814   1.229   6.630 -1.7177  0.1794 -0.8689
    9MOL    H96 5872   1.795   1.065   6.582 -1.1479 -1.7894  0.6038
    9MOL    H97 5873   1.710   1.174   6.852 -1.5055  1.8253 -0.6609
    9MOL    H98 5874   1.696   1.001   6.803  1.3404 -0.3128  1.3891
    9MOL    H99 5875   1.576   1.255   6.702  0.3154 -1.2335 -2.9031
    9MOL   H100 5876   1.532   1.114   6.623  1.3182  0.2488 -0.7671
    9MOL   H101 5877   1.365   1.204   6.784 -1.0992 -0.6856  1.9791
    9MOL   H102 5878   1.462   1.185   6.920 -0.4802 -0.6149  0.2208
    9MOL   H103 5879   1.462   0.927   6.886  0.3860 -1.4637 -2.7206
    9MOL   H104 5880   1.346   0.962   6.751 -1.2925 -1.4010  1.4054
    9MOL   H105 5881   1.291   1.021   7.037  1.1353 -0.4701 -0.2832
    9MOL   H106 5882   1.182   1.061   6.895  1.1637 -1.3595 -2.0335
    9MOL   H107 5883   1.191   0.822   6.846  0.1942 -0.5388 -0.0538
    9MOL   H108 5884   2.124   1.137   6.942  0.0084  0.4852 -0.2441
    9MOL   H109 5885   2.323   1.054   7.048 -3.4475  0.1420  0.8246
    9MOL   C110 5886   1.178   0.785   7.043  0.8212  0.4612 -1.1258
    9MOL   O111 5887   1.195   0.825   7.160 -0.4084 -0.1779  0.0183
    9MOL   C112 5888   1.133   0.653   7.010  0.3546  0.3227 -0.3325
    9MOL   C113 5889   1.167   0.543   7.088 -0.2657 -0.1809 -0.2804
    9MOL   C114 5890   1.107   0.417   7.062 -0.6640  0.1397  0.0423
    9MOL   C115 5891   1.023   0.392   6.949 -0.2888 -1.0992 -0.6982
    9MOL   C116 5892   0.968   0.256   6.912  0.6268 -0.1324 -0.0712
    9MOL   O117 5893   0.875   0.249   6.827  0.2611  0.4869 -0.3669
    9MOL   N118 5894   1.029   0.155   6.969 -0.4996  0.3795 -0.3373
    9MOL   C119 5895   0.993   0.019   6.946 -0.0075  0.0830  0.5257
    9MOL   C120 5896   1.124   7.823   6.913 -0.0923  0.1746 -0.2924
    9MOL   C121 5897   1.095   7.672   6.921  0.2544 -0.4903  0.4641
    9MOL   C122 5898   1.225   7.592   6.928 -0.0238  0.5595  0.6840
    9MOL   C123 5899   1.291   7.587   7.066 -0.4802 -0.5420 -0.4535
    9MOL   C124 5900   1.413   7.487   7.077  0.3985 -0.6125 -0.3316
    9MOL   N125 5901   1.467   7.481   7.212  0.1711 -0.4249 -0.2846
    9MOL   C126 5902   0.988   0.512   6.874  0.1848  0.8840 -0.2648
    9MOL   C127 5903   1.042   0.638   6.908 -0.9903  0.6304 -1.0357
    9MOL   H128 5904   1.231   0.555   7.174  0.2048  2.4051 -0.9351
    9MOL   H129 5905   1.129   0.329   7.121  0.4448  0.1800 -0.3070
    9MOL   H130 5906   1.099   0.176   7.038 -0.2573  1.9923 -1.0250
    9MOL   H131 5907   0.953   7.874   7.042  1.1117 -0.0464  0.9510
    9MOL   H132 5908   0.919   0.010   6.866  0.5421  0.3702 -0.0177
    9MOL   H133 5909   1.200   7.856   6.983 -0.8083  1.3929 -0.0786
    9MOL   H134 5910   1.169   7.850   6.818 -0.5715 -0.7642 -0.7932
    9MOL   H135 5911   1.015   7.645   6.989 -2.3820 -1.1612 -2.7995
    9MOL   H136 5912   1.044   7.638   6.831 -0.1331 -0.4428  0.6687
    9MOL   H137 5913   1.302   7.647   6.874 -0.0088  0.0073  0.1394
    9MOL   H138 5914   1.230   7.491   6.885 -0.8758  0.9197 -0.2568
    9MOL   H139 5915   1.227   7.563   7.151  0.0303 -1.2101 -0.2595
    9MOL   H140 5916   1.325   7.688   7.086 -3.2708  0.4428 -0.3846
    9MOL   H141 5917   1.390   7.384   7.051 -1.3543 -0.3419  0.0841
    9MOL   H142 5918   1.490   7.506   7.002  1.4373  2.0321  1.3097
    9MOL   H143 5919   1.450   7.392   7.257 -0.3274 -0.7016 -1.0048
    9MOL   H144 5920   0.914   0.511   6.795  0.7315  2.7449 -0.8362
    9MOL   H145 5921   1.015   0.734   6.864 -0.3013  1.4570  0.3302
    9MOL   C146 5922   1.561   7.564   7.257  0.0776 -0.0165  0.9347
    9MOL   O147 5923   1.595   7.671   7.205  0.3616  0.2846  0.1761
    9MOL   C148 5924   1.618   7.519   7.388 -0.5407  0.2634 -0.1954
    9MOL   C149 5925   1.755   7.540   7.424  0.5704  0.5986  0.4796
    9MOL   C150 5926   1.802   7.491   7.547 -0.0515  0.3429  0.4374
    9MOL   C151 5927   1.717   7.430   7.643 -0.5639  0.1329 -0.1575
    9MOL   C152 5928   1.774   7.386   7.773 -0.8206 -0.2699  0.4916
    9MOL   O153 5929   1.888   7.412   7.798 -0.4102  0.2856 -0.5680
    9MOL   N154 5930   1.690   7.316   7.842 -0.1303 -0.0854  0.0485
    9MOL   C155 5931   1.708   7.283   0.091 -0.4344 -0.2579 -0.1151
    9MOL   C156 5932   1.665   7.135   0.110  0.0562 -0.1527  0.5060
    9MOL   C157 5933   1.761   7.031   0.040 -0.2019 -0.3118 -0.0541
    9MOL   C158 5934   1.907   7.037   0.090 -0.1129 -0.4003  0.5366
    9MOL   C159 5935   1.981   6.910   0.051 -0.0051  0.5378  0.1063
    9MOL   C160 5936   2.119   6.942   7.874  0.0643 -0.1487  0.7385
    9MOL   N161 5937   2.100   7.003   7.747 -1.0134  0.2941  0.4363
    9MOL   C162 5938   1.580   7.420   7.610  0.8567  0.2244 -0.3208
    9MOL   C163 5939   1.533   7.452   7.482 -0.0896  0.4306 -0.0008
    9MOL   H164 5940   1.818   7.598   7.359  0.0874 -0.2884 -0.7915
    9MOL   H165 5941   1.908   7.509   7.563  0.1123  0.6406 -0.8784
    9MOL   H166 5942   1.604   7.290   7.796 -0.2462 -0.8732  0.6812
    9MOL   H167 5943   1.814   7.294   0.111 -0.2122  0.1603 -1.4657
    9MOL   H168 5944   1.654   7.348   0.160 -0.1557  0.7410 -0.8302
    9MOL   H169 5945   1.559   7.123   0.090  0.3732  0.3003 -1.6677
    9MOL   H170 5946   1.691   7.120   0.214 -1.1801 -0.2153  0.8095
    9MOL   H171 5947   1.720   6.933   0.064  2.0799 -1.3677 -0.3252
    9MOL   H172 5948   1.772   7.041   7.818  3.5799  0.5062  0.3260
    9MOL   H173 5949   1.895   7.063   0.196  2.7600 -0.3005  0.8549
    9MOL   H174 5950   1.951   7.127   0.047  1.4296 -2.1857 -1.7477
    9MOL   H175 5951   1.927   6.850   7.864  2.5642 -1.4912 -0.1922
    9MOL   H176 5952   1.981   6.850   0.142 -1.3129 -0.1744 -0.3449
    9MOL   H177 5953   2.169   7.026   0.036  1.8164 -1.0142  0.4262
    9MOL   H178 5954   2.185   6.856   7.867  2.5675  1.6615  1.7641
    9MOL   H179 5955   2.050   7.090   7.739  0.2347  0.9627 -0.1995
    9MOL   H180 5956   1.500   7.376   7.667  0.0197 -0.5471 -2.0418
    9MOL   H181 5957   1.431   7.421   7.462  0.8901 -1.0898 -3.0324
    9MOL   C182 5958   2.105   6.935   7.632  0.4961 -0.2242  0.0277
    9MOL   O183 5959   2.144   6.819   7.641  0.3074  0.2274 -0.0535
    9MOL   C184 5960   2.027   6.997   7.518  0.3687 -0.5607  0.0690
    9MOL   C185 5961   2.075   6.961   7.389  0.3174 -0.4440  0.6634
    9MOL   C186 5962   2.004   6.997   7.275  0.3988 -0.0304  0.1761
    9MOL   C187 5963   1.890   7.081   7.281  0.0442 -0.3094  0.0518
    9MOL   C188 5964   1.804   7.110   7.161 -0.9094 -0.0473 -0.1951
    9MOL   O189 5965   1.716   7.194   7.176  1.1507 -0.0681 -0.1944
    9MOL   N190 5966   1.841   7.057   7.046 -0.2920  0.5960  0.0896
    9MOL   C191 5967   1.770   7.047   6.920  0.1154 -0.3605 -0.0041
    9MOL   C192 5968   1.817   7.152   6.821  0.0239 -0.0291 -0.6218
    9MOL   C193 5969   1.956   7.131   6.774 -0.0966  0.0862  0.5712
    9MOL   C194 5970   1.973   7.008   6.675 -0.1195 -0.5907  0.3707
    9MOL   C195 5971   2.116   7.013   6.614  0.1235  0.3797 -0.2993
    9MOL   C196 5972   2.157   6.890   6.525 -0.8718 -0.2720 -0.3551
    9MOL   N197 5973   2.127   6.763   6.591 -0.0228  0.2040  0.5590
    9MOL   C198 5974   1.847   7.125   7.411 -0.5777  0.5936  0.3903
    9MOL   C199 5975   1.917   7.084   7.528  0.0679  0.0838  0.3242
    9MOL   H200 5976   2.164   6.901   7.378  0.5164  0.0951 -0.8830
    9MOL   H201 5977   2.034   6.945   7.185  1.2429 -1.1376  1.0820
    9MOL   H202 5978   1.916   6.991   7.055 -0.3210  0.4182 -0.8994
    9MOL   H203 5979   1.778   6.947   6.876  2.6293  0.4136 -1.3898
    9MOL   H204 5980   1.664   7.056   6.945  0.1063 -1.1102  0.2529
    9MOL   H205 5981   1.824   7.242   6.882  0.6802 -0.1197 -0.5588
    9MOL   H206 5982   1.744   7.159   6.740 -0.9726 -1.0853  0.1528
    9MOL   H207 5983   1.965   7.219   6.711 -0.8215  0.4789  1.0108
    9MOL   H208 5984   2.031   7.139   6.854 -0.7838  0.4972  1.1796
    9MOL   H209 5985   1.897   7.008   6.597  2.6589  1.0592 -2.4589
    9MOL   H210 5986   1.957   6.918   6.736 -2.7215  1.2936  2.5890
    9MOL   H211 5987   2.177   7.011   6.704 -1.1657 -2.6858  0.5980
    9MOL   H212 5988   2.145   7.103   6.561 -0.6648  0.5942 -0.3696
    9MOL   H213 5989   2.100   6.895   6.432 -1.1956 -0.7156 -0.1772
    9MOL   H214 5990   2.264   6.885   6.501  0.0773  1.7823  3.0316
    9MOL   H215 5991   2.082   6.766   6.681 -0.8842 -1.1641  0.1829
    9MOL   H216 5992   1.758   7.186   7.421 -0.3785  0.6954  1.6634
    9MOL   H217 5993   1.871   7.111   7.622 -1.2530 -0.1457 -0.2295
    9MOL   C218 5994   2.158   6.646   6.541 -0.1180 -0.6277 -0.6081
    9MOL   O219 5995   2.209   6.633   6.428 -0.1519 -0.8167 -0.3804
    9MOL   C220 5996   2.121   6.528   6.628  0.1160 -0.1205  0.1077
    9MOL   C221 5997   2.149   6.530   6.765 -0.1058  0.5101 -0.0884
    9MOL   C222 5998   2.128   6.418   6.847  0.2157 -0.0314  0.4752
    9MOL   C223 5999   2.069   6.306   6.788 -0.1621  0.1766 -0.0231
    9MOL   C224 6000   2.044   6.187   6.872  0.4115  0.7085 -0.1077
    9MOL   O225 6001   2.051   6.080   6.812 -0.6252 -0.2656  0.9528
    9MOL   N226 6002   2.011   6.211   7.000 -0.1933  0.5452  0.3657
    9MOL   C227 6003   2.015   6.121   7.113  0.0601 -0.0680 -0.2299
    9MOL   C228 6004   1.902   6.151   7.209 -1.2840  0.1745 -0.5878
    9MOL   C229 6005   1.900   6.065   7.326 -0.4973  0.9321  0.4985
    9MOL   C230 6006   1.790   6.100   7.428  0.1340 -0.3643 -0.5282
    9MOL   C231 6007   1.644   6.083   7.366  0.3516  0.1658  0.1110
    9MOL   C232 6008   1.586   5.947   7.333 -0.0472  0.1828  0.6160
    9MOL   N233 6009   1.670   5.876   7.241  0.2343  0.2089 -0.3712
    9MOL   C234 6010   2.031   6.311   6.656  0.3714 -0.9382 -0.3476
    9MOL   C235 6011   2.070   6.413   6.568  0.6406 -0.0556 -0.2940
    9MOL   H236 6012   2.213   6.606   6.807 -1.9816  0.9076  2.1433
    9MOL   H237 6013   2.162   6.418   6.950  0.4258  2.1821  0.4242
    9MOL   H238 6014   1.991   6.309   7.016 -0.0586  0.7651 -0.7060
    9MOL   H239 6015   2.009   6.018   7.078 -2.6411 -0.0642  0.1027
    9MOL   H240 6016   2.113   6.116   7.162 -1.0008  1.1746  2.1044
    9MOL   H241 6017   1.809   6.148   7.153 -1.0897  2.6438 -1.1128
    9MOL   H242 6018   1.917   6.253   7.244 -0.2321 -1.0487  2.6886
    9MOL   H243 6019   1.892   5.960   7.300  2.8047  0.9566 -0.8631
    9MOL   H244 6020   1.990   6.083   7.384  0.0013  1.6944 -0.4880
    9MOL   H245 6021   1.807   6.201   7.463 -0.7859  0.0363 -1.2209
    9MOL   H246 6022   1.788   6.038   7.517 -3.9989  1.0490  0.4470
    9MOL   H247 6023   1.645   6.144   7.276  0.1623  1.4914  0.9857
    9MOL   H248 6024   1.579   6.137   7.435 -0.1798  0.3802 -0.5524
    9MOL   H249 6025   1.563   5.880   7.415  2.1782 -0.3874  0.8085
    9MOL   H250 6026   1.491   5.972   7.286  0.2831 -0.9845 -0.7134
    9MOL   H251 6027   1.740   5.823   7.290 -0.1841  0.8541  0.9575
    9MOL   H252 6028   1.977   6.228   6.611 -1.2656 -0.3286  0.4490
    9MOL   H253 6029   2.057   6.393   6.463  0.2913 -0.5265 -0.1636
    9MOL   C254 6030   1.646   5.867   7.106 -0.0870 -0.2231 -0.2263
    9MOL   O255 6031   1.564   5.932   7.049  0.0534  0.3578  0.2674
    9MOL   C256 6032   1.738   5.774   7.038 -0.7308  0.4123 -0.4058
    9MOL   C257 6033   1.758   5.643   7.090  0.0308  0.6567  0.0364
    9MOL   C258 6034   1.853   5.562   7.032 -0.0319 -0.0980 -0.3641
    9MOL   C259 6035   1.924   5.597   6.915  0.7277 -0.2435 -0.0116
    9MOL   C260 6036   2.016   5.501   6.848 -0.7064  0.1042 -0.1333
    9MOL   O261 6037   2.075   5.530   6.747  0.2185  0.4650 -0.0265
    9MOL   N262 6038   2.032   5.382   6.907 -0.6809  0.0174 -0.1017
    9MOL   C263 6039   2.118   5.275   6.867  0.9630  0.3066  0.2631
    9MOL   C264 6040   2.082   5.143   6.929 -0.1751  0.2901  0.1743
    9MOL   C265 6041   2.098   5.150   7.076  0.7819 -0.3141  0.1538
    9MOL   C266 6042   1.986   5.080   7.157  0.3360  0.5024 -0.2769
    9MOL   C267 6043   1.868   5.174   7.208  0.0330  0.1577  0.0005
    9MOL   C268 6044   1.749   5.099   7.285 -0.2890  0.1785 -0.1712
    9MOL   N269 6045   1.650   5.195   7.323 -0.2933 -0.0137  0.0439
    9MOL   C270 6046   1.902   5.725   6.863 -0.1755  0.1521 -0.0846
    9MOL   C271 6047   1.806   5.808   6.918  0.4596 -0.7226 -0.3496
    9MOL   H272 6048   1.711   5.621   7.185  1.0764  2.7872  1.0802
    9MOL   H273 6049   1.879   5.469   7.079  0.6095  0.8230  1.1330
    9MOL   H274 6050   1.991   5.384   6.999 -1.6929  1.7152 -0.5693
    9MOL   H275 6051   2.119   5.269   6.758 -4.6020  1.6455 -0.0354
    9MOL   H276 6052   2.220   5.286   6.902  0.5919 -0.5316  1.6404
    9MOL   H277 6053   2.142   5.058   6.896  0.0146  0.4860  0.0104
    9MOL   H278 6054   1.983   5.101   6.906  0.6074  0.8388 -4.8597
    9MOL   H279 6055   2.193   5.099   7.094  0.1080 -1.4573  0.4520
    9MOL   H280 6056   2.104   5.248   7.123  0.2730 -0.9834  1.6513
    9MOL   H281 6057   2.030   5.035   7.247  1.6070 -2.4355 -2.2846
    9MOL   H282 6058   1.939   4.996   7.107  0.6658  0.2560 -0.1774
    9MOL   H283 6059   1.830   5.216   7.115 -3.9132 -3.7362 -0.2622
    9MOL   H284 6060   1.899   5.250   7.280  0.9247  0.4135 -0.6460
    9MOL   H285 6061   1.697   5.033   7.215  1.4404 -2.0482  0.5477
    9MOL   H286 6062   1.788   5.035   7.364 -1.9653 -0.1521  0.4097
    9MOL   H287 6063   1.621   5.253   7.245 -0.9978  0.4104  0.6109
    9MOL   H288 6064   1.966   5.763   6.784  0.5606 -1.6950 -0.4039
    9MOL   H289 6065   1.797   5.905   6.871 -1.3185 -0.3538  0.6976
    9MOL   C290 6066   1.614   5.242   7.443  0.1634  0.7506 -0.6681
    9MOL   O291 6067   1.637   5.184   7.545  0.4429  0.1706  0.0379
    9MOL   C292 6068   1.538   5.374   7.447 -0.1165 -0.0770  0.3703
    9MOL   C293 6069   1.518   5.449   7.330 -0.1532  0.0517 -0.2089
    9MOL   C294 6070   1.444   5.571   7.333  0.3399  0.5219  0.3415
    9MOL   C295 6071   1.397   5.628   7.450  0.2679  0.0528  0.1653
    9MOL   C296 6072   1.324   5.755   7.458  0.6906 -0.3435  0.0209
    9MOL   O297 6073   1.330   5.829   7.556 -0.1324 -0.8033 -0.4330
    9MOL   N298 6074   1.246   5.777   7.353 -0.1015  0.3009  0.2465
    9MOL   C299 6075   1.162   5.890   7.328 -0.3988 -0.3791 -0.6374
    9MOL   C300 6076   1.089   5.883   7.191  0.3246 -0.5307  0.8486
    9MOL   C301 6077   0.991   5.992   7.156 -0.5102 -0.0052  0.1504
    9MOL   C302 6078   1.055   6.120   7.103 -0.0041  0.2081 -0.2180
    9MOL   C303 6079   1.154   6.098   6.979  0.9378  0.0851 -0.2960
    9MOL   C304 6080   1.295   6.136   7.017 -0.1990  0.8452  0.7651
    9MOL   N305 6081   1.391   6.121   6.915 -0.0736 -0.3190  0.4894
    9MOL   C306 6082   1.418   5.555   7.573  0.2784 -0.3611 -0.2750
    9MOL   C307 6083   1.491   5.435   7.572  0.3188  0.7709 -0.1898
    9MOL   H308 6084   1.559   5.410   7.238 -0.1577  1.3482 -0.7820
    9MOL   H309 6085   1.421   5.622   7.241  1.9265 -0.9961 -0.9257
    9MOL   H310 6086   1.250   5.699   7.288 -0.1522 -0.1566  0.7825
    9MOL   H311 6087   1.100   5.912   7.415 -0.0603  0.1453 -0.5274
    9MOL   H312 6088   1.230   5.975   7.322  2.5336 -2.4361  1.7456
    9MOL   H313 6089   1.032   5.790   7.193  0.4805 -0.7023 -1.0142
    9MOL   H314 6090   1.158   5.855   7.112 -0.9593  2.1329 -1.3016
    9MOL   H315 6091   0.923   5.954   7.080  1.4276 -0.8919 -1.1806
    9MOL   H316 6092   0.919   6.004   7.237 -1.1112  0.4085 -0.4387
    9MOL   H317 6093   1.099   6.155   7.196 -0.9945 -1.6158  0.9540
    9MOL   H318 6094   0.978   6.193   7.077 -1.2333  0.2458  3.2623
    9MOL   H319 6095   1.122   6.153   6.891 -1.0350  0.1483  0.4342
    9MOL   H320 6096   1.149   5.992   6.952 -1.4084  0.6204 -2.1393
    9MOL   H321 6097   1.305   6.240   7.048 -0.9902  1.9716 -2.5227
    9MOL   H322 6098   1.334   6.059   7.084  0.3740 -0.2700 -0.8056
    9MOL   H323 6099   1.443   6.035   6.909  0.8854  0.1613  1.4700
    9MOL   H324 6100   1.383   5.595   7.667 -2.3971  0.0687 -1.4314
    9MOL   H325 6101   1.518   5.377   7.659 -0.3617  0.7528  0.0102
    9MOL   C326 6102   1.432   6.216   6.831  0.3138 -0.2159 -0.2845
    9MOL   O327 6103   1.374   6.323   6.815 -0.0073  0.4354  0.1843
    9MOL   C328 6104   1.532   6.176   6.735  0.1481 -0.2778  0.5503
    9MOL   C329 6105   1.569   6.256   6.629  0.5329  0.3705 -0.1466
    9MOL   C330 6106   1.666   6.219   6.528  0.4160  0.2734 -0.7212
    9MOL   C331 6107   1.719   6.092   6.527 -0.3086 -0.0925 -0.2899
    9MOL   C332 6108   1.809   6.049   6.417 -0.6777  0.4644 -0.0439
    9MOL   O333 6109   1.823   6.127   6.324 -0.0674  0.1488  0.5423
    9MOL   N334 6110   1.870   5.939   6.433 -0.4757  0.4339  0.9560
    9MOL   C335 6111   1.954   5.873   6.337  0.0296 -0.4262 -0.5811
    9MOL   C336 6112   2.021   5.756   6.407  0.5750 -0.5266  0.7522
    9MOL   C337 6113   2.113   5.679   6.311  0.5686 -0.2299  0.0727
    9MOL   C338 6114   2.171   5.556   6.381 -0.2621  0.2611  0.4290
    9MOL   C339 6115   2.254   5.473   6.279  0.0101 -0.1527  0.2836
    9MOL   C340 6116   2.315   5.353   6.348  0.4489 -0.1515  0.1910
    9MOL   N341 6117   2.427   5.390   6.437  0.7748 -0.3451 -0.1340
    9MOL   C342 6118   1.690   6.014   6.640 -0.3749 -0.3320  1.1263
    9MOL   C343 6119   1.599   6.053   6.741 -0.0452  0.3159 -0.6799
    9MOL   H344 6120   1.519   6.351   6.618 -1.8190 -0.5808  2.0111
    9MOL   H345 6121   1.686   6.289   6.449 -0.0283  0.4134 -0.7075
    9MOL   H346 6122   1.870   5.899   6.525  4.1936 -0.4666  0.6655
    9MOL   H347 6123   1.895   5.847   6.249 -1.4298 -2.1440  0.8790
    9MOL   H348 6124   2.031   5.945   6.309 -1.8592  2.0481  0.4259
    9MOL   H349 6125   1.941   5.692   6.443  0.4245  1.4488  4.1534
    9MOL   H350 6126   2.079   5.799   6.489  0.2253  0.7609  0.3454
    9MOL   H351 6127   2.049   5.640   6.232 -0.0996 -0.0393  0.5148
    9MOL   H352 6128   2.198   5.734   6.273  1.7321 -2.3050 -0.4310
    9MOL   H353 6129   2.088   5.492   6.412 -0.4764  0.7281  0.8285
    9MOL   H354 6130   2.232   5.582   6.467  0.6821 -2.8543  0.7672
    9MOL   H355 6131   2.337   5.533   6.240  0.1662  0.1817  1.1271
    9MOL   H356 6132   2.193   5.454   6.190  0.7783 -0.4262 -0.1986
    9MOL   H357 6133   2.245   5.290   6.402 -1.3993  0.6842 -1.1782
    9MOL   H358 6134   2.348   5.286   6.268 -0.7908 -0.3589 -0.1537
    9MOL   H359 6135   2.408   5.458   6.509 -3.8719 -2.1908  0.5409
    9MOL   H360 6136   1.730   5.913   6.649  1.3262  0.1423 -0.5911
    9MOL   H361 6137   1.582   5.990   6.827 -1.6973 -0.3099 -1.4297
    9MOL   C362 6138   2.544   5.327   6.439  0.6123 -0.6930  0.3376
    9MOL   O363 6139   2.565   5.233   6.363 -0.1974  0.1200  0.0322
    9MOL   C364 6140   2.646   5.378   6.541 -0.4484 -0.1963  0.3325
    9MOL   C365 6141   2.782   5.387   6.501 -0.2614 -0.0741 -0.4749
    9MOL   C366 6142   2.871   5.424   6.596 -0.0355  0.8259 -0.4707
    9MOL   C367 6143   2.833   5.476   6.724 -0.3533  0.2352  0.1522
    9MOL   C368 6144   2.932   5.547   6.807  0.4148 -0.1796 -0.1248
    9MOL   O369 6145   2.901   5.638   6.884 -0.3715 -0.4681  0.3907
    9MOL   N370 6146   3.051   5.496   6.808 -0.0764  0.7706 -0.6453
    9MOL   C371 6147   3.166   5.540   6.876 -0.0199  0.4547 -0.7334
    9MOL   C372 6148   3.227   5.654   6.804  0.0513 -0.1103 -0.1521
    9MOL   C373 6149   3.367   5.686   6.850  0.2985  0.6451 -0.6851
    9MOL   C374 6150   3.413   5.826   6.797  0.4755  0.1846  0.0165
    9MOL   C375 6151   3.564   5.853   6.811 -0.0530 -0.2348 -0.4835
    9MOL   C376 6152   3.615   5.997   6.795 -0.5519  0.6675  0.8436
    9MOL   N377 6153   3.565   6.071   6.683 -0.3178 -0.2100 -0.3486
    9MOL   C378 6154   2.696   5.473   6.762 -0.0925 -0.1055  0.4136
    9MOL   C379 6155   2.605   5.416   6.673 -0.6044 -0.3983 -0.1509
    9MOL   H380 6156   2.819   5.363   6.402 -1.3334 -1.0003 -0.6608
    9MOL   H381 6157   2.976   5.418   6.575  0.0688  1.0128  0.0018
    9MOL   H382 6158   3.058   5.401   6.773  2.5528  1.6965 -2.8111
    9MOL   H383 6159   3.146   5.567   6.980 -2.7537 -3.2021 -0.1923
    9MOL   H384 6160   3.226   5.450   6.891 -0.4219 -0.1745 -2.7638
    9MOL   H385 6161   3.163   5.741   6.818  3.0490  2.0062  0.8765
    9MOL   H386 6162   3.224   5.629   6.698 -1.8827 -1.0895  0.0990
    9MOL   H387 6163   3.381   5.693   6.958  5.3416  1.0209 -1.2202
    9MOL   H388 6164   3.443   5.612   6.824 -0.2755  0.2988 -1.4112
    9MOL   H389 6165   3.361   5.908   6.847  1.6184  0.8615  0.1211
    9MOL   H390 6166   3.391   5.826   6.690  0.1083  2.0316  0.0697
    9MOL   H391 6167   3.619   5.777   6.757  0.4101  0.2296 -0.6625
    9MOL   H392 6168   3.572   5.834   6.918 -2.3291  2.5930  0.2576
    9MOL   H393 6169   3.585   6.053   6.884 -1.3481  0.1346  0.9058
    9MOL   H394 6170   3.724   6.001   6.797 -0.5547  0.8904  0.5212
    9MOL   H395 6171   3.484   6.039   6.632  0.0978  0.4443 -1.4443
    9MOL   H396 6172   2.664   5.530   6.847 -1.0435  0.2896 -0.1952
    9MOL   H397 6173   2.502   5.407   6.702 -0.5381  1.4166  0.7212
    9MOL   C398 6174   3.613   6.192   6.645  0.5654 -0.6356 -0.1539
    9MOL   O399 6175   3.699   6.247   6.707 -0.2881  0.6165 -0.2993
    9MOL   C400 6176   3.553   6.254   6.525 -0.1051  0.3662 -1.0672
    9MOL   C401 6177   3.546   6.398   6.501  0.9028  1.1574 -0.6289
    9MOL   C402 6178   3.500   6.451   6.376 -0.1809  0.7046  0.4327
    9MOL   C403 6179   3.442   6.361   6.282  0.0594  0.3474 -0.1419
    9MOL   C404 6180   3.398   6.422   6.151  0.4200  0.1146  1.2764
    9MOL   O405 6181   3.445   6.529   6.108  0.0246 -0.1262 -0.0036
    9MOL   N406 6182   3.320   6.341   6.073 -0.3468 -0.1389  0.2441
    9MOL   C407 6183   3.302   6.361   5.929  0.2860 -0.3798 -0.1527
    9MOL   C408 6184   3.168   6.427   5.892  0.0701  0.3005  0.1767
    9MOL   C409 6185   3.171   6.471   5.742  0.0613  0.3968  0.0891
    9MOL   C410 6186   3.202   6.614   5.724  0.0357  0.2589  0.1444
    9MOL   C411 6187   3.238   6.656   5.577  0.7561 -0.0357 -0.3157
    9MOL   C412 6188   3.249   6.809   5.555  0.1968  0.2566  0.0616
    9MOL   N413 6189   3.301   6.844   5.423  0.2044 -0.0307  0.3576
    9MOL   C414 6190   3.443   6.223   6.307  0.9036 -0.4898  0.2833
    9MOL   C415 6191   3.495   6.170   6.425 -0.6806 -0.9692 -0.8425
    9MOL   H416 6192   3.590   6.468   6.570 -0.2560  0.0673  1.2749
    9MOL   H417 6193   3.520   6.554   6.353  0.5805  0.7093  1.1040
    9MOL   H418 6194   3.291   6.254   6.115 -3.3133  0.8090  0.3097
    9MOL   H419 6195   3.380   6.426   5.890  0.8939 -1.3005 -0.4871
    9MOL   H420 6196   3.308   6.266   5.875  0.0582 -0.1826 -0.5217
    9MOL   H421 6197   3.155   6.513   5.958 -1.9361 -0.1861  0.4267
    9MOL   H422 6198   3.079   6.366   5.906  0.5636 -0.1830  1.2388
    9MOL   H423 6199   3.238   6.414   5.677  0.9935 -0.7661  2.0252
    9MOL   H424 6200   3.079   6.443   5.691 -1.0864  2.2835  1.0998
    9MOL   H425 6201   3.285   6.633   5.792  0.4162 -0.1072 -0.2206
    9MOL   H426 6202   3.113   6.670   5.751 -0.3468  0.9800 -2.5394
    9MOL   H427 6203   3.161   6.609   5.515  0.4381  0.2510 -0.1385
    9MOL   H428 6204   3.337   6.611   5.571  0.7524 -0.5545  2.7610
    9MOL   H429 6205   3.145   6.842   5.558 -0.4874 -1.9898  2.4669
    9MOL   H430 6206   3.306   6.857   5.634  0.0060  0.3987  0.1146
    9MOL   H431 6207   3.244   6.838   5.340  0.7263 -0.2945  0.0198
    9MOL   H432 6208   3.429   6.155   6.225  0.6100 -0.7968  0.5889
    9MOL   H433 6209   3.515   6.066   6.444  1.1001 -0.5322 -0.1746
    9MOL   C434 6210   3.417   6.901   5.388  0.0452 -0.7492  0.5259
    9MOL   O435 6211   3.509   6.909   5.471  0.0253 -0.3042 -0.1255
    9MOL   C436 6212   3.421   6.970   5.256 -0.0182  0.5109  0.0713
    9MOL   C437 6213   3.338   6.928   5.148  0.1301  0.4057  0.9665
    9MOL   C438 6214   3.357   6.996   5.025 -0.3600 -0.5439 -0.6110
    9MOL   C439 6215   3.450   7.100   5.003 -0.8194 -0.8155  0.4024
    9MOL   C440 6216   3.470   7.170   4.870  0.0118 -0.7536 -0.2871
    9MOL   O441 6217   3.547   7.262   4.858  0.3214  0.6525 -0.0186
    9MOL   N442 6218   3.408   7.125   4.762  0.1373 -0.5277  0.0985
    9MOL   C443 6219   3.424   7.183   4.630 -0.5398  0.6745  0.5163
    9MOL   C444 6220   3.331   7.128   4.521  0.3627 -0.8172  0.6633
    9MOL   C445 6221   3.202   7.065   4.582  0.4790 -0.1625  0.8246
    9MOL   C446 6222   3.107   7.038   4.464  0.1606  0.0670  0.4722
    9MOL   C447 6223   2.962   6.992   4.518  0.1990 -0.1309 -0.2620
    9MOL   C448 6224   2.869   6.942   4.397  0.3756 -0.4755 -0.7729
    9MOL   N449 6225   2.741   6.881   4.446  0.2725 -0.8955  0.4609
    9MOL   C450 6226   3.532   7.131   5.110  0.4999  0.0176  0.5097
    9MOL   C451 6227   3.515   7.072   5.236  0.3886 -0.2554 -0.0025
    9MOL   H452 6228   3.259   6.854   5.158  0.8559 -0.2274  2.0181
    9MOL   H453 6229   3.291   6.971   4.943  0.6888  1.0366 -1.9551
    9MOL   H454 6230   3.339   7.053   4.776 -0.7204  0.1923 -0.3950
    9MOL   H455 6231   3.411   7.291   4.623  1.2488  0.7210 -2.8829
    9MOL   H456 6232   3.527   7.166   4.598 -0.1238  0.4551  1.9028
    9MOL   H457 6233   3.379   7.047   4.466 -3.9812 -2.0832 -1.4685
    9MOL   H458 6234   3.322   7.209   4.449  1.5917 -3.5688 -2.7070
    9MOL   H459 6235   3.224   6.972   4.633 -1.0540  0.5923  2.9488
    9MOL   H460 6236   3.152   7.137   4.648 -0.6875 -0.1183 -0.0912
    9MOL   H461 6237   3.149   6.954   4.408 -2.7541 -0.8389 -0.4466
    9MOL   H462 6238   3.094   7.118   4.391  1.6784  0.2813  0.4295
    9MOL   H463 6239   2.908   7.075   4.563  0.4272 -0.7332  1.1475
    9MOL   H464 6240   2.976   6.918   4.597 -1.6248 -1.3401 -1.0439
    9MOL   H465 6241   2.859   7.022   4.324  0.2630 -0.8959 -1.2204
    9MOL   H466 6242   2.911   6.857   4.345 -1.9482 -1.6294 -0.8397
    9MOL   H467 6243   2.729   6.783   4.424  0.6561 -0.2667 -2.6854
    9MOL   H468 6244   3.607   7.207   5.094  1.9649 -1.4935 -0.0081
    9MOL   H469 6245   3.581   7.110   5.312  0.0408 -0.3568  0.3496
    9MOL   C470 6246   2.632   6.954   4.483  0.2421 -0.5043  0.7221
    9MOL   O471 6247   2.631   7.077   4.484 -0.4854 -0.2977  0.3090
    9MOL   C472 6248   2.514   6.872   4.529  0.0196  0.4641 -0.7320
    9MOL   C473 6249   2.491   6.745   4.471  0.3279 -0.7094 -0.0752
    9MOL   C474 6250   2.371   6.670   4.511 -0.4315  0.0184 -0.0356
    9MOL   C475 6251   2.291   6.719   4.617 -0.4863 -0.1096  0.3317
    9MOL   C476 6252   2.167   6.642   4.661 -0.9997  0.3225 -0.9640
    9MOL   O477 6253   2.103   6.695   4.756  0.1599 -0.2887  0.1681
    9MOL   N478 6254   2.141   6.529   4.594 -0.3961 -0.5126  0.2683
    9MOL   C479 6255   2.023   6.452   4.620 -0.0884 -0.6158 -0.0626
    9MOL   C480 6256   1.918   6.479   4.515 -0.6802  0.4026  0.0930
    9MOL   C481 6257   1.802   6.376   4.520  0.5480  1.0822 -0.4744
    9MOL   C482 6258   1.685   6.412   4.424  0.3371 -0.1620  0.8541
    9MOL   C483 6259   1.716   6.386   4.273  0.1133  0.6210 -0.9430
    9MOL   C484 6260   1.589   6.409   4.195 -0.3054  0.9350 -0.1696
    9MOL   N485 6261   1.614   6.401   4.052  0.2177  0.5051 -0.1939
    9MOL   C486 6262   2.320   6.848   4.669 -0.6326 -0.0332 -0.0450
    9MOL   C487 6263   2.430   6.922   4.629 -0.3763  0.1111 -0.6945
    9MOL   H488 6264   2.538   6.711   4.380 -2.0891 -1.2742 -1.1726
    9MOL   H489 6265   2.342   6.583   4.453  1.0045 -1.1030  0.8849
    9MOL   H490 6266   2.210   6.499   4.527 -1.8467 -0.5918 -1.2203
    9MOL   H491 6267   2.055   6.348   4.613  1.4853 -0.2516  1.4132
    9MOL   H492 6268   1.983   6.462   4.721 -0.1502  0.1102 -0.1598
    9MOL   H493 6269   1.965   6.468   4.417 -1.9889 -1.2071 -0.3726
    9MOL   H494 6270   1.868   6.574   4.530  0.2527  1.0024 -0.5133
    9MOL   H495 6271   1.833   6.273   4.503  0.6274  1.3885 -2.3387
    9MOL   H496 6272   1.764   6.385   4.622 -1.9265 -0.7175 -1.2085
    9MOL   H497 6273   1.669   6.519   4.432  2.1013 -0.0835  4.2749
    9MOL   H498 6274   1.586   6.371   4.447 -0.1007 -0.3618 -1.2801
    9MOL   H499 6275   1.745   6.281   4.264  2.9495  1.1976  0.6613
    9MOL   H500 6276   1.797   6.448   4.237  1.1364 -0.6498 -0.8742
    9MOL   H501 6277   1.527   6.322   4.219  0.0283  0.3493 -1.3896
    9MOL   H502 6278   1.542   6.504   4.221  2.7606  2.5422 -0.3037
    9MOL   H503 6279   1.711   6.385   4.027  1.1770 -0.7782  3.9853
    9MOL   H504 6280   2.256   6.895   4.742 -0.0192  0.9386 -0.1325
    9MOL   H505 6281   2.445   7.017   4.679 -2.5990 -0.1343  0.5475
    9MOL   C506 6282   1.534   6.402   3.951 -0.8184  0.0776  0.7492
    9MOL   O507 6283   1.418   6.431   3.962  0.6883 -0.1139  0.1962
    9MOL   C508 6284   1.604   6.379   3.821  0.0953 -0.2899  0.1691
    9MOL   C509 6285   1.729   6.317   3.806  0.0080  0.3212 -0.1098
    9MOL   C510 6286   1.796   6.309   3.687 -0.0198  0.5576 -0.2888
    9MOL   C511 6287   1.731   6.346   3.569 -0.2458  0.2176  0.2178
    9MOL   C512 6288   1.791   6.329   3.434  0.8054  0.6113  0.4426
    9MOL   O513 6289   1.725   6.314   3.335 -0.3154  0.0174  0.7329
    9MOL   N514 6290   1.926   6.350   3.428  0.1392 -0.9104  0.3582
    9MOL   C515 6291   2.002   6.320   3.307 -0.4346 -0.1578 -0.8533
    9MOL   C516 6292   2.157   6.340   3.320 -0.2790 -0.3070 -0.3434
    9MOL   C517 6293   2.203   6.487   3.314 -0.2562 -0.2409  0.1266
    9MOL   C518 6294   2.330   6.512   3.230  0.1494  0.4135 -0.1518
    9MOL   C519 6295   2.352   6.662   3.203 -0.3452  1.1456  0.1486
    9MOL   C520 6296   2.478   6.683   3.106 -0.5731  0.1241  0.4165
    9MOL   N521 6297   2.492   6.823   3.071  0.3411  0.4149  0.2039
    9MOL   C522 6298   1.604   6.402   3.575 -0.3116 -0.4179  0.0029
    9MOL   C523 6299   1.536   6.406   3.702 -0.0005 -0.5435  0.1534
    9MOL   H524 6300   1.794   6.297   3.890  0.7871 -1.4524 -1.1224
    9MOL   H525 6301   1.900   6.281   3.693  0.1265  1.5460  2.3433
    9MOL   H526 6302   1.972   6.384   3.511 -0.5988 -1.8758  1.1880
    9MOL   H527 6303   1.982   6.218   3.275 -0.7318 -0.2393 -0.4090
    9MOL   H528 6304   1.968   6.378   3.221 -2.2638 -2.8869 -2.0362
    9MOL   H529 6305   2.203   6.295   3.233  0.8275  1.9610 -0.9803
    9MOL   H530 6306   2.206   6.285   3.400 -0.7976 -0.9715 -0.4780
    9MOL   H531 6307   2.115   6.548   3.293 -0.9776 -1.0938  0.6374
    9MOL   H532 6308   2.229   6.517   3.416  0.7532 -0.9954  0.0987
    9MOL   H533 6309   2.331   6.451   3.140  1.0423  0.3139 -0.0773
    9MOL   H534 6310   2.416   6.472   3.283  0.0901 -0.3744 -0.6487
    9MOL   H535 6311   2.367   6.700   3.304 -0.4112 -0.7022  0.8685
    9MOL   H536 6312   2.260   6.701   3.161 -1.5972 -0.3027  1.5048
    9MOL   H537 6313   2.564   6.636   3.154 -0.0607 -0.8480 -1.4257
    9MOL   H538 6314   2.462   6.624   3.016  0.3437 -0.9297  0.9259
    9MOL   H539 6315   2.410   6.881   3.073 -0.5398 -0.8583  2.9134
    9MOL   H540 6316   1.553   6.437   3.487  0.2051 -1.4867 -0.7311
    9MOL   H541 6317   1.433   6.437   3.713 -0.3621 -0.8916 -2.0420
    9MOL   C542 6318   2.602   6.862   3.007 -0.3610  0.0627 -0.0174
    9MOL   O543 6319   2.701   6.794   2.999  0.6688 -0.1025  0.3529
    9MOL   C544 6320   2.605   7.001   2.947 -0.1424  0.3393  0.0751
    9MOL   C545 6321   2.488   7.084   2.964  0.3387  0.5792 -0.1610
    9MOL   C546 6322   2.465   7.198   2.884  0.1745  0.3823 -0.4726
    9MOL   C547 6323   2.572   7.250   2.804 -0.0573 -0.2350  0.1758
    9MOL   C548 6324   2.552   7.379   2.724 -0.1752  0.1008  0.6754
    9MOL   O549 6325   2.441   7.419   2.686  0.3997 -0.4297  0.4396
    9MOL   N550 6326   2.670   7.448   2.707  0.0057 -0.6258  0.5341
    9MOL   C551 6327   2.691   7.577   2.640 -0.4380  0.1997  0.3005
    9MOL   C552 6328   2.602   7.684   2.707 -0.5017  0.4129 -0.1298
    9MOL   C553 6329   2.610   7.826   2.650 -0.4743  0.7116 -0.1675
    9MOL   C554 6330   2.503   0.034   2.711 -0.0090  0.3728 -0.0700
    9MOL   C555 6331   2.533   0.090   2.856 -0.4245  0.0474 -0.8741
    9MOL   C556 6332   2.605   0.224   2.864 -0.3506 -0.1692 -0.0938
    9MOL   N557 6333   2.637   0.269   3.002 -0.3885  0.2354 -0.5834
    9MOL   C558 6334   2.701   7.180   2.803  0.2228 -0.6321 -0.5040
    9MOL   C559 6335   2.716   7.053   2.871  0.6324  0.4569 -0.4988
    9MOL   H560 6336   2.397   7.047   3.009  1.2543 -1.6874 -0.1230
    9MOL   H561 6337   2.367   7.244   2.881 -0.5209 -1.1200 -1.8903
    9MOL   H562 6338   2.748   7.406   2.755 -0.4650 -0.4439  1.4604
    9MOL   H563 6339   2.798   7.596   2.642 -0.3132 -0.5020  0.3226
    9MOL   H564 6340   2.666   7.578   2.534  1.1225 -1.0880 -0.1103
    9MOL   H565 6341   2.642   7.671   2.807  0.6683 -0.4587 -0.6909
    9MOL   H566 6342   2.497   7.655   2.710 -0.2448 -0.5681 -0.4693
    9MOL   H567 6343   2.708   7.875   2.657 -0.8407  1.6716 -1.5521
    9MOL   H568 6344   2.587   7.826   2.543  2.3018  0.7939 -0.8023
    9MOL   H569 6345   2.409   7.866   2.720  0.6074 -0.6953  0.0562
    9MOL   H570 6346   2.480   0.114   2.641  0.8031 -1.1624 -2.1533
    9MOL   H571 6347   2.575   0.014   2.922  0.3513 -0.2999 -1.7748
    9MOL   H572 6348   2.437   0.110   2.905 -0.7257 -1.4376 -0.8471
    9MOL   H573 6349   2.701   0.225   2.813  0.1766 -0.4327  0.8775
    9MOL   H574 6350   2.543   0.300   2.817  1.4611  1.5970  0.3104
    9MOL   H575 6351   2.644   0.207   3.082 -0.4188  0.3113 -0.5208
    9MOL   H576 6352   2.778   7.206   2.732  1.8067 -1.5538  0.8668
    9MOL   H577 6353   2.808   6.996   2.871  0.2958 -0.0774 -1.1850
    9MOL   C578 6354   2.688   0.391   3.034  0.3448  0.3132 -0.1626
    9MOL   O579 6355   2.733   0.474   2.950 -0.7078  0.3671  0.5208
    9MOL   C580 6356   2.694   0.420   3.186 -0.3216 -0.4320  0.8639
    9MOL   C581 6357   2.598   0.374   3.277 -0.1906  0.2316  0.5845
    9MOL   C582 6358   2.597   0.416   3.405  0.2997  0.6863 -0.1097
    9MOL   C583 6359   2.698   0.496   3.457 -0.7479 -0.2997 -0.0084
    9MOL   C584 6360   2.706   0.530   3.605  0.3513  0.4669  0.3989
    9MOL   O585 6361   2.805   0.572   3.667  0.3562 -0.7424  0.3971
    9MOL   N586 6362   2.588   0.503   3.666 -0.9150  0.2556 -0.2957
    9MOL   C587 6363   2.577   0.515   3.809 -0.0764  0.4321 -0.1643
    9MOL   C588 6364   2.545   0.373   3.862  0.3656  0.1557 -0.4476
    9MOL   C589 6365   2.506   0.396   4.008  0.4790 -0.0318  0.1445
    9MOL   C590 6366   2.492   0.265   4.093  0.2013 -0.1721  0.0132
    9MOL   C591 6367   2.452   0.293   4.243  0.1420  0.0740 -0.3795
    9MOL   C592 6368   2.304   0.314   4.282  0.2085  0.2925  0.2058
    9MOL   N593 6369   2.249   0.450   4.269 -0.2865  0.2154 -0.3714
    9MOL   C594 6370   2.798   0.538   3.371 -0.2158  0.7829 -0.1513
    9MOL   C595 6371   2.792   0.504   3.234  0.1278  0.6413  0.5532
    9MOL   H596 6372   2.524   0.305   3.239  1.3788 -2.4971  2.3198
    9MOL   H597 6373   2.528   0.364   3.470  1.5822 -0.6913  0.1763
    9MOL   H598 6374   2.521   0.461   3.604 -0.4463 -1.1652  0.1435
    9MOL   H599 6375   2.664   0.550   3.864  1.2271 -1.8362 -0.7146
    9MOL   H600 6376   2.499   0.591   3.822 -1.1518 -0.7394  0.3697
    9MOL   H601 6377   2.626   0.300   3.857 -1.0728 -1.3365 -2.9632
    9MOL   H602 6378   2.475   0.324   3.794  1.7286 -0.0753 -1.7211
    9MOL   H603 6379   2.579   0.458   4.059 -0.4908  0.3758  1.0711
    9MOL   H604 6380   2.408   0.445   4.006 -0.4621 -1.7770  1.5297
    9MOL   H605 6381   2.590   0.219   4.106  0.7841  0.9534 -0.3244
    9MOL   H606 6382   2.430   0.196   4.037 -2.4508  2.6387 -0.6288
    9MOL   H607 6383   2.510   0.378   4.280  0.5576 -0.7806  0.9533
    9MOL   H608 6384   2.485   0.205   4.297 -0.5269 -0.6346 -1.1140
    9MOL   H609 6385   2.237   0.241   4.236  0.2651 -0.8269  1.8497
    9MOL   H610 6386   2.300   0.283   4.387  1.0211  0.1031  0.1848
    9MOL   H611 6387   2.303   0.517   4.321 -0.5808  0.1355  0.0336
    9MOL   H612 6388   2.880   0.599   3.404  1.3456 -1.4038  0.0919
    9MOL   H613 6389   2.865   0.543   3.164  0.4491  0.0243  0.5441
    9MOL   C614 6390   2.180   0.493   4.161  0.5733  0.1336  0.2354
    9MOL   O615 6391   2.150   0.418   4.067  0.0349 -0.5613 -0.2605
    9MOL   C616 6392   2.141   0.635   4.164 -0.0959 -0.0101 -0.0392
    9MOL   C617 6393   2.046   0.684   4.066 -0.8979  0.1454 -0.2281
    9MOL   C618 6394   1.992   0.814   4.085 -0.5074 -0.5554  0.5463
    9MOL   C619 6395   2.055   0.904   4.179 -0.2247 -0.2153 -0.0589
    9MOL   C620 6396   1.999   1.044   4.190  0.0533 -0.1363 -0.6752
    9MOL   O621 6397   1.986   1.096   4.304 -0.1482  0.3002 -0.4088
    9MOL   N622 6398   1.976   1.107   4.075 -0.3174 -0.1919 -0.1041
    9MOL   C623 6399   1.940   1.247   4.077  0.0628 -0.9940  0.3201
    9MOL   C624 6400   1.993   1.318   3.958  0.2254  0.1678  0.0361
    9MOL   C625 6401   1.974   1.464   3.945  0.1315 -0.0081  0.0755
    9MOL   C626 6402   1.829   1.511   3.931  0.4191 -0.0892  0.1774
    9MOL   C627 6403   1.760   1.548   4.058  0.8013  0.0158 -0.1222
    9MOL   C628 6404   1.616   1.601   4.026 -0.0859 -0.3184 -0.1862
    9MOL   N629 6405   1.615   1.728   3.959  0.1773  0.3502  0.5575
    9MOL   C630 6406   2.158   0.861   4.257  0.5609  1.0963 -0.8502
    9MOL   C631 6407   2.197   0.725   4.256 -0.0434  0.4782  0.2616
    9MOL   H632 6408   2.013   0.622   3.983  0.9438 -2.8652  1.1826
    9MOL   H633 6409   1.923   0.852   4.012  0.7997  0.9624  0.0625
    9MOL   H634 6410   1.979   1.051   3.991 -0.0514  0.3449 -0.4569
    9MOL   H635 6411   1.832   1.262   4.084  0.2240  0.0802  0.5850
    9MOL   H636 6412   1.968   1.297   4.170  2.3812 -0.5060 -0.6260
    9MOL   H637 6413   1.950   1.274   3.868  2.4002 -2.3818  0.1914
    9MOL   H638 6414   2.101   1.304   3.950  0.3895  2.1923 -1.6309
    9MOL   H639 6415   2.015   1.522   4.027  0.0388 -0.9294  0.7741
    9MOL   H640 6416   2.030   1.497   3.857 -0.4754  2.0699  0.4396
    9MOL   H641 6417   1.775   1.445   3.864 -1.8923  0.4929  1.4293
    9MOL   H642 6418   1.835   1.607   3.879  1.6692  0.0699  0.5868
    9MOL   H643 6419   1.808   1.633   4.107 -0.3211  0.4509  0.2415
    9MOL   H644 6420   1.753   1.462   4.125 -2.5852  2.4560  2.8592
    9MOL   H645 6421   1.560   1.532   3.962  0.1729  1.1022 -1.9717
    9MOL   H646 6422   1.558   1.604   4.119 -0.2482  0.9505 -0.3240
    9MOL   H647 6423   1.625   1.721   3.859 -1.2125  1.6480  0.3184
    9MOL   H648 6424   2.205   0.923   4.333  2.5258 -0.6734 -0.5568
    9MOL   H649 6425   2.272   0.693   4.328 -0.9448  0.7939  1.3645
    9MOL   C650 6426   1.604   1.846   4.019 -0.0271 -0.0442 -0.3173
    9MOL   O651 6427   1.619   1.856   4.146  0.2070 -0.4223  0.4523
    9MOL   C652 6428   1.570   1.962   3.931  0.7980  0.6794 -0.1942
    9MOL   C653 6429   1.624   2.092   3.968  0.2392 -0.1073  0.1380
    9MOL   C654 6430   1.609   2.207   3.882  0.0556 -0.7874  0.4102
    9MOL   C655 6431   1.540   2.201   3.763 -0.0882 -0.1276  0.4708
    9MOL   C656 6432   1.533   2.324   3.682  0.8187 -0.6490 -0.4575
    9MOL   O657 6433   1.623   2.414   3.689 -0.5139 -0.2988 -0.4202
    9MOL   N658 6434   1.422   2.341   3.610  0.0270 -0.3298  0.8230
    9MOL   C659 6435   1.391   2.462   3.533 -0.0195  0.6519 -0.0667
    9MOL   C660 6436   1.263   2.516   3.583 -0.1561 -0.7260 -1.1811
    9MOL   C661 6437   1.214   2.645   3.508  0.5575 -0.0532 -0.0876
    9MOL   C662 6438   1.097   2.697   3.586  0.8220 -0.3060  0.0639
    9MOL   C663 6439   1.039   2.832   3.534  0.1857  0.5825 -0.0128
    9MOL   C664 6440   0.934   2.820   3.418  0.4486 -0.6015  0.1971
    9MOL   N665 6441   0.860   2.940   3.387 -0.4786  0.1282  0.2083
    9MOL   C666 6442   1.501   2.070   3.722  0.7218  0.6009  0.0417
    9MOL   C667 6443   1.505   1.955   3.810  0.1773 -0.2442 -0.4343
    9MOL   H668 6444   1.693   2.095   4.050 -0.1660  2.3650  0.4218
    9MOL   H669 6445   1.667   2.293   3.913  1.2446 -1.2840 -0.3890
    9MOL   H670 6446   1.379   2.258   3.570 -0.2028  0.4953 -0.6989
    9MOL   H671 6447   1.464   2.544   3.539 -0.3345  0.8039  1.7304
    9MOL   H672 6448   1.372   2.430   3.430 -2.6342  2.1909 -0.1061
    9MOL   H673 6449   1.288   2.549   3.684  1.1103 -1.7951 -1.1355
    9MOL   H674 6450   1.187   2.437   3.587 -1.6649  0.7253 -0.4916
    9MOL   H675 6451   1.288   2.724   3.498  0.1637  0.4627  0.9683
    9MOL   H676 6452   1.181   2.616   3.408 -0.9699  1.1570  0.0443
    9MOL   H677 6453   1.141   2.708   3.685  0.7801  0.9792 -0.0555
    9MOL   H678 6454   1.013   2.627   3.585  0.9786 -0.4998  0.3290
    9MOL   H679 6455   1.122   2.887   3.488 -1.3112  3.0121  0.1147
    9MOL   H680 6456   0.999   2.899   3.609 -1.4296  1.4807 -1.6397
    9MOL   H681 6457   0.970   2.786   3.321  0.4979 -1.4283  0.5023
    9MOL   H682 6458   0.863   2.744   3.451  1.0751 -1.5730 -0.6531
    9MOL   H683 6459   0.769   2.947   3.432  0.6902 -2.7748  3.3180
    9MOL   H684 6460   1.465   2.048   3.623 -0.2076 -0.0639  0.5166
    9MOL   H685 6461   1.472   1.861   3.768 -0.7732  0.9214 -2.3706
    9MOL   C686 6462   0.907   3.042   3.315  0.0263 -0.5277  0.0903
    9MOL   O687 6463   1.019   3.037   3.263 -0.2106  0.3265 -0.0122
    9MOL   C688 6464   0.811   3.165   3.303 -0.5999 -0.1256 -0.0544
    9MOL   C689 6465   0.682   3.168   3.366  0.4994  0.2629  0.1740
    9MOL   C690 6466   0.604   3.288   3.361  0.4821 -0.9838 -0.3763
    9MOL   C691 6467   0.650   3.400   3.295 -0.2106  0.1640 -0.3386
    9MOL   C692 6468   0.574   3.527   3.298  0.2285  0.1631  0.6934
    9MOL   O693 6469   0.446   3.522   3.300  0.1065 -0.2132 -0.0813
    9MOL   N694 6470   0.645   3.640   3.277 -0.5971  0.4802 -0.0843
    9MOL   C695 6471   0.592   3.764   3.213  0.0920 -0.2837 -0.4168
    9MOL   C696 6472   0.687   3.833   3.120  0.5390 -0.0507 -0.1047
    9MOL   C697 6473   0.795   3.747   3.050 -0.4530  0.3288  0.3177
    9MOL   C698 6474   0.743   3.653   2.949  0.2961  0.0422  0.3326
    9MOL   C699 6475   0.850   3.560   2.885 -0.3178  0.1219  0.3126
    9MOL   C700 6476   0.787   3.460   2.777  0.3528  0.1267 -0.5774
    9MOL   N701 6477   0.900   3.381   2.729  0.9923 -0.3988  1.1113
    9MOL   C702 6478   0.763   3.392   3.215 -0.2063 -0.0480 -0.2900
    9MOL   C703 6479   0.845   3.277   3.221 -0.6427  0.8387  0.4199
    9MOL   H704 6480   0.649   3.082   3.423  1.4530  0.8727  1.6657
    9MOL   H705 6481   0.508   3.304   3.409 -0.9681  0.4036 -3.5696
    9MOL   H706 6482   0.746   3.637   3.285 -0.5794  0.3151 -0.3384
    9MOL   H707 6483   0.502   3.738   3.157  0.7822  0.8122 -2.0815
    9MOL   H708 6484   0.553   3.827   3.293  1.6022  0.0726  0.0468
    9MOL   H709 6485   0.732   3.912   3.181 -3.0745  1.7126  0.3839
    9MOL   H710 6486   0.637   3.891   3.042 -0.0978  1.1798  1.1891
    9MOL   H711 6487   0.880   3.810   3.024  0.8103 -1.4692 -0.0473
    9MOL   H712 6488   0.843   3.692   3.132  0.9789  0.8063 -0.1809
    9MOL   H713 6489   0.693   3.718   2.878 -1.3767 -2.1819 -0.5767
    9MOL   H714 6490   0.657   3.602   2.992 -0.4266  2.0032  1.2808
    9MOL   H715 6491   0.900   3.493   2.956 -0.4435  1.0611  1.2895
    9MOL   H716 6492   0.922   3.621   2.830 -0.1762 -2.5935 -2.7145
    9MOL   H717 6493   0.707   3.405   2.825 -0.2889 -0.4868 -2.3082
    9MOL   H718 6494   0.752   3.513   2.688  0.9090  0.1142 -0.8046
    9MOL   H719 6495   0.857   3.306   2.676  1.1768  0.6169 -0.5175
    9MOL   H720 6496   0.787   3.476   3.151 -0.1216 -0.2709 -0.5521
    9MOL   H721 6497   0.928   3.254   3.155 -1.6279 -0.9925 -0.2351
    9MOL   H722 6498   0.949   3.419   2.649 -0.2059 -2.3697 -0.6329
   10MOL     C1 6499   6.458   2.226   6.556  0.3780 -0.3815 -0.0078
   10MOL     O2 6500   6.441   2.146   6.644 -0.6367  0.3315  0.1122
   10MOL     C3 6501   6.534   2.346   6.573  0.5936 -0.0854  0.0901
   10MOL     C4 6502   6.591   2.375   6.696  1.1485  0.4688 -0.9082
   10MOL     C5 6503   6.677   2.486   6.715  0.6343 -0.1277  0.0313
   10MOL     C6 6504   6.708   2.570   6.603  0.3456 -0.2500 -0.2147
   10MOL     C7 6505   6.809   2.684   6.608  0.2219 -0.1494 -0.1332
   10MOL     O8 6506   6.860   2.729   6.504  0.1363 -0.1793  0.0616
   10MOL     N9 6507   6.822   2.737   6.732 -0.0217 -0.4895  0.3416
   10MOL    C10 6508   6.907   2.853   6.766 -0.2910  0.4144 -0.4719
   10MOL    C11 6509   6.991   2.826   6.895 -0.3285  0.2438 -0.0378
   10MOL    C12 6510   7.141   2.800   6.871 -0.3498  0.2779 -0.0482
   10MOL    C13 6511   7.171   2.674   6.787  0.5700 -0.0827  0.0130
   10MOL    C14 6512   7.178   2.542   6.865  0.0413 -0.0934 -0.2802
   10MOL    C15 6513   7.283   2.553   6.990  0.0848  0.4326 -0.4967
   10MOL    N16 6514   7.293   2.428   7.062  0.3383 -0.2785  0.1075
   10MOL    C17 6515   6.653   2.536   6.477 -0.6569 -0.3957 -0.2425
   10MOL    C18 6516   6.567   2.424   6.463 -0.1280 -0.0177 -0.5287
   10MOL    H19 6517   6.567   2.304   6.774  1.1081 -0.7490 -2.0055
   10MOL    H20 6518   6.724   2.505   6.811  1.5472  1.8616 -0.7631
   10MOL    H21 6519   6.768   2.683   6.798  2.5570 -3.9523 -0.2235
   10MOL    H22 6520   6.968   2.888   6.683  0.5195  0.5227  0.1658
   10MOL    H23 6521   6.842   2.937   6.791  0.2888  0.6800  0.1624
   10MOL    H24 6522   6.949   2.738   6.943  0.1400 -0.6338 -1.2073
   10MOL    H25 6523   6.976   2.902   6.972  1.6433 -0.5907  1.2336
   10MOL    H26 6524   7.175   2.884   6.811 -0.2099 -0.5609 -1.1650
   10MOL    H27 6525   7.182   2.807   6.971  3.2286 -1.9219 -1.2739
   10MOL    H28 6526   7.266   2.692   6.738  0.6104 -1.4330 -0.4237
   10MOL    H29 6527   7.094   2.664   6.710  0.5134  0.7479 -0.0410
   10MOL    H30 6528   7.196   2.463   6.793 -1.2790 -0.4592 -0.2369
   10MOL    H31 6529   7.079   2.524   6.908 -0.2256  1.4534 -0.2037
   10MOL    H32 6530   7.382   2.581   6.953  0.4257  0.5128  0.4453
   10MOL    H33 6531   7.246   2.631   7.057 -1.5451 -0.5374 -0.2304
   10MOL    H34 6532   7.251   2.355   7.006  0.8113 -0.9667  0.6319
   10MOL    H35 6533   6.674   2.596   6.389 -1.4853 -1.8526 -1.4660
   10MOL    H36 6534   6.526   2.401   6.366  0.1198  1.1453 -0.9219
   10MOL    H37 6535   6.450   2.213   6.448  2.4295  1.3399 -0.4093
   10MOL    C38 6536   7.313   2.414   7.196 -0.2853 -0.3463  0.4447
   10MOL    O39 6537   7.362   2.509   7.261  0.2163  0.6935 -0.5837
   10MOL    C40 6538   7.306   2.273   7.250 -0.4106 -0.0299  0.0926
   10MOL    C41 6539   7.300   2.258   7.389  0.1567  0.1848 -0.5175
   10MOL    C42 6540   7.298   2.132   7.446 -0.7834  0.0336  0.1947
   10MOL    C43 6541   7.283   2.019   7.366  0.0355 -0.4088 -0.4537
   10MOL    C44 6542   7.248   1.898   7.437  0.3836 -0.1949  0.1963
   10MOL    O45 6543   7.136   1.843   7.413 -0.0982  0.4847  0.1028
   10MOL    N46 6544   7.338   1.855   7.520 -1.3330  0.6522 -0.6971
   10MOL    C47 6545   7.338   1.723   7.580 -0.3060 -0.2435 -0.4664
   10MOL    C48 6546   7.439   1.709   7.699 -0.4754 -0.1329  0.7944
   10MOL    C49 6547   7.453   1.573   7.762 -0.0592 -0.0658  0.3387
   10MOL    C50 6548   7.553   1.477   7.698 -0.5017 -1.1461  0.2424
   10MOL    C51 6549   7.567   1.340   7.773 -0.0417 -0.3647  0.0640
   10MOL    C52 6550   7.660   1.237   7.709  0.2469  0.1647  0.6314
   10MOL    N53 6551   7.641   1.102   7.767 -0.5480 -0.9879 -0.0058
   10MOL    C54 6552   7.285   2.026   7.221  0.3346 -0.1628 -0.0387
   10MOL    C55 6553   7.293   2.156   7.167 -0.1325 -0.8071  0.0905
   10MOL    H56 6554   7.307   2.344   7.453 -1.2684 -0.0932  0.0333
   10MOL    H57 6555   7.288   2.125   7.553 -0.4290 -0.8578  0.1743
   10MOL    H58 6556   7.424   1.905   7.539 -0.8726 -1.1802  2.5238
   10MOL    H59 6557   7.239   1.700   7.619  0.3952  0.8170  2.0568
   10MOL    H60 6558   7.368   1.653   7.502 -1.9931 -2.8022  1.0785
   10MOL    H61 6559   7.402   1.780   7.773  0.0085 -0.9108  1.7968
   10MOL    H62 6560   7.534   1.748   7.664 -1.6709  0.7698 -1.5083
   10MOL    H63 6561   7.464   1.575   7.871  0.8710  2.1714  0.2225
   10MOL    H64 6562   7.356   1.531   7.735 -0.7684  1.7675 -0.0433
   10MOL    H65 6563   7.650   1.527   7.702 -0.4761 -1.0824 -0.9758
   10MOL    H66 6564   7.534   1.463   7.591 -0.5121 -0.4763  0.1543
   10MOL    H67 6565   7.467   1.298   7.762  0.8681 -2.2882 -1.2381
   10MOL    H68 6566   7.599   1.355   7.876  0.7405  0.4632 -0.2952
   10MOL    H69 6567   7.647   1.238   7.601  0.8379 -0.3347  0.5447
   10MOL    H70 6568   7.758   1.278   7.735  0.7499 -1.2983  1.1296
   10MOL    H71 6569   7.605   1.035   7.701 -0.8146  0.5650 -1.4993
   10MOL    H72 6570   7.279   1.933   7.166 -1.4239  0.7697 -1.4911
   10MOL    H73 6571   7.287   2.172   7.060 -1.1962  1.4824  0.4587
   10MOL    C74 6572   7.674   1.079   0.011 -0.2761  0.1839  0.0689
   10MOL    O75 6573   7.728   1.158   0.089  0.5428 -0.1570 -0.0450
   10MOL    C76 6574   7.659   0.936   0.060 -0.6786  0.5933 -0.1070
   10MOL    C77 6575   7.642   0.826   7.864  0.1478 -0.7799  0.1668
   10MOL    C78 6576   7.645   0.696   0.036  0.1025  0.0922  0.5827
   10MOL    C79 6577   7.654   0.674   0.177  0.6554  0.4109 -0.0114
   10MOL    C80 6578   7.648   0.536   0.244  0.3407  0.0373  0.6795
   10MOL    O81 6579   7.688   0.440   0.185  0.1588  0.6092  0.2786
   10MOL    N82 6580   7.594   0.533   0.365  0.1891  0.2124  0.2546
   10MOL    C83 6581   7.576   0.413   0.446 -0.2741 -0.1082  0.3759
   10MOL    C84 6582   7.582   0.459   0.589  0.0964  0.1697 -0.1026
   10MOL    C85 6583   7.623   0.354   0.698  0.2048 -0.4366 -0.9567
   10MOL    C86 6584   7.652   0.420   0.837  0.0363  0.5477 -0.1537
   10MOL    C87 6585   7.728   0.324   0.929  0.2667 -0.1906 -0.7314
   10MOL    C88 6586   7.749   0.388   1.070  0.3367  0.3453  0.5379
   10MOL    N89 6587   7.875   0.344   1.122  0.7604 -0.1969 -0.3618
   10MOL    C90 6588   7.664   0.784   0.260 -0.4223  0.0067  0.2826
   10MOL    C91 6589   7.671   0.917   0.203  0.6549  0.3751  0.0354
   10MOL    H92 6590   7.644   0.839   7.757 -2.2756 -1.7644 -0.0239
   10MOL    H93 6591   7.638   0.605   7.863  0.0574  1.5976 -1.8015
   10MOL    H94 6592   7.540   0.612   0.395  1.1097  0.3800  1.5324
   10MOL    H95 6593   7.479   0.367   0.427  0.2250 -0.6016 -1.0802
   10MOL    H96 6594   7.643   0.329   0.432 -0.6054 -0.6756  2.1158
   10MOL    H97 6595   7.488   0.508   0.614  0.7201  0.9252  0.7520
   10MOL    H98 6596   7.660   0.534   0.601 -0.7509  0.7921  1.5796
   10MOL    H99 6597   7.569   0.261   0.712 -0.4133  0.1820  0.9133
   10MOL   H100 6598   7.720   0.320   0.661  1.4210  2.5936 -0.7291
   10MOL   H101 6599   7.561   0.461   0.880 -0.0797  0.8783 -0.7017
   10MOL   H102 6600   7.715   0.508   0.819  0.4965 -0.0806 -1.6955
   10MOL   H103 6601   7.824   0.281   0.900 -0.8951 -1.5948 -2.6524
   10MOL   H104 6602   7.679   0.227   0.938  0.4568 -0.0905  1.5293
   10MOL   H105 6603   7.736   0.496   1.065 -0.0677  0.2428 -0.5644
   10MOL   H106 6604   7.663   0.359   1.130  0.1903 -0.2616  0.0352
   10MOL   H107 6605   7.872   0.292   1.208 -1.0041  0.0811 -0.2394
   10MOL   H108 6606   7.682   0.781   0.366  1.9232  3.1195  0.0455
   10MOL   H109 6607   7.671   0.999   0.273 -0.6715  0.0712  0.4125
   10MOL   C110 6608   0.104   0.406   1.087  0.1995  0.2391  0.0444
   10MOL   O111 6609   0.097   0.502   1.011 -0.4619 -0.3815  0.0903
   10MOL   C112 6610   0.235   0.355   1.134 -0.1373 -0.2897 -1.0588
   10MOL   C113 6611   0.342   0.446   1.117 -0.3330 -0.0978 -0.4329
   10MOL   C114 6612   0.474   0.420   1.165  0.9961 -0.3592  0.2407
   10MOL   C115 6613   0.502   0.295   1.217 -0.5551 -0.9544  0.1195
   10MOL   C116 6614   0.638   0.259   1.261 -0.1948  0.1404 -0.5060
   10MOL   O117 6615   0.666   0.208   1.368 -0.1192 -0.1779 -0.0365
   10MOL   N118 6616   0.725   0.285   1.160  0.4349  0.4870 -0.1549
   10MOL   C119 6617   0.864   0.255   1.159 -0.7841  0.0057  0.2088
   10MOL   C120 6618   0.890   0.136   1.063  0.2508  0.0166  0.2283
   10MOL   C121 6619   0.888   0.168   0.916  0.0274 -0.2278  0.3917
   10MOL   C122 6620   0.951   0.053   0.840 -0.4919 -0.2311  0.3670
   10MOL   C123 6621   0.938   0.076   0.694 -0.3702 -0.7326 -0.6287
   10MOL   C124 6622   0.989   7.836   0.617 -0.5767 -0.1836 -0.0367
   10MOL   N125 6623   0.980   7.843   0.472 -0.4579  0.5459 -0.1386
   10MOL   C126 6624   0.400   0.199   1.231 -0.2782 -0.7022 -0.2400
   10MOL   C127 6625   0.264   0.232   1.191 -0.2177 -0.1043  0.0919
   10MOL   H128 6626   0.323   0.543   1.072  0.1601 -0.4071 -1.3244
   10MOL   H129 6627   0.549   0.498   1.158  0.9699 -0.2649  0.9743
   10MOL   H130 6628   0.687   0.302   1.068  0.0137  0.2017 -0.0331
   10MOL   H131 6629   0.920   0.340   1.121  0.8928 -0.2811  1.9449
   10MOL   H132 6630   0.902   0.224   1.256 -1.0135  2.0659  0.9859
   10MOL   H133 6631   0.833   0.047   1.089 -2.0221  2.0214  2.3152
   10MOL   H134 6632   0.992   0.104   1.084 -0.1258 -0.3624  1.5195
   10MOL   H135 6633   0.784   0.184   0.888  0.7291  1.2980 -1.4520
   10MOL   H136 6634   0.941   0.260   0.894  1.1499 -0.7227  0.9848
   10MOL   H137 6635   0.908   7.842   0.867  0.5598 -0.8986 -0.3014
   10MOL   H138 6636   1.056   0.036   0.865 -0.6548 -3.3450 -0.7414
   10MOL   H139 6637   0.987   0.167   0.659 -0.2667 -0.3103  0.6039
   10MOL   H140 6638   0.838   0.094   0.656 -1.3435 -2.0159  1.2852
   10MOL   H141 6639   1.085   7.799   0.654 -0.4229  0.1642 -0.0928
   10MOL   H142 6640   0.923   7.757   0.654  1.5076 -0.4833  3.2276
   10MOL   H143 6641   0.919   0.030   0.438  0.6706  1.5289 -0.1134
   10MOL   H144 6642   0.426   0.106   1.280 -0.3610 -1.0030 -0.7729
   10MOL   H145 6643   0.175   0.172   1.206 -0.2437  0.2689  1.4662
   10MOL   C146 6644   1.013   7.744   0.388  0.1604 -0.3695  0.6865
   10MOL   O147 6645   1.065   7.641   0.435  0.0824  0.0820 -0.1725
   10MOL   C148 6646   0.974   7.762   0.237 -0.3614 -0.1508  0.3906
   10MOL   C149 6647   0.904   7.662   0.166 -0.3679  0.0688  0.5637
   10MOL   C150 6648   0.858   7.678   0.035  0.3641  0.0000  0.2744
   10MOL   C151 6649   0.889   7.792   7.848  0.2319  0.0004  0.0845
   10MOL   C152 6650   0.846   7.812   7.700 -0.8205 -0.0236 -0.3029
   10MOL   O153 6651   0.756   7.737   7.657  0.1950  0.3393 -0.3878
   10MOL   N154 6652   0.892   0.034   7.642 -0.8048  0.0603 -0.1530
   10MOL   C155 6653   0.885   0.083   7.510  0.3748  0.6322  0.2472
   10MOL   C156 6654   0.787   0.197   7.496 -0.2205  0.6047  0.1925
   10MOL   C157 6655   0.787   0.238   7.345  0.2744 -0.3767 -0.1689
   10MOL   C158 6656   0.697   0.354   7.321 -0.3939 -0.1401  0.5230
   10MOL   C159 6657   0.701   0.415   7.182 -0.0542  0.5709 -0.1704
   10MOL   C160 6658   0.653   0.328   7.068 -0.4036 -0.5328 -0.4394
   10MOL   N161 6659   0.651   0.396   6.939  0.4783  0.1450 -0.4598
   10MOL   C162 6660   0.952   0.008   0.033  1.0810 -0.2704  0.6294
   10MOL   C163 6661   1.000   7.879   0.167 -0.9062 -0.1532  0.3610
   10MOL   H164 6662   0.877   7.572   0.218  4.1730 -0.9593  1.3543
   10MOL   H165 6663   0.790   7.604   7.880 -0.6420  1.1022 -0.0480
   10MOL   H166 6664   0.955   0.091   7.697 -0.7887  0.6203 -0.7574
   10MOL   H167 6665   0.988   0.097   7.479  0.3159  0.3034 -0.1070
   10MOL   H168 6666   0.868   7.884   7.443  1.0774 -0.0145  0.8788
   10MOL   H169 6667   0.813   0.283   7.559  0.4353  0.0977  0.6204
   10MOL   H170 6668   0.688   0.162   7.525  1.5176 -3.4630  1.6162
   10MOL   H171 6669   0.890   0.260   7.317  0.8840  2.5681  3.8233
   10MOL   H172 6670   0.760   0.146   7.294  1.6010 -2.2410  2.3413
   10MOL   H173 6671   0.704   0.435   7.394 -0.6475  0.2624  0.1062
   10MOL   H174 6672   0.593   0.325   7.335 -0.2475 -1.3539 -0.8150
   10MOL   H175 6673   0.802   0.453   7.168  0.4825 -0.7251  0.1650
   10MOL   H176 6674   0.636   0.503   7.188  0.5996  1.0549 -0.1630
   10MOL   H177 6675   0.725   0.247   7.055  1.1480  0.8060 -0.3423
   10MOL   H178 6676   0.552   0.302   7.101  0.0734 -0.4402  1.0982
   10MOL   H179 6677   0.722   0.370   6.872  0.2405 -1.6263 -0.0566
   10MOL   H180 6678   0.986   0.101   7.877 -1.5093  1.5751  2.4735
   10MOL   H181 6679   1.039   0.082   0.215  1.1161  0.0437 -1.5753
   10MOL   C182 6680   0.546   0.476   6.906 -0.2075  0.4108 -0.4654
   10MOL   O183 6681   0.438   0.468   6.962 -0.1258  0.4163  0.0277
   10MOL   C184 6682   0.558   0.548   6.782  0.1686  0.2743  0.4703
   10MOL   C185 6683   0.472   0.518   6.680 -0.2035  0.1288 -0.0818
   10MOL   C186 6684   0.467   0.591   6.563 -0.3818 -0.6659 -0.5706
   10MOL   C187 6685   0.550   0.709   6.551 -0.3944  0.3949  0.5046
   10MOL   C188 6686   0.534   0.800   6.429 -0.8074  0.1647  0.1453
   10MOL   O189 6687   0.501   0.748   6.321 -0.1293 -0.0481 -0.0306
   10MOL   N190 6688   0.540   0.930   6.454 -0.5718  0.3218  0.7938
   10MOL   C191 6689   0.511   1.041   6.362  0.7195 -0.6336 -0.3012
   10MOL   C192 6690   0.633   1.115   6.303 -0.9676  1.4033 -1.0027
   10MOL   C193 6691   0.606   1.240   6.221 -0.1695 -0.2784  0.8092
   10MOL   C194 6692   0.538   1.364   6.291  0.5860 -0.4019  0.4398
   10MOL   C195 6693   0.518   1.480   6.187 -0.0181  0.3146  0.0106
   10MOL   C196 6694   0.432   1.593   6.230 -0.8149  0.3480  0.1648
   10MOL   N197 6695   0.425   1.605   6.376 -0.0043 -0.3674 -0.1953
   10MOL   C198 6696   0.641   0.739   6.655  0.3830  0.3195  0.7399
   10MOL   C199 6697   0.651   0.656   6.771 -0.4516 -0.4251 -0.2628
   10MOL   H200 6698   0.408   0.434   6.704 -0.3563  0.9120  2.2925
   10MOL   H201 6699   0.399   0.560   6.485  0.5227 -0.5594 -1.4050
   10MOL   H202 6700   0.567   0.958   6.547  2.1277 -0.4117  0.2700
   10MOL   H203 6701   0.452   0.999   6.281  0.8287 -0.6484 -0.3749
   10MOL   H204 6702   0.454   1.102   6.432  0.1620 -1.0409 -0.4041
   10MOL   H205 6703   0.686   1.033   6.255 -2.3086  0.9147 -1.6420
   10MOL   H206 6704   0.695   1.141   6.390 -0.1171 -0.7616 -0.9189
   10MOL   H207 6705   0.706   1.259   6.182  0.3816 -0.2566  2.2226
   10MOL   H208 6706   0.548   1.218   6.131  0.0792  0.9556  0.3239
   10MOL   H209 6707   0.604   1.398   6.371 -0.2474  0.8872  0.5915
   10MOL   H210 6708   0.444   1.336   6.339  0.0600 -0.5717 -0.6804
   10MOL   H211 6709   0.475   1.433   6.098 -2.9428  0.6235  1.2007
   10MOL   H212 6710   0.610   1.522   6.145  0.0207 -2.1597 -2.5651
   10MOL   H213 6711   0.458   1.691   6.189 -0.4486  0.2923  0.2603
   10MOL   H214 6712   0.331   1.560   6.205  0.0815 -1.3553 -1.2808
   10MOL   H215 6713   0.359   1.544   6.422  0.4325 -1.6120 -1.1947
   10MOL   H216 6714   0.716   0.814   6.634  0.4744 -0.4650 -1.8722
   10MOL   H217 6715   0.720   0.673   6.852  0.5917  0.9805 -1.4015
   10MOL   C218 6716   0.504   1.680   6.456 -0.2206  0.1192  0.3684
   10MOL   O219 6717   0.589   1.758   6.415  0.0653  0.1840 -0.2034
   10MOL   C220 6718   0.487   1.663   6.607 -0.0332 -0.6876  0.9447
   10MOL   C221 6719   0.536   1.764   6.695 -0.0599  0.2877  0.0700
   10MOL   C222 6720   0.536   1.743   6.832  0.0186 -0.3525 -0.5747
   10MOL   C223 6721   0.481   1.624   6.883  0.1779  0.4338 -0.9853
   10MOL   C224 6722   0.493   1.601   7.026  0.6854 -0.6131  0.0024
   10MOL   O225 6723   0.489   1.702   7.106 -0.7244  0.3016  0.1941
   10MOL   N226 6724   0.526   1.478   7.064  0.0476 -0.6498  0.7484
   10MOL   C227 6725   0.494   1.427   7.195 -0.4925 -0.3991 -0.6396
   10MOL   C228 6726   0.591   1.313   7.225 -0.2089 -0.3615 -0.1385
   10MOL   C229 6727   0.596   1.274   7.373  0.4506 -0.3716 -0.5949
   10MOL   C230 6728   0.656   1.131   7.389  0.2755 -0.0403 -0.0391
   10MOL   C231 6729   0.658   1.098   7.537  0.6853 -0.0771 -0.1733
   10MOL   C232 6730   0.712   0.956   7.575  0.0327 -0.4521  0.2494
   10MOL   N233 6731   0.747   0.952   7.716 -0.4371  0.0427 -0.4378
   10MOL   C234 6732   0.425   1.529   6.802 -0.3258  0.1945  0.0349
   10MOL   C235 6733   0.439   1.541   6.663 -0.1047 -0.2319 -0.2640
   10MOL   H236 6734   0.568   1.859   6.655 -0.5198  0.7130  0.7010
   10MOL   H237 6735   0.584   1.814   6.898 -1.2780 -0.4855  0.5363
   10MOL   H238 6736   0.519   1.411   6.988  0.7047 -1.2277  1.1929
   10MOL   H239 6737   0.513   1.499   7.275 -2.3559 -0.4712 -0.1139
   10MOL   H240 6738   0.397   1.379   7.204 -1.9191  2.6177  0.9990
   10MOL   H241 6739   0.690   1.321   7.179  0.1146 -2.8558  0.0613
   10MOL   H242 6740   0.549   1.226   7.173  2.6125 -1.3926 -0.7903
   10MOL   H243 6741   0.650   1.346   7.435 -0.9518  0.4274 -0.2967
   10MOL   H244 6742   0.495   1.278   7.413 -0.0423 -3.5976 -1.3928
   10MOL   H245 6743   0.758   1.143   7.353  0.5797 -1.7260  0.2304
   10MOL   H246 6744   0.614   1.051   7.329  0.6142  0.1602 -0.5476
   10MOL   H247 6745   0.556   1.117   7.569  0.5963  0.2056 -0.6308
   10MOL   H248 6746   0.716   1.174   7.590  0.8801 -2.2663  2.8993
   10MOL   H249 6747   0.647   0.874   7.542 -0.3096 -0.8549  1.8754
   10MOL   H250 6748   0.812   0.953   7.534 -0.6389  0.9910 -1.5744
   10MOL   H251 6749   0.786   1.034   7.761 -1.6874  0.8883 -0.8633
   10MOL   H252 6750   0.373   1.444   6.842  1.1025 -0.5096  0.3995
   10MOL   H253 6751   0.406   1.461   6.598 -0.8333  2.2026 -2.9823
   10MOL   C254 6752   0.675   0.873   7.802 -1.0555  0.9597  0.0553
   10MOL   O255 6753   0.603   0.774   7.761 -0.0516  0.3603  0.0270
   10MOL   C256 6754   0.696   0.895   0.064  0.0135  0.6225  0.1455
   10MOL   C257 6755   0.754   1.011   0.121  0.1009 -0.7392 -0.4685
   10MOL   C258 6756   0.764   1.031   0.262  0.0971  0.1959  0.9353
   10MOL   C259 6757   0.709   0.931   0.347 -0.1100 -0.5147 -0.3028
   10MOL   C260 6758   0.706   0.964   0.496  0.2109 -0.0338  0.5295
   10MOL   O261 6759   0.788   1.045   0.536  0.1244  0.5475 -0.0477
   10MOL   N262 6760   0.626   0.895   0.583  0.3285  0.0338 -0.1185
   10MOL   C263 6761   0.633   0.903   0.727  0.1288 -0.3041  0.5785
   10MOL   C264 6762   0.541   0.806   0.803 -0.2653  0.2037 -0.3205
   10MOL   C265 6763   0.516   0.662   0.755 -0.1436 -0.1966  0.3935
   10MOL   C266 6764   0.624   0.587   0.693  0.2770 -0.1906 -0.3084
   10MOL   C267 6765   0.607   0.438   0.684 -0.0137  0.1434 -1.0547
   10MOL   C268 6766   0.712   0.374   0.591  0.2441  0.0759 -0.1722
   10MOL   N269 6767   0.665   0.357   0.454 -0.9032  0.1313 -0.4252
   10MOL   C270 6768   0.652   0.824   0.292  0.0019 -0.9165 -0.1890
   10MOL   C271 6769   0.642   0.801   0.154  0.0717  0.1961  0.2938
   10MOL   H272 6770   0.786   1.090   0.055  0.9836 -0.1204  0.6849
   10MOL   H273 6771   0.806   1.120   0.306 -0.0790  0.5133  0.4740
   10MOL   H274 6772   0.541   0.857   0.544  0.0071  0.8076 -0.1740
   10MOL   H275 6773   0.729   0.868   0.764 -0.2964 -3.3091 -0.9672
   10MOL   H276 6774   0.622   1.007   0.756  0.9732 -0.5476  1.7963
   10MOL   H277 6775   0.446   0.847   0.837  0.0901  1.6228 -0.9943
   10MOL   H278 6776   0.599   0.797   0.895  1.9623 -0.0385 -1.7032
   10MOL   H279 6777   0.484   0.600   0.839 -0.3270  0.2833  0.6809
   10MOL   H280 6778   0.431   0.673   0.687 -0.5061  0.1437  0.8928
   10MOL   H281 6779   0.712   0.616   0.750 -0.8243  2.3303  0.1890
   10MOL   H282 6780   0.635   0.623   0.591  1.8805  1.4392  0.4134
   10MOL   H283 6781   0.502   0.414   0.667 -0.9126  2.9103  0.3050
   10MOL   H284 6782   0.630   0.404   0.785 -1.8911  1.8660 -0.0071
   10MOL   H285 6783   0.806   0.429   0.585 -1.3076  2.6643 -1.5263
   10MOL   H286 6784   0.737   0.276   0.632  0.8625 -0.5213 -1.8985
   10MOL   H287 6785   0.593   0.416   0.414 -1.3377  0.1785  0.4067
   10MOL   H288 6786   0.611   0.752   0.361  1.6318 -1.8327 -0.1400
   10MOL   H289 6787   0.586   0.712   0.125  0.3433  0.3568 -0.7599
   10MOL   C290 6788   0.727   0.283   0.361 -0.3602  0.6151 -0.0190
   10MOL   O291 6789   0.827   0.224   0.382  0.1953 -0.4236 -1.0479
   10MOL   C292 6790   0.672   0.298   0.223  0.1255 -0.4881  0.0047
   10MOL   C293 6791   0.617   0.427   0.184  1.2030 -0.2834  0.0733
   10MOL   C294 6792   0.553   0.434   0.058 -0.7460 -0.7283 -0.3995
   10MOL   C295 6793   0.555   0.325   7.851 -0.1659  0.1811 -0.6852
   10MOL   C296 6794   0.499   0.347   7.713  0.0620 -1.1087  0.4713
   10MOL   O297 6795   0.451   0.249   7.654 -0.6668 -0.0097 -0.0106
   10MOL   N298 6796   0.479   0.469   7.674  0.8042 -0.0581  0.2120
   10MOL   C299 6797   0.408   0.508   7.551 -0.5868 -0.4950  1.1584
   10MOL   C300 6798   0.440   0.649   7.493 -1.0114 -0.4780 -0.3943
   10MOL   C301 6799   0.373   0.691   7.362 -0.1654 -0.6381 -0.0439
   10MOL   C302 6800   0.406   0.838   7.324 -0.6701  0.3397 -0.0822
   10MOL   C303 6801   0.324   0.881   7.197 -0.8476  0.1470 -0.1840
   10MOL   C304 6802   0.343   1.025   7.151 -0.3152  1.2752 -0.0209
   10MOL   N305 6803   0.267   1.050   7.027 -0.0538 -0.5739  0.0435
   10MOL   C306 6804   0.627   0.205   7.883 -0.5757  0.0670 -0.3359
   10MOL   C307 6805   0.687   0.193   0.126  0.1254 -0.5997 -0.2803
   10MOL   H308 6806   0.617   0.512   0.251  0.2073  0.1596 -0.4930
   10MOL   H309 6807   0.496   0.525   0.043  0.1543 -0.4408 -2.1206
   10MOL   H310 6808   0.515   0.551   7.721  2.2849 -0.3884 -0.3368
   10MOL   H311 6809   0.414   0.436   7.469  0.1156 -2.9365  3.3002
   10MOL   H312 6810   0.302   0.516   7.575 -0.2691  1.0221  2.0761
   10MOL   H313 6811   0.546   0.645   7.467 -0.7145 -2.3811  0.9494
   10MOL   H314 6812   0.412   0.726   7.566 -1.2390 -1.8252  0.9748
   10MOL   H315 6813   0.407   0.629   7.279  1.1168 -2.7908  2.0238
   10MOL   H316 6814   0.266   0.672   7.371 -0.2254  0.1262  0.9738
   10MOL   H317 6815   0.514   0.853   7.310 -1.0509  2.8844 -0.6185
   10MOL   H318 6816   0.391   0.913   7.401 -1.1438 -0.5406  0.6817
   10MOL   H319 6817   0.220   0.852   7.213 -0.6629 -0.8918 -0.8257
   10MOL   H320 6818   0.359   0.811   7.121 -0.6135  0.5363 -0.4405
   10MOL   H321 6819   0.317   1.102   7.223  0.1126  2.1206 -0.7546
   10MOL   H322 6820   0.448   1.045   7.130 -0.1335  0.4291  0.0516
   10MOL   H323 6821   0.212   0.971   6.996 -0.0053 -0.5854 -0.0130
   10MOL   H324 6822   0.642   0.125   7.812  1.7129 -0.5727  0.8244
   10MOL   H325 6823   0.721   0.094   0.155 -0.6392 -0.5586  0.7722
   10MOL   C326 6824   0.312   1.136   6.932  0.2757  0.0340 -0.3734
   10MOL   O327 6825   0.406   1.214   6.951 -0.2137 -0.2767  0.3619
   10MOL   C328 6826   0.236   1.144   6.804 -0.2111  0.0950  0.1674
   10MOL   C329 6827   0.305   1.185   6.686  1.0104 -0.1538  0.0630
   10MOL   C330 6828   0.241   1.209   6.565 -0.0416  0.3467  0.4777
   10MOL   C331 6829   0.105   1.177   6.554 -0.6112 -0.4788  0.9488
   10MOL   C332 6830   0.033   1.191   6.422  1.1495  0.0790  0.3098
   10MOL   O333 6831   7.839   1.106   6.393  0.2912  0.4503  0.2730
   10MOL   N334 6832   0.068   1.295   6.339  0.2565 -1.0532 -0.3551
   10MOL   C335 6833   0.020   1.313   6.205 -0.2799 -0.4702  0.1766
   10MOL   C336 6834   0.136   1.285   6.102  0.3570  0.0076 -0.4779
   10MOL   C337 6835   0.213   1.148   6.097 -0.2333 -0.1519  0.0275
   10MOL   C338 6836   0.131   1.023   6.072  0.8077 -0.2448  0.0710
   10MOL   C339 6837   0.205   0.895   6.031  0.1276  0.3161 -0.5499
   10MOL   C340 6838   0.126   0.764   6.064  0.2655  0.0795  1.0122
   10MOL   N341 6839   0.112   0.759   6.204 -0.0616 -0.7143 -0.3364
   10MOL   C342 6840   0.037   1.153   6.677 -0.6617 -0.3816  0.4215
   10MOL   C343 6841   0.100   1.132   6.800 -0.1061  0.4081  0.1793
   10MOL   H344 6842   0.411   1.202   6.686  1.1483 -0.2220  4.9930
   10MOL   H345 6843   0.285   1.254   6.477  1.9731 -1.0894  0.7209
   10MOL   H346 6844   0.153   1.342   6.366 -0.2989 -0.2424 -0.0135
   10MOL   H347 6845   7.818   1.252   6.184  0.2188 -0.5049 -1.8954
   10MOL   H348 6846   7.875   1.416   6.185  3.0073  0.8243  1.3481
   10MOL   H349 6847   0.217   1.349   6.136 -1.2936  0.8590  1.9742
   10MOL   H350 6848   0.119   1.316   5.999  1.8199  3.9272  0.3623
   10MOL   H351 6849   0.298   1.158   6.029 -0.6483  1.2582 -0.3024
   10MOL   H352 6850   0.260   1.139   6.195  1.4102  1.5623 -0.5757
   10MOL   H353 6851   0.047   1.035   6.004  0.9568  2.2961  0.2645
   10MOL   H354 6852   0.057   1.014   6.151  1.2144  1.6698  0.7121
   10MOL   H355 6853   0.296   0.883   6.090  1.2946  2.0627 -1.9317
   10MOL   H356 6854   0.233   0.887   5.926 -1.3342  1.0612 -1.0058
   10MOL   H357 6855   0.027   0.764   6.019  0.4112 -1.5612  0.6546
   10MOL   H358 6856   0.195   0.696   6.014 -0.6691  0.5684 -0.9884
   10MOL   H359 6857   0.125   0.842   6.261  0.3407 -0.3886 -0.8969
   10MOL   H360 6858   7.816   1.148   6.683 -0.7447 -0.2516 -0.7647
   10MOL   H361 6859   0.046   1.109   6.891 -0.0810 -0.0647  0.0764
   10MOL   C362 6860   0.107   0.641   6.273  0.3496  0.3528  0.0076
   10MOL   O363 6861   0.092   0.540   6.212  0.5736  0.1671 -0.1659
   10MOL   C364 6862   0.115   0.653   6.422  0.5394  0.3737 -0.3280
   10MOL   C365 6863   0.063   0.551   6.501 -0.3850  0.3946 -0.3509
   10MOL   C366 6864   0.070   0.553   6.641  0.4765 -0.4656  1.5408
   10MOL   C367 6865   0.115   0.666   6.705  0.1768 -0.6998  0.0954
   10MOL   C368 6866   0.127   0.673   6.852 -0.0599 -0.0337  0.8945
   10MOL   O369 6867   0.131   0.780   6.905 -0.8259 -0.0494 -0.1708
   10MOL   N370 6868   0.137   0.560   6.916  0.2879  0.6308  0.0936
   10MOL   C371 6869   0.142   0.548   7.057  0.0171 -0.8980 -0.0010
   10MOL   C372 6870   0.128   0.404   7.104 -0.2796 -0.1060  0.3192
   10MOL   C373 6871   0.191   0.373   7.242 -0.2099  0.3750  0.4789
   10MOL   C374 6872   0.146   0.238   7.304  0.2858  0.2805  0.0321
   10MOL   C375 6873   0.240   0.189   7.417 -0.5015  0.4790  0.0160
   10MOL   C376 6874   0.210   0.039   7.442  0.2520 -0.0728  0.0662
   10MOL   N377 6875   0.278   7.883   7.561  0.0585  0.0429  0.0317
   10MOL   C378 6876   0.151   0.780   6.622 -0.3689  0.5369 -0.1278
   10MOL   C379 6877   0.147   0.777   6.486  0.3909  0.7168 -0.1642
   10MOL   H380 6878   0.026   0.463   6.451  1.3475 -1.3117  1.3117
   10MOL   H381 6879   0.042   0.467   6.701  0.8793 -0.3530  1.8878
   10MOL   H382 6880   0.173   0.480   6.867 -1.3878  0.4674 -0.8950
   10MOL   H383 6881   0.238   0.584   7.093 -0.5009  2.1279 -1.4480
   10MOL   H384 6882   0.067   0.620   7.091 -2.3262 -2.4266 -1.7788
   10MOL   H385 6883   0.185   0.347   7.031  2.0053  3.8336 -1.1238
   10MOL   H386 6884   0.023   0.374   7.110 -0.2614 -0.4393 -1.0270
   10MOL   H387 6885   0.300   0.382   7.234  0.0725 -3.2530 -0.9618
   10MOL   H388 6886   0.148   0.455   7.300 -0.9686 -0.1733  0.6931
   10MOL   H389 6887   0.125   0.160   7.231  0.1794  1.7246 -1.5282
   10MOL   H390 6888   0.047   0.256   7.344  0.3461  1.2430 -0.2374
   10MOL   H391 6889   0.213   0.244   7.507 -1.7977 -0.2404  0.0786
   10MOL   H392 6890   0.346   0.192   7.392 -0.2771 -1.6889  0.5371
   10MOL   H393 6891   0.105   0.026   7.467  0.0320  0.9430 -0.2984
   10MOL   H394 6892   0.240   7.863   7.358  0.5795  0.3526 -0.1379
   10MOL   H395 6893   0.360   0.052   7.583 -0.1572  0.5045 -0.3165
   10MOL   H396 6894   0.167   0.876   6.670 -1.5646 -0.5395  2.5122
   10MOL   H397 6895   0.184   0.860   6.427  0.0313  0.9685 -0.0321
   10MOL   C398 6896   0.247   7.779   7.636  0.6209  0.2163 -0.0665
   10MOL   O399 6897   0.154   7.703   7.607  0.3340  0.0181 -0.1466
   10MOL   C400 6898   0.328   7.761   7.757  0.2825 -0.4729 -0.4923
   10MOL   C401 6899   0.340   7.871   7.854  0.2525 -0.2772  0.7546
   10MOL   C402 6900   0.401   7.848   0.093 -0.2758 -0.5315 -0.3085
   10MOL   C403 6901   0.453   7.724   0.131 -0.1764 -0.3083 -0.4323
   10MOL   C404 6902   0.530   7.696   0.259  0.9353 -0.0816  0.3983
   10MOL   O405 6903   0.582   7.585   0.272 -0.5473  0.7718 -0.0018
   10MOL   N406 6904   0.544   7.796   0.347  0.3278 -0.0013 -0.3432
   10MOL   C407 6905   0.616   7.794   0.479 -0.5212  0.2721 -0.2869
   10MOL   C408 6906   0.523   7.803   0.603 -0.6422 -0.3561  0.4371
   10MOL   C409 6907   0.598   7.774   0.735  0.1250  0.2608 -0.2128
   10MOL   C410 6908   0.497   7.715   0.837  0.2990 -0.3926 -0.2531
   10MOL   C411 6909   0.432   7.819   0.930 -0.0203  0.4192  0.2028
   10MOL   C412 6910   0.335   0.036   0.877 -0.4696 -0.5911 -0.2370
   10MOL   N413 6911   0.217   7.856   0.814 -0.3710 -0.0800  0.3000
   10MOL   C414 6912   0.444   7.619   0.036  0.3105 -0.0689 -0.7398
   10MOL   C415 6913   0.374   7.639   7.799  0.7963  0.1193 -0.4386
   10MOL   H416 6914   0.306   0.083   7.824  0.8122 -0.2972  0.0445
   10MOL   H417 6915   0.409   0.053   0.151  0.2811 -0.0850 -1.0730
   10MOL   H418 6916   0.498   7.881   0.317 -0.4899  0.3237  1.7303
   10MOL   H419 6917   0.672   7.700   0.483 -1.3302 -0.1731  1.1650
   10MOL   H420 6918   0.685   7.878   0.478  0.2394 -0.3222  0.9362
   10MOL   H421 6919   0.449   7.726   0.581 -1.0438  1.1665 -4.0561
   10MOL   H422 6920   0.479   0.017   0.603 -0.8563 -0.4429 -0.7705
   10MOL   H423 6921   0.683   7.708   0.715  1.2658  1.8084 -0.5423
   10MOL   H424 6922   0.642   7.868   0.769 -0.2631  0.7002 -0.9164
   10MOL   H425 6923   0.566   7.657   0.897  2.0845 -0.2941 -2.1389
   10MOL   H426 6924   0.424   7.656   0.781  0.6321 -1.7917  0.7600
   10MOL   H427 6925   0.508   7.861   0.996 -0.5472  0.7880  0.5852
   10MOL   H428 6926   0.374   7.765   1.005  0.9276 -0.1900  0.4952
   10MOL   H429 6927   0.289   0.095   0.956 -0.5993 -0.6322 -0.2814
   10MOL   H430 6928   0.393   0.093   0.804  2.0882 -0.1088  2.0872
   10MOL   H431 6929   0.201   7.877   0.717 -0.0748  0.8325  0.4378
   10MOL   H432 6930   0.500   7.529   0.057  0.8663  0.0527 -1.6580
   10MOL   H433 6931   0.367   7.559   7.727 -0.7642  0.4426 -0.6522
   10MOL   C434 6932   0.118   7.795   0.883  0.1950  0.6563  0.3379
   10MOL   O435 6933   0.110   7.779   1.004  0.2518  0.5184  0.1977
   10MOL   C436 6934   0.001   7.749   0.799 -0.6423  0.4204 -0.2095
   10MOL   C437 6935   0.007   7.619   0.749  0.4060  0.3995 -0.1343
   10MOL   C438 6936   7.775   7.576   0.679  0.7408  0.2589  0.2303
   10MOL   C439 6937   7.668   7.665   0.652 -0.1877 -0.2497 -0.2196
   10MOL   C440 6938   7.546   7.622   0.576  0.2186  0.1953 -0.0050
   10MOL   O441 6939   7.487   7.698   0.499 -0.6372 -0.3024 -0.1782
   10MOL   N442 6940   7.496   7.499   0.612  0.1951 -0.8230 -0.1500
   10MOL   C443 6941   7.377   7.444   0.542  0.5712 -0.2103  0.9168
   10MOL   C444 6942   7.429   7.344   0.442 -0.2370  0.7674  0.2420
   10MOL   C445 6943   7.452   7.208   0.508  0.0332  0.0918  0.5780
   10MOL   C446 6944   7.518   7.114   0.411  0.0977 -0.2608  0.0884
   10MOL   C447 6945   7.673   7.117   0.416  0.1123 -0.0171  0.4918
   10MOL   C448 6946   7.739   7.034   0.301  0.9255 -0.1296 -0.4570
   10MOL   N449 6947   0.005   7.044   0.319  0.8041 -0.1507  0.2581
   10MOL   C450 6948   7.673   7.798   0.702  0.0987 -0.4501  0.9076
   10MOL   C451 6949   7.784   7.840   0.770 -0.3181  0.4887  0.1417
   10MOL   H452 6950   0.094   7.557   0.761  0.5949  0.3977 -1.4385
   10MOL   H453 6951   7.760   7.473   0.649  0.5805  0.5624 -0.7521
   10MOL   H454 6952   7.544   7.454   0.688  1.4055  2.0297  0.8668
   10MOL   H455 6953   7.311   7.398   0.615 -0.1421 -0.6992 -0.0206
   10MOL   H456 6954   7.309   7.522   0.508 -0.6299 -1.3355  0.6884
   10MOL   H457 6955   7.523   7.386   0.407  0.7747 -0.0082  1.9267
   10MOL   H458 6956   7.357   7.339   0.360  1.5693 -1.0153 -1.2911
   10MOL   H459 6957   7.510   7.214   0.600  1.3497 -0.4684 -0.2020
   10MOL   H460 6958   7.361   7.158   0.543  0.9229  0.7233  3.9497
   10MOL   H461 6959   7.489   7.133   0.308  2.1634 -0.2733 -0.5309
   10MOL   H462 6960   7.484   7.011   0.418  1.1539 -0.6490 -0.3622
   10MOL   H463 6961   7.696   7.083   0.517 -1.5672  1.2108  1.3047
   10MOL   H464 6962   7.715   7.217   0.411  1.5941 -0.6733 -0.6571
   10MOL   H465 6963   7.706   6.931   0.298  1.2272 -0.1856 -2.7433
   10MOL   H466 6964   7.706   7.079   0.207 -0.0434 -0.1803 -0.1438
   10MOL   H467 6965   0.049   7.125   0.361  0.5730 -0.4416  1.0880
   10MOL   H468 6966   7.600   7.876   0.686  1.0368 -0.1845 -2.5363
   10MOL   H469 6967   7.798   0.055   0.805  2.9667  0.1002  0.1225
   10MOL   C470 6968   0.096   6.957   0.271  0.1368 -0.6463 -0.2529
   10MOL   O471 6969   0.060   6.862   0.196  0.0759  0.3017  0.4219
   10MOL   C472 6970   0.237   6.981   0.306 -0.7534  0.6973  0.2237
   10MOL   C473 6971   0.339   6.923   0.226  0.3612 -0.2792  0.7023
   10MOL   C474 6972   0.473   6.946   0.252 -0.1817 -0.7651 -0.1900
   10MOL   C475 6973   0.510   7.019   0.368  0.3822 -0.0786 -0.2592
   10MOL   C476 6974   0.655   7.044   0.404  0.1413 -0.0564 -0.3477
   10MOL   O477 6975   0.684   7.034   0.520  0.8006 -0.4612 -0.1876
   10MOL   N478 6976   0.741   7.065   0.308  0.4878  0.2576 -0.0068
   10MOL   C479 6977   0.881   7.083   0.314 -0.3999 -0.5402  0.2515
   10MOL   C480 6978   0.948   7.157   0.191 -0.1933  0.6401 -0.2110
   10MOL   C481 6979   1.094   7.183   0.223 -0.8587 -0.0668  0.1455
   10MOL   C482 6980   1.163   7.237   0.103 -0.2924 -0.5247 -0.1289
   10MOL   C483 6981   1.316   7.245   0.114  0.6263 -0.4382 -0.2213
   10MOL   C484 6982   1.367   7.362   0.208  0.2320  0.5824 -0.3334
   10MOL   N485 6983   1.351   7.491   0.154 -0.2778 -0.3456 -0.4044
   10MOL   C486 6984   0.410   7.063   0.455  0.0168  0.2898  0.2014
   10MOL   C487 6985   0.275   7.057   0.421 -1.4242  0.4110 -0.4671
   10MOL   H488 6986   0.315   6.888   0.126 -2.4980  0.7644  0.9746
   10MOL   H489 6987   0.547   6.915   0.179 -0.9774 -0.1651 -1.2746
   10MOL   H490 6988   0.701   7.066   0.215  2.0643 -1.2142 -0.7332
   10MOL   H491 6989   0.897   7.147   0.401  1.2507  1.6379 -1.5939
   10MOL   H492 6990   0.924   6.985   0.336 -1.9112 -1.5995 -1.4216
   10MOL   H493 6991   0.894   7.252   0.186 -2.0377 -0.3733 -0.0915
   10MOL   H494 6992   0.942   7.105   0.095  2.1962  1.1503 -0.6644
   10MOL   H495 6993   1.099   7.254   0.306  1.1276 -0.5944  0.5014
   10MOL   H496 6994   1.147   7.091   0.247 -1.0013  0.0771  1.0411
   10MOL   H497 6995   1.133   7.341   0.086  1.2636  0.1320  1.0411
   10MOL   H498 6996   1.137   7.187   0.010 -0.4696  0.6870 -0.7516
   10MOL   H499 6997   1.374   7.259   0.023  0.8259 -1.0261 -0.1910
   10MOL   H500 6998   1.343   7.146   0.151  1.8688 -0.1290 -0.2732
   10MOL   H501 6999   1.320   7.353   0.306  0.1625  0.5510 -0.3695
   10MOL   H502 7000   1.472   7.338   0.224  0.1769 -1.2147 -2.3370
   10MOL   H503 7001   1.291   7.492   0.072 -0.7364  1.5597 -0.0739
   10MOL   H504 7002   0.437   7.101   0.553 -1.2509 -1.5957  1.3317
   10MOL   H505 7003   0.199   7.096   0.488 -0.2223  3.3068 -0.7320
   10MOL   C506 7004   1.396   7.606   0.203  1.0823 -0.2720  0.5511
   10MOL   O507 7005   1.452   7.605   0.312 -0.5855 -0.4528 -0.3677
   10MOL   C508 7006   1.370   7.730   0.124  0.0982  0.5835 -0.5981
   10MOL   C509 7007   1.256   7.724   0.035 -0.1837 -0.4493 -0.5572
   10MOL   C510 7008   1.231   7.825   7.832 -0.4561  0.0007  0.0213
   10MOL   C511 7009   1.312   0.052   7.827  0.8840  0.4046 -0.4925
   10MOL   C512 7010   1.285   0.159   7.732  0.2078 -0.2211  0.9977
   10MOL   O513 7011   1.168   0.164   7.689  0.8725 -0.1904  0.1139
   10MOL   N514 7012   1.387   0.210   7.664 -0.2179  0.3110 -0.2937
   10MOL   C515 7013   1.389   0.296   7.549 -0.1581 -0.3278 -0.0432
   10MOL   C516 7014   1.349   0.441   7.588 -0.6032 -0.0401 -0.5250
   10MOL   C517 7015   1.409   0.501   7.713  0.9212 -0.2756  0.8409
   10MOL   C518 7016   1.561   0.509   7.721 -0.1821  0.2138 -0.6141
   10MOL   C519 7017   1.618   0.460   7.848 -0.4677  0.3993 -0.1959
   10MOL   C520 7018   1.777   0.472   7.852 -0.0925  0.4800 -0.1049
   10MOL   N521 7019   1.816   0.417   0.099  0.1739 -0.0474  0.5812
   10MOL   C522 7020   1.423   0.056   0.027 -0.0326 -1.0063  0.0883
   10MOL   C523 7021   1.454   7.837   0.117  0.5429 -0.6908  0.2097
   10MOL   H524 7022   1.176   7.651   0.036 -1.0562  0.4911  0.9164
   10MOL   H525 7023   1.140   7.815   7.775 -0.5566 -1.2708  0.3789
   10MOL   H526 7024   1.478   0.195   7.706  0.2244  1.3357 -0.8545
   10MOL   H527 7025   1.488   0.294   7.503 -0.2625  0.4349 -0.3042
   10MOL   H528 7026   1.316   0.254   7.480  2.4050 -1.4055 -2.1499
   10MOL   H529 7027   1.240   0.443   7.586 -0.7341 -3.2658  0.4991
   10MOL   H530 7028   1.374   0.504   7.502  0.4952  0.1692 -0.0564
   10MOL   H531 7029   1.365   0.600   7.724 -0.6785 -0.9124  0.3918
   10MOL   H532 7030   1.372   0.443   7.797  1.0829 -2.3717 -0.4859
   10MOL   H533 7031   1.598   0.610   7.701  1.3382 -0.3905 -0.8834
   10MOL   H534 7032   1.600   0.438   7.648 -1.8258 -1.2941 -0.0605
   10MOL   H535 7033   1.597   0.353   7.863  1.4502  0.0054 -0.1727
   10MOL   H536 7034   1.568   0.507   0.047 -0.4934 -0.0734  0.0562
   10MOL   H537 7035   1.832   0.424   7.772 -1.3837 -0.4770 -0.4315
   10MOL   H538 7036   1.816   0.574   7.847  1.2715 -0.0399 -0.1879
   10MOL   H539 7037   1.771   0.332   0.130  0.7174 -0.5600 -0.0326
   10MOL   H540 7038   1.495   0.137   0.026 -2.7324  1.5213  0.6267
   10MOL   H541 7039   1.540   7.824   0.181  1.3987 -2.4429 -1.2513
   10MOL   C542 7040   1.900   0.476   0.189 -0.2240  0.4912  0.3129
   10MOL   O543 7041   1.956   0.581   0.168 -0.4129 -0.3615  0.2096
   10MOL   C544 7042   1.912   0.398   0.315  0.3148 -0.4908 -1.0895
   10MOL   C545 7043   1.861   0.265   0.325  0.2829 -0.4291  0.7027
   10MOL   C546 7044   1.881   0.193   0.442 -0.2673  1.1583 -0.4186
   10MOL   C547 7045   1.948   0.253   0.549  0.6105  0.0260 -0.4756
   10MOL   C548 7046   1.980   0.180   0.675 -0.1490 -0.1298 -0.9915
   10MOL   O549 7047   2.090   0.190   0.736 -0.2939 -0.2460  0.5676
   10MOL   N550 7048   1.881   0.119   0.731 -0.6822  0.0512  1.1495
   10MOL   C551 7049   1.888   0.062   0.866  0.0903  0.2241 -0.1341
   10MOL   C552 7050   1.894   7.796   0.868  1.6590  0.2531 -0.4067
   10MOL   C553 7051   1.877   7.757   1.015  0.2112  0.4675 -0.0039
   10MOL   C554 7052   1.891   7.597   1.020  0.5846  0.7564 -0.3278
   10MOL   C555 7053   1.933   7.559   1.164 -0.2426  0.3177  0.4389
   10MOL   C556 7054   1.930   7.405   1.203  0.2577  0.6005 -0.0374
   10MOL   N557 7055   1.788   7.369   1.201  0.0857 -0.0651  0.2454
   10MOL   C558 7056   1.996   0.386   0.542 -0.5934  0.2109  0.8449
   10MOL   C559 7057   1.985   0.458   0.421  0.0944  0.6895  0.0570
   10MOL   H560 7058   1.803   0.224   0.244  0.8282  1.8146 -0.8533
   10MOL   H561 7059   1.838   0.093   0.441 -0.3700  1.1754  1.1635
   10MOL   H562 7060   1.791   0.118   0.685 -0.5692  1.4506  0.8735
   10MOL   H563 7061   1.977   0.091   0.922  0.6498 -1.5273 -0.0767
   10MOL   H564 7062   1.802   0.103   0.918 -2.0549 -0.1682 -3.1818
   10MOL   H565 7063   1.990   7.758   0.835  1.0083  0.0786 -2.1498
   10MOL   H566 7064   1.817   7.756   0.802  0.2432  2.3950 -0.1174
   10MOL   H567 7065   1.952   7.808   1.075  1.5365 -0.9295 -0.4394
   10MOL   H568 7066   1.779   7.783   1.056  0.4471 -2.0634  2.3604
   10MOL   H569 7067   1.975   7.569   0.957  0.6539  1.1949 -0.4333
   10MOL   H570 7068   1.803   7.544   0.984  1.5408 -0.9927 -0.1740
   10MOL   H571 7069   1.860   7.605   1.231 -0.7365  0.4014 -0.1557
   10MOL   H572 7070   2.022   7.611   1.199  0.8898 -1.4332  0.2006
   10MOL   H573 7071   1.988   7.346   1.133  0.0932 -0.6743  0.8749
   10MOL   H574 7072   1.960   7.385   1.306 -1.9130 -1.8033  0.2034
   10MOL   H575 7073   1.719   7.442   1.198  0.5835  0.3410 -1.9985
   10MOL   H576 7074   2.035   0.439   0.628  2.2353  1.2667 -1.0248
   10MOL   H577 7075   2.038   0.552   0.428 -0.0106  0.6235  1.8054
   10MOL   C578 7076   1.747   7.241   1.190  0.8053  0.5803  0.5346
   10MOL   O579 7077   1.811   7.145   1.224  0.5367 -0.2677  0.1471
   10MOL   C580 7078   1.606   7.230   1.148  1.1496  0.6005  0.1624
   10MOL   C581 7079   1.552   7.322   1.053  0.3488 -0.8676 -0.7731
   10MOL   C582 7080   1.429   7.299   0.994  0.0841  0.0533 -0.0026
   10MOL   C583 7081   1.343   7.199   1.040  0.0948 -0.3970 -0.1964
   10MOL   C584 7082   1.208   7.187   0.975  0.4876  0.1314  0.8017
   10MOL   O585 7083   1.166   7.074   0.947 -0.5026  0.3058  0.0775
   10MOL   N586 7084   1.143   7.302   0.946  0.2698 -0.6823 -0.1915
   10MOL   C587 7085   1.025   7.297   0.870 -0.2755  0.8010  0.2174
   10MOL   C588 7086   1.003   7.434   0.802  0.1346 -0.8390 -0.0502
   10MOL   C589 7087   0.864   7.436   0.731 -0.7893 -0.2666 -0.2982
   10MOL   C590 7088   0.865   7.351   0.601 -0.4154 -0.3695 -0.3006
   10MOL   C591 7089   0.752   7.389   0.504 -0.2602 -0.0633 -0.4639
   10MOL   C592 7090   0.620   7.391   0.590 -0.4990 -0.0747  0.2763
   10MOL   N593 7091   0.507   7.414   0.501 -0.0683 -0.8006 -0.1151
   10MOL   C594 7092   1.392   7.113   1.132 -0.4328 -0.3490 -0.5477
   10MOL   C595 7093   1.521   7.123   1.187  0.0679 -0.0216  0.8639
   10MOL   H596 7094   1.605   7.410   1.021  2.3127 -2.0101 -0.7651
   10MOL   H597 7095   1.389   7.360   0.914 -0.4495 -0.6348 -0.2775
   10MOL   H598 7096   1.179   7.395   0.964 -0.1343 -0.5220 -0.2123
   10MOL   H599 7097   1.030   7.231   0.783  2.5825 -0.4843  1.3172
   10MOL   H600 7098   0.943   7.273   0.938  0.8360  1.7179  1.9125
   10MOL   H601 7099   1.079   7.459   0.728 -0.3481  0.1076 -0.2293
   10MOL   H602 7100   0.996   7.511   0.879 -0.0065  0.9970 -1.8499
   10MOL   H603 7101   0.795   7.399   0.806 -0.1566 -4.6477 -1.7392
   10MOL   H604 7102   0.842   7.538   0.702  2.3796  0.6764  0.3520
   10MOL   H605 7103   0.861   7.245   0.623  1.4989  0.5047  4.8711
   10MOL   H606 7104   0.963   7.350   0.552  0.5174 -0.8880  1.5455
   10MOL   H607 7105   0.749   7.317   0.422  0.9230 -0.4148 -0.2136
   10MOL   H608 7106   0.757   7.486   0.455  0.4734 -0.3372 -0.9542
   10MOL   H609 7107   0.607   7.292   0.633  1.4127 -0.0789  0.8608
   10MOL   H610 7108   0.622   7.467   0.668  1.6973 -0.4117  0.5757
   10MOL   H611 7109   0.531   7.426   0.403  1.8928 -1.3761  0.2691
   10MOL   H612 7110   1.332   7.029   1.165 -2.1047  1.4333  1.1590
   10MOL   H613 7111   1.566   7.043   1.244 -0.6293 -1.1930 -0.2143
   10MOL   C614 7112   0.377   7.397   0.531 -0.1277 -0.0871  0.0445
   10MOL   O615 7113   0.342   7.401   0.648 -0.4531  0.3304 -0.1435
   10MOL   C616 7114   0.284   7.389   0.415 -0.1827 -0.2318  0.3702
   10MOL   C617 7115   0.147   7.415   0.442 -0.4834  0.0377 -0.0319
   10MOL   C618 7116   0.049   7.390   0.341  0.0913  0.0454  0.1112
   10MOL   C619 7117   0.100   7.355   0.213  0.0730  0.5063  0.4377
   10MOL   C620 7118   0.008   7.322   0.097 -0.7730  0.7437 -0.4727
   10MOL   O621 7119   7.777   7.295   0.122 -0.4300 -0.6813  0.0565
   10MOL   N622 7120   0.056   7.314   7.864  0.6121  0.3769 -0.1315
   10MOL   C623 7121   7.870   7.275   7.746  0.0679  0.4023  0.2093
   10MOL   C624 7122   7.835   7.399   7.666  0.1234  0.3938 -0.1136
   10MOL   C625 7123   7.697   7.458   7.695 -0.1472 -0.1068  0.4582
   10MOL   C626 7124   7.685   7.601   7.646 -0.7595 -0.3392 -0.1821
   10MOL   C627 7125   7.753   7.697   7.742 -0.1265  0.0864  0.0475
   10MOL   C628 7126   7.742   7.843   7.704 -0.2293  0.0355 -1.2828
   10MOL   N629 7127   7.607   0.005   7.677  0.1316  0.2976 -0.3457
   10MOL   C630 7128   0.233   7.337   0.188 -0.2485 -0.3985 -0.0117
   10MOL   C631 7129   0.328   7.353   0.284 -0.3117 -0.6360 -0.3917
   10MOL   H632 7130   0.114   7.441   0.542  0.8307 -0.3950  0.5244
   10MOL   H633 7131   7.830   7.406   0.361  0.5022  1.8440  0.9930
   10MOL   H634 7132   0.156   7.318   7.849  0.3540 -1.1236 -2.5836
   10MOL   H635 7133   0.041   7.209   7.680 -2.3941 -1.0426 -0.5486
   10MOL   H636 7134   7.774   7.230   7.772 -0.3389  2.2314  2.0181
   10MOL   H637 7135   7.831   7.372   7.560  0.7576 -1.1772  0.2467
   10MOL   H638 7136   0.030   7.471   7.674 -0.6648  0.9759  3.1500
   10MOL   H639 7137   7.618   7.404   7.643 -0.1643 -1.5614  1.9471
   10MOL   H640 7138   7.675   7.444   7.801  2.3228  3.7801  1.5600
   10MOL   H641 7139   7.579   7.624   7.645 -0.3173  2.0196  1.6736
   10MOL   H642 7140   7.711   7.616   7.541 -2.1821 -0.2575 -0.5274
   10MOL   H643 7141   7.858   7.679   7.766  0.0828 -2.0715 -2.2919
   10MOL   H644 7142   7.694   7.696   7.833 -2.7980 -0.3817 -1.6495
   10MOL   H645 7143   7.790   0.017   7.781  0.9056  2.1190 -3.5529
   10MOL   H646 7144   7.802   7.847   7.613 -2.2325  0.9717 -2.5941
   10MOL   H647 7145   7.549   7.881   7.759 -0.5094  0.9686 -0.7066
   10MOL   H648 7146   0.274   7.318   0.090 -0.8517  0.2827 -0.3998
   10MOL   H649 7147   0.429   7.322   0.265 -0.1194 -1.2030  1.4006
   10MOL   C650 7148   7.572   0.085   7.573 -0.1747 -0.3066  0.5787
   10MOL   O651 7149   7.653   0.101   7.479  0.5832  0.4351  0.1048
   10MOL   C652 7150   7.434   0.143   7.578 -0.1089  0.6105  0.2416
   10MOL   C653 7151   7.362   0.177   7.693 -0.4561  0.6799 -0.3152
   10MOL   C654 7152   7.238   0.240   7.686  0.0697 -0.2487  0.1406
   10MOL   C655 7153   7.178   0.266   7.559 -0.4972  0.0349 -0.4431
   10MOL   C656 7154   7.044   0.331   7.549  0.3820  0.2855 -0.3987
   10MOL   O657 7155   7.021   0.434   7.485 -0.0482  0.3026  0.6176
   10MOL   N658 7156   6.939   0.268   7.607 -0.2205 -0.8769 -0.3559
   10MOL   C659 7157   6.803   0.308   7.612 -0.3792 -0.2569 -0.0758
   10MOL   C660 7158   6.775   0.376   7.745 -0.5262  0.4130  0.4633
   10MOL   C661 7159   6.626   0.424   7.748 -0.3315  0.5238 -0.4507
   10MOL   C662 7160   6.583   0.493   7.880 -0.7572  0.8826 -0.3922
   10MOL   C663 7161   6.435   0.526   0.002 -0.0210  0.1154  0.3047
   10MOL   C664 7162   6.390   0.589   0.137 -0.1628 -0.1152  0.1625
   10MOL   N665 7163   6.246   0.616   0.134 -0.2908 -0.3053 -0.1353
   10MOL   C666 7164   7.251   0.224   7.441  0.0289 -0.2355  0.5619
   10MOL   C667 7165   7.381   0.168   7.449 -0.3455  0.1666  0.2616
   10MOL   H668 7166   7.402   0.164   7.793 -1.7104 -2.4382 -0.1570
   10MOL   H669 7167   7.195   0.275   7.779  2.1249 -0.3803  1.1813
   10MOL   H670 7168   6.958   0.192   7.670  0.5127  0.9798  1.7277
   10MOL   H671 7169   6.789   0.400   7.554 -1.0737  1.4690  2.7463
   10MOL   H672 7170   6.750   0.218   7.583  2.9123 -2.8101  1.5424
   10MOL   H673 7171   6.844   0.459   7.759  0.1679 -0.2907  1.2399
   10MOL   H674 7172   6.794   0.309   7.828 -2.2923  0.3983  0.8780
   10MOL   H675 7173   6.609   0.487   7.661 -0.0205  0.7253 -0.3648
   10MOL   H676 7174   6.575   0.327   7.750  2.6591 -1.1244  0.1469
   10MOL   H677 7175   6.641   0.581   0.021 -0.9044  0.3502  1.7123
   10MOL   H678 7176   6.593   0.421   0.075 -2.7553  1.3785  0.3345
   10MOL   H679 7177   6.384   0.430   7.876 -0.1821 -0.0125  1.9469
   10MOL   H680 7178   6.411   0.593   7.805  0.7974 -0.2835 -0.2641
   10MOL   H681 7179   6.412   0.517   0.216  2.7934 -0.4361 -0.8724
   10MOL   H682 7180   6.425   0.688   0.167 -0.0123 -0.6022  1.6205
   10MOL   H683 7181   6.236   0.711   0.102  1.8188 -0.5803 -1.7259
   10MOL   H684 7182   7.205   0.241   7.344  0.7045 -0.0749  0.2708
   10MOL   H685 7183   7.429   0.146   7.355  0.5368  0.9782  0.5199
   10MOL   C686 7184   6.147   0.526   0.135  0.1051 -0.4593 -0.1378
   10MOL   O687 7185   6.177   0.407   0.135  0.0721  0.1671  0.3380
   10MOL   C688 7186   6.011   0.586   0.123  0.1076  0.0910  0.6476
   10MOL   C689 7187   5.902   0.508   0.083 -0.4230  0.6923  0.0122
   10MOL   C690 7188   5.772   0.569   0.068 -0.6094 -0.8000  0.8394
   10MOL   C691 7189   5.754   0.704   0.099  0.3452  0.0444 -0.3307
   10MOL   C692 7190   5.619   0.762   0.098 -0.0351  0.4732  0.3747
   10MOL   O693 7191   5.580   0.828   0.189  0.2310  0.3017 -0.1629
   10MOL   N694 7192   5.544   0.747   7.869 -1.1123  0.3981  0.1788
   10MOL   C695 7193   5.411   0.799   7.857  0.4183 -0.3379  0.2503
   10MOL   C696 7194   5.355   0.817   7.716 -0.3159 -0.7416 -0.0979
   10MOL   C697 7195   5.455   0.895   7.628  0.4242  0.1512  0.7802
   10MOL   C698 7196   5.442   1.045   7.643  0.6550  0.2057  0.1390
   10MOL   C699 7197   5.554   1.142   7.592  0.2492  0.3010  0.4054
   10MOL   C700 7198   5.562   1.282   7.651  0.0545 -0.1313 -0.0616
   10MOL   N701 7199   5.454   1.359   7.598  0.5915  0.2074  0.6855
   10MOL   C702 7200   5.866   0.782   0.146 -0.5473 -0.2013 -0.3964
   10MOL   C703 7201   5.992   0.721   0.153  0.0866 -0.2062  0.3674
   10MOL   H704 7202   5.914   0.402   0.063  0.1532  0.9707 -1.1873
   10MOL   H705 7203   5.685   0.515   0.035  0.4023 -0.5500 -2.4876
   10MOL   H706 7204   5.590   0.699   7.794 -2.1519 -1.0612  0.4620
   10MOL   H707 7205   5.343   0.724   0.011  0.5395 -0.1808  0.7560
   10MOL   H708 7206   5.395   0.883   0.038 -0.5564  0.0870 -0.5105
   10MOL   H709 7207   5.255   0.860   7.718  0.1023  0.2097  1.0638
   10MOL   H710 7208   5.338   0.715   7.680  0.7857 -0.7631 -0.6137
   10MOL   H711 7209   5.557   0.865   7.652 -0.3841 -0.9086  3.0080
   10MOL   H712 7210   5.428   0.873   7.524  1.2551 -0.9072  0.7794
   10MOL   H713 7211   5.425   1.057   7.750  0.6642 -3.0573  0.5706
   10MOL   H714 7212   5.347   1.070   7.597  0.9265  1.8614  0.4346
   10MOL   H715 7213   5.561   1.151   7.484  0.9049  0.2218  0.4396
   10MOL   H716 7214   5.650   1.104   7.626  1.2101  2.7221  0.5006
   10MOL   H717 7215   5.550   1.280   7.759  0.4042 -2.6847 -0.0211
   10MOL   H718 7216   5.661   1.322   7.629  0.4107  0.3109  2.2359
   10MOL   H719 7217   5.447   1.332   7.501  3.4000 -0.2571  0.5738
   10MOL   H720 7218   5.857   0.887   0.170 -0.2581  0.4960 -3.2268
   10MOL   H721 7219   6.077   0.777   0.191  1.1235 -0.9228 -0.8623
   10MOL   H722 7220   5.369   1.324   7.640 -0.4669  0.0650 -1.5485
   11MOL     C1 7221   6.205   7.132   2.933 -0.2637 -0.3170  0.7546
   11MOL     O2 7222   6.108   7.156   2.860 -0.0574 -0.5411 -0.3439
   11MOL     C3 7223   6.255   6.995   2.967 -0.7738  0.2129  0.2188
   11MOL     C4 7224   6.164   6.885   2.965  0.4782 -0.0364 -0.3745
   11MOL     C5 7225   6.222   6.754   2.998 -0.3154  0.2909  0.9998
   11MOL     C6 7226   6.355   6.732   3.026  0.8121 -0.4398 -0.3935
   11MOL     C7 7227   6.392   6.589   3.061 -0.5390 -0.0877  0.0941
   11MOL     O8 7228   6.337   6.523   3.141 -0.3915  0.2921 -0.9198
   11MOL     N9 7229   6.493   6.545   2.987  0.0322 -0.4693 -0.8355
   11MOL    C10 7230   6.569   6.416   2.999  0.3423 -0.9479 -0.0417
   11MOL    C11 7231   6.549   6.326   2.880 -0.1392  0.0355 -0.1853
   11MOL    C12 7232   6.655   6.206   2.889 -0.2693 -0.2001 -0.6544
   11MOL    C13 7233   6.607   6.085   2.801  0.3933 -0.6032  0.4772
   11MOL    C14 7234   6.718   5.990   2.758  0.1047 -0.4691  0.8281
   11MOL    C15 7235   6.668   5.874   2.677 -0.5816 -0.7574 -0.7764
   11MOL    N16 7236   6.766   5.780   2.641  0.0668  0.2136  0.3659
   11MOL    C17 7237   6.434   6.845   3.042 -0.0901  0.0091  0.1558
   11MOL    C18 7238   6.389   6.979   3.013 -0.5754  0.3706  0.2315
   11MOL    H19 7239   6.062   6.896   2.932  0.3852  2.7126  0.7725
   11MOL    H20 7240   6.160   6.666   2.994  0.0685 -0.0146  1.7580
   11MOL    H21 7241   6.515   6.586   2.897 -2.0408  0.3589 -0.9984
   11MOL    H22 7242   6.672   6.448   3.010  0.5055 -2.0426  1.7922
   11MOL    H23 7243   6.551   6.364   3.093  2.6029 -0.0837  0.9076
   11MOL    H24 7244   6.561   6.373   2.782 -2.4255 -0.2244 -0.6210
   11MOL    H25 7245   6.448   6.286   2.882  0.3084 -1.0479  2.7216
   11MOL    H26 7246   6.750   6.235   2.845  0.2791 -1.3339 -0.2164
   11MOL    H27 7247   6.681   6.180   2.991 -1.4695  0.6910 -0.1037
   11MOL    H28 7248   6.560   6.122   2.710  1.5818 -1.0646 -0.3295
   11MOL    H29 7249   6.538   6.025   2.861 -0.2613  0.6518  1.0090
   11MOL    H30 7250   6.765   5.953   2.849  1.2536 -2.2983 -0.4573
   11MOL    H31 7251   6.782   6.047   2.691 -0.1094 -1.6911 -0.4545
   11MOL    H32 7252   6.598   5.814   2.735 -0.0565  0.2035  0.8742
   11MOL    H33 7253   6.604   5.912   2.597 -0.5182 -0.9189 -0.9018
   11MOL    H34 7254   6.764   5.695   2.697 -3.7665 -2.4318 -3.4988
   11MOL    H35 7255   6.541   6.838   3.058 -0.0833 -0.3709 -0.0747
   11MOL    H36 7256   6.450   7.068   3.018 -1.9139  1.3966 -1.0354
   11MOL    H37 7257   6.265   7.212   2.978 -0.9877  0.6739 -0.0112
   11MOL    C38 7258   6.845   5.798   2.534  0.0708  0.5174  0.5803
   11MOL    O39 7259   6.841   5.894   2.452  0.8152 -0.2244 -0.0320
   11MOL    C40 7260   6.929   5.675   2.509  0.5582 -0.2510  0.4136
   11MOL    C41 7261   6.946   5.627   2.376 -0.2155 -0.4571 -0.3011
   11MOL    C42 7262   7.009   5.501   2.360 -0.5361  0.2513  0.5727
   11MOL    C43 7263   7.085   5.440   2.464 -0.0152 -0.3629  0.2365
   11MOL    C44 7264   7.162   5.314   2.443 -0.3083  0.7051  0.3580
   11MOL    O45 7265   7.107   5.219   2.381  0.1259 -0.6892 -0.1393
   11MOL    N46 7266   7.279   5.308   2.496 -0.5799 -0.7009 -0.2921
   11MOL    C47 7267   7.365   5.185   2.488  0.0212  0.1206  0.1789
   11MOL    C48 7268   7.502   5.230   2.530 -0.3079 -0.1389 -0.0705
   11MOL    C49 7269   7.597   5.109   2.532 -0.4120 -0.6228 -0.5768
   11MOL    C50 7270   7.745   5.124   2.564  0.5134  0.1303  0.3000
   11MOL    C51 7271   7.827   5.185   2.453 -0.4736  0.2110 -0.1593
   11MOL    C52 7272   0.096   5.162   2.471 -0.2389 -1.1126 -0.1748
   11MOL    N53 7273   0.182   5.228   2.362 -0.0331  0.3223  0.0573
   11MOL    C54 7274   7.072   5.492   2.595  0.6837 -0.0544  0.0017
   11MOL    C55 7275   6.991   5.604   2.612 -0.1706  0.0985 -0.0991
   11MOL    H56 7276   6.895   5.670   2.291 -0.6570 -0.8341 -0.2281
   11MOL    H57 7277   7.025   5.461   2.261  0.8441 -0.8795  1.2302
   11MOL    H58 7278   7.319   5.390   2.539 -1.0651 -0.7707  0.2807
   11MOL    H59 7279   7.312   5.122   2.559 -0.9896  2.3406  1.4571
   11MOL    H60 7280   7.358   5.144   2.388 -0.0932  2.5344 -0.8499
   11MOL    H61 7281   7.496   5.281   2.626  0.3174 -0.9236  0.4003
   11MOL    H62 7282   7.547   5.300   2.460 -2.3586  0.4624 -0.8146
   11MOL    H63 7283   7.561   5.034   2.603  2.2644 -0.3349  1.1390
   11MOL    H64 7284   7.586   5.059   2.436  1.2267 -0.2444 -0.9782
   11MOL    H65 7285   7.785   5.025   2.585 -0.5701 -0.1554  1.0485
   11MOL    H66 7286   7.762   5.180   2.656  0.3097  0.5314  0.0948
   11MOL    H67 7287   7.810   5.292   2.448  1.0613  0.5970  2.0669
   11MOL    H68 7288   7.809   5.145   2.354 -0.6604 -2.7986  1.0216
   11MOL    H69 7289   0.126   5.198   2.569 -0.4590 -0.5889 -0.2989
   11MOL    H70 7290   0.107   5.054   2.469  1.2178 -0.9950  1.0053
   11MOL    H71 7291   0.145   5.298   2.300  1.2956  0.1526 -0.9419
   11MOL    H72 7292   7.114   5.456   2.688 -0.6970 -1.2610  0.1690
   11MOL    H73 7293   6.984   5.649   2.710  0.6812  0.0303 -0.0018
   11MOL    C74 7294   0.299   5.173   2.331 -0.2286  0.2481 -0.3390
   11MOL    O75 7295   0.353   5.081   2.401 -0.0470 -0.3741 -0.5332
   11MOL    C76 7296   0.376   5.221   2.209  0.1559  0.5558  0.2852
   11MOL    C77 7297   0.309   5.293   2.115 -0.0547 -0.4868  0.2333
   11MOL    C78 7298   0.380   5.348   2.004  0.1183 -0.2394 -0.2070
   11MOL    C79 7299   0.516   5.317   1.979  0.5236 -0.1329  0.7977
   11MOL    C80 7300   0.586   5.384   1.862  0.3582  0.3751  0.5002
   11MOL    O81 7301   0.708   5.409   1.867  0.2124  0.1937 -0.0148
   11MOL    N82 7302   0.514   5.408   1.752 -0.2593  0.8995  0.2774
   11MOL    C83 7303   0.564   5.490   1.642  0.2668  0.2644 -0.6718
   11MOL    C84 7304   0.470   5.498   1.524 -0.0881 -0.2553  0.3982
   11MOL    C85 7305   0.521   5.597   1.405  0.1618 -0.5999  0.5340
   11MOL    C86 7306   0.649   5.548   1.338  0.7497 -0.3813 -0.2118
   11MOL    C87 7307   0.704   5.634   1.227 -0.2310 -0.1514  0.6512
   11MOL    C88 7308   0.832   5.584   1.154  0.2822 -0.7171 -0.1918
   11MOL    N89 7309   0.902   5.486   1.233  0.0842  0.1471 -0.3025
   11MOL    C90 7310   0.588   5.243   2.075  0.9705  0.6249 -0.5075
   11MOL    C91 7311   0.518   5.189   2.190 -1.2529  0.4753  0.4162
   11MOL    H92 7312   0.201   5.298   2.117 -0.0225  0.1848  0.5842
   11MOL    H93 7313   0.330   5.402   1.924  2.5728 -0.1488 -1.7365
   11MOL    H94 7314   0.421   5.368   1.745 -0.0128  0.3454  0.1880
   11MOL    H95 7315   0.580   5.594   1.671  1.4706  0.7438 -2.8790
   11MOL    H96 7316   0.667   5.463   1.617  0.4459  0.4459 -0.1414
   11MOL    H97 7317   0.368   5.530   1.546  0.1571  1.1643 -0.4848
   11MOL    H98 7318   0.455   5.407   1.466 -1.2250  0.0821  0.1524
   11MOL    H99 7319   0.442   5.617   1.333 -0.6034 -0.3551  1.4177
   11MOL   H100 7320   0.536   5.693   1.455  1.6736 -1.9359  2.7650
   11MOL   H101 7321   0.618   5.452   1.297 -1.0514 -0.7496  1.9354
   11MOL   H102 7322   0.726   5.545   1.415 -1.1685  1.1482  1.8379
   11MOL   H103 7323   0.738   5.727   1.272  1.6047 -0.7098  0.4266
   11MOL   H104 7324   0.636   5.642   1.142  0.7687 -2.5531 -0.4189
   11MOL   H105 7325   0.812   5.540   1.056 -0.6839  0.5973 -0.6008
   11MOL   H106 7326   0.878   5.675   1.116 -0.8239 -0.3019 -0.5704
   11MOL   H107 7327   0.856   5.470   1.322 -0.8339 -1.1158 -0.9801
   11MOL   H108 7328   0.696   5.234   2.071  0.9245 -0.9133  1.2134
   11MOL   H109 7329   0.561   5.133   2.271  0.0377  0.4075 -0.2958
   11MOL   C110 7330   1.008   5.419   1.197 -0.3726  0.6047  0.5600
   11MOL   O111 7331   1.078   5.447   1.099 -0.1816  0.2650  0.2313
   11MOL   C112 7332   1.040   5.291   1.276 -0.5717 -0.6790  0.1296
   11MOL   C113 7333   1.163   5.225   1.259 -0.2756 -0.4302 -0.4310
   11MOL   C114 7334   1.195   5.106   1.327  0.4228  0.6270 -0.5381
   11MOL   C115 7335   1.106   5.045   1.417 -0.2311 -0.7464  0.4636
   11MOL   C116 7336   1.149   4.927   1.499  0.5907 -0.0950  0.4168
   11MOL   O117 7337   1.259   4.874   1.487 -0.3400  0.4890  0.3035
   11MOL   N118 7338   1.051   4.881   1.576 -0.0519 -0.6994  0.5356
   11MOL   C119 7339   1.056   4.755   1.649  0.0494 -0.5067  0.6584
   11MOL   C120 7340   0.973   4.764   1.781 -0.4340 -0.1824  0.2927
   11MOL   C121 7341   1.038   4.850   1.896 -0.0591 -0.2897 -0.5933
   11MOL   C122 7342   0.952   4.956   1.970  0.2705  0.0706  0.3927
   11MOL   C123 7343   0.917   5.091   1.891  0.4730 -0.0555  0.2598
   11MOL   C124 7344   1.047   5.164   1.865 -0.0738 -0.0294  0.1377
   11MOL   N125 7345   1.017   5.286   1.796 -0.1217 -0.0534  0.5889
   11MOL   C126 7346   0.975   5.113   1.424  0.1302  0.3683 -0.2877
   11MOL   C127 7347   0.947   5.236   1.363 -0.6517  0.2359  0.0111
   11MOL   H128 7348   1.244   5.261   1.197 -1.6272  2.3743 -0.6032
   11MOL   H129 7349   1.277   5.040   1.301 -0.9794 -1.0578 -0.8094
   11MOL   H130 7350   0.962   4.918   1.547  0.1040 -1.8334 -1.4907
   11MOL   H131 7351   1.021   4.676   1.582 -0.2696  2.2362 -2.5147
   11MOL   H132 7352   1.157   4.719   1.669  1.5751  2.2261 -1.7574
   11MOL   H133 7353   0.973   4.663   1.821  1.5762  0.6134  2.4256
   11MOL   H134 7354   0.873   4.802   1.761  0.4695  0.7298 -2.7845
   11MOL   H135 7355   1.058   4.782   1.979 -0.6929  0.3186  0.0593
   11MOL   H136 7356   1.135   4.894   1.872 -0.6327  0.1607 -2.1011
   11MOL   H137 7357   1.014   4.988   2.053  0.4402  0.4200  0.1332
   11MOL   H138 7358   0.863   4.916   2.019  0.0112 -1.3174 -1.1521
   11MOL   H139 7359   0.863   5.150   1.966  2.5519  0.5977  1.2559
   11MOL   H140 7360   0.854   5.081   1.802  0.4479 -3.6898  0.6114
   11MOL   H141 7361   1.092   5.194   1.959 -1.5995  0.2516  0.7906
   11MOL   H142 7362   1.119   5.102   1.810  1.5205  1.4557  0.5228
   11MOL   H143 7363   0.930   5.333   1.814 -0.2766 -0.2547  0.3737
   11MOL   H144 7364   0.898   5.078   1.491  0.1643 -1.5862 -1.2055
   11MOL   H145 7365   0.850   5.283   1.369 -0.2904  1.2847 -1.9373
   11MOL   C146 7366   1.100   5.341   1.703 -0.7836  0.1602  0.2182
   11MOL   O147 7367   1.203   5.286   1.669 -0.7402  0.0216  0.0356
   11MOL   C148 7368   1.052   5.470   1.641  0.7140  0.8373 -0.6821
   11MOL   C149 7369   1.126   5.523   1.532 -0.4911 -1.0373  1.1801
   11MOL   C150 7370   1.090   5.643   1.480 -0.4744 -0.5469 -0.7728
   11MOL   C151 7371   0.984   5.722   1.539 -0.3562  0.6025  0.5954
   11MOL   C152 7372   0.959   5.861   1.484 -0.3672  0.9649  0.1545
   11MOL   O153 7373   1.029   5.893   1.385 -0.2570  0.0738 -0.2504
   11MOL   N154 7374   0.875   5.941   1.548  0.1395 -0.4275  0.2166
   11MOL   C155 7375   0.848   6.083   1.509 -0.0812  0.3083 -0.3311
   11MOL   C156 7376   0.778   6.085   1.371  0.5550  0.4912  0.0546
   11MOL   C157 7377   0.646   6.001   1.367  0.0748  0.1453 -0.5992
   11MOL   C158 7378   0.596   5.990   1.225 -0.1518  0.3462 -0.1512
   11MOL   C159 7379   0.456   5.948   1.212 -0.1855  0.0437  0.6393
   11MOL   C160 7380   0.421   5.917   1.066  0.2067  0.1159 -0.3597
   11MOL   N161 7381   0.288   5.957   1.019  0.6105  0.3093 -0.4348
   11MOL   C162 7382   0.920   5.673   1.651 -0.1282  0.2873 -0.3208
   11MOL   C163 7383   0.945   5.536   1.694 -0.2541 -0.1381  0.1443
   11MOL   H164 7384   1.202   5.467   1.480  0.4963 -1.6663  3.2245
   11MOL   H165 7385   1.141   5.675   1.390  0.6114  0.2645  0.1160
   11MOL   H166 7386   0.839   5.903   1.635 -1.4170 -0.2322 -0.3378
   11MOL   H167 7387   0.786   6.123   1.589  2.3177  2.0390  0.7241
   11MOL   H168 7388   0.948   6.127   1.510  1.2109 -2.5253  0.5077
   11MOL   H169 7389   0.844   6.044   1.293 -1.0128 -1.3205 -0.3497
   11MOL   H170 7390   0.770   6.189   1.340  3.2474  0.2376 -1.7155
   11MOL   H171 7391   0.661   5.904   1.416 -0.2284 -0.2738 -1.3272
   11MOL   H172 7392   0.576   6.054   1.431 -0.9762 -2.1189  0.1957
   11MOL   H173 7393   0.660   5.920   1.173 -2.5145 -0.9126 -1.4783
   11MOL   H174 7394   0.612   6.084   1.171 -0.3225  0.2340 -0.3964
   11MOL   H175 7395   0.383   6.022   1.245 -0.3100 -0.3553  1.2604
   11MOL   H176 7396   0.442   5.859   1.273  0.0270  0.1410  0.8294
   11MOL   H177 7397   0.491   5.975   1.006 -0.1751 -0.5635 -1.4811
   11MOL   H178 7398   0.429   5.811   1.041  1.8143  0.5012 -1.5424
   11MOL   H179 7399   0.258   6.054   1.016 -0.5009 -0.0569 -2.9525
   11MOL   H180 7400   0.847   5.730   1.707 -0.6900 -0.7430 -0.0063
   11MOL   H181 7401   0.902   5.497   1.784 -0.1967 -1.1715 -0.2711
   11MOL   C182 7402   0.187   5.878   0.976 -0.5748 -0.9969  0.1725
   11MOL   O183 7403   0.210   5.764   0.924  0.1535 -0.0780 -0.0321
   11MOL   C184 7404   0.048   5.946   0.988 -0.2330  0.3205 -0.6441
   11MOL   C185 7405   7.832   5.895   0.912 -0.7237 -0.0671 -0.4704
   11MOL   C186 7406   7.702   5.944   0.933 -0.3706 -0.3338  0.6352
   11MOL   C187 7407   7.679   6.060   1.012  0.2129 -0.8265 -0.0473
   11MOL   C188 7408   7.542   6.125   1.025  0.4226 -0.1758 -0.8709
   11MOL   O189 7409   7.522   6.220   1.105  0.2261  0.3532  0.1278
   11MOL   N190 7410   7.447   6.094   0.935 -0.4208  0.3339  0.1894
   11MOL   C191 7411   7.303   6.115   0.936  0.4183 -1.2825  0.0702
   11MOL   C192 7412   7.265   6.229   0.839  0.3945 -0.0184  0.0147
   11MOL   C193 7413   7.119   6.280   0.852 -0.4250 -0.3102 -0.3981
   11MOL   C194 7414   7.010   6.163   0.840 -0.9523  0.1552  0.3230
   11MOL   C195 7415   6.861   6.202   0.823 -0.7549 -0.3779 -0.0559
   11MOL   C196 7416   6.757   6.089   0.827  0.0298 -0.1217 -0.1716
   11MOL   N197 7417   6.624   6.132   0.807 -0.2857 -0.3308 -0.1095
   11MOL   C198 7418   7.789   6.111   1.090  0.5240 -0.4159 -0.5905
   11MOL   C199 7419   0.029   6.052   1.076  0.2014 -0.2979 -0.4709
   11MOL   H200 7420   7.851   5.821   0.836 -0.7955  0.3989 -0.9456
   11MOL   H201 7421   7.627   5.907   0.865  0.9127  1.7562 -2.0411
   11MOL   H202 7422   7.475   6.023   0.869  0.1331  0.4061  0.3392
   11MOL   H203 7423   7.258   6.018   0.919  1.3678 -1.5362 -1.0452
   11MOL   H204 7424   7.272   6.153   1.033 -1.3322 -1.4696 -0.4006
   11MOL   H205 7425   7.274   6.200   0.734  1.5195 -1.2416  0.4414
   11MOL   H206 7426   7.321   6.322   0.847 -0.7313  0.5455  1.4198
   11MOL   H207 7427   7.102   6.336   0.944  3.1729  0.8470 -0.3318
   11MOL   H208 7428   7.100   6.355   0.775 -0.9319  0.4810  0.4963
   11MOL   H209 7429   7.016   6.105   0.933 -0.7593 -0.4635 -0.0748
   11MOL   H210 7430   7.045   6.088   0.768  0.9253  0.5087  0.8226
   11MOL   H211 7431   6.843   6.257   0.731  0.4701 -2.7509 -1.7478
   11MOL   H212 7432   6.849   6.270   0.908 -2.9172 -0.7999  0.0311
   11MOL   H213 7433   6.778   6.013   0.752 -1.1572 -0.7020  0.0793
   11MOL   H214 7434   6.763   6.043   0.926  1.1120 -0.1241 -0.2319
   11MOL   H215 7435   6.608   6.196   0.731 -0.6980  1.3118  1.3123
   11MOL   H216 7436   7.772   6.198   1.152  2.9483  0.9727 -1.8051
   11MOL   H217 7437   0.110   6.094   1.133 -0.6260 -0.5994  0.9560
   11MOL   C218 7438   6.517   6.072   0.858 -0.0695  0.7602  0.9022
   11MOL   O219 7439   6.527   5.976   0.929  0.3496 -0.5661  0.5381
   11MOL   C220 7440   6.380   6.105   0.810 -0.4762 -0.4255  0.8664
   11MOL   C221 7441   6.357   6.236   0.752  0.0564 -0.1208  0.4696
   11MOL   C222 7442   6.233   6.259   0.682  0.2354  0.3162  0.6134
   11MOL   C223 7443   6.122   6.172   0.700 -0.6118  0.1794  0.2359
   11MOL   C224 7444   5.993   6.188   0.621 -0.2201  0.1761 -0.0794
   11MOL   O225 7445   5.910   6.100   0.631 -0.0831 -0.3572 -0.0253
   11MOL   N226 7446   5.978   6.304   0.555  0.0990  0.2620 -0.5732
   11MOL   C227 7447   5.877   6.338   0.462  0.2271  0.5452  0.1894
   11MOL   C228 7448   5.819   6.475   0.489  0.2890  0.0977 -0.3359
   11MOL   C229 7449   5.723   6.514   0.371  0.7775 -0.8101 -0.1474
   11MOL   C230 7450   5.708   6.668   0.378 -0.0089  0.3720 -1.3000
   11MOL   C231 7451   5.634   6.724   0.258 -0.6769  0.2905 -1.1742
   11MOL   C232 7452   5.709   6.725   0.125  0.0456  0.3913  0.3670
   11MOL   N233 7453   5.853   6.731   0.134 -0.5327  0.2765  0.6632
   11MOL   C234 7454   6.141   6.055   0.786  0.0722 -0.6133 -0.7595
   11MOL   C235 7455   6.270   6.020   0.833  0.0954 -0.4618 -0.4833
   11MOL   H236 7456   6.439   6.306   0.754  0.7809 -0.9756  1.6107
   11MOL   H237 7457   6.218   6.349   0.624 -0.6152  0.2988  0.7915
   11MOL   H238 7458   6.040   6.382   0.574 -0.7081  0.3356  2.0091
   11MOL   H239 7459   5.932   6.348   0.368  4.0772  1.3485  2.3847
   11MOL   H240 7460   5.800   6.263   0.445  1.1116  0.0925 -2.1495
   11MOL   H241 7461   5.898   6.551   0.490  2.1917 -1.8269 -0.9808
   11MOL   H242 7462   5.762   6.474   0.582  1.0621  1.3344  0.1600
   11MOL   H243 7463   5.761   6.473   0.278 -2.3790  0.9602 -2.3000
   11MOL   H244 7464   5.623   6.476   0.392  0.2698  0.9992  0.8643
   11MOL   H245 7465   5.806   6.717   0.380  0.3226 -0.3002  1.4045
   11MOL   H246 7466   5.660   6.690   0.474  1.4721  0.7368 -0.6233
   11MOL   H247 7467   5.619   6.830   0.278 -0.4531 -0.2257  1.9803
   11MOL   H248 7468   5.535   6.679   0.249 -1.4909  1.2861  2.1834
   11MOL   H249 7469   5.676   6.642   0.062  0.7764  0.5998 -0.2904
   11MOL   H250 7470   5.678   6.813   0.067  3.5383  0.9588 -0.7625
   11MOL   H251 7471   5.892   6.817   0.170 -1.6025  1.0238  0.0816
   11MOL   H252 7472   6.057   5.992   0.809 -0.7531  0.1741 -1.5806
   11MOL   H253 7473   6.287   5.922   0.875 -0.6519  0.1936  1.3829
   11MOL   C254 7474   5.944   6.643   0.093 -0.4256  0.9490  0.1425
   11MOL   O255 7475   5.911   6.537   0.050 -0.0020  0.7449  0.1054
   11MOL   C256 7476   6.088   6.679   0.116 -0.1243  0.6565 -0.3897
   11MOL   C257 7477   6.123   6.755   0.230  0.7387  0.0279  0.5166
   11MOL   C258 7478   6.250   6.816   0.238 -0.1633  0.8273  0.0508
   11MOL   C259 7479   6.348   6.791   0.138 -0.4372 -0.0144 -0.2385
   11MOL   C260 7480   6.488   6.841   0.162 -0.0971 -0.1277 -0.4724
   11MOL   O261 7481   6.568   6.852   0.074 -0.5587  0.6702 -0.0483
   11MOL   N262 7482   6.524   6.866   0.292  0.2753 -0.0260  0.0422
   11MOL   C263 7483   6.665   6.887   0.330  0.1850  0.1964  0.3754
   11MOL   C264 7484   6.746   6.755   0.348  0.0693  0.3371 -0.1826
   11MOL   C265 7485   6.898   6.765   0.352 -0.5359  0.1789  0.3022
   11MOL   C266 7486   6.952   6.812   0.216 -0.5457 -0.3321 -0.4199
   11MOL   C267 7487   7.104   6.803   0.201  0.4660  0.7351  0.4530
   11MOL   C268 7488   7.177   6.899   0.298 -0.5826 -0.0246  0.7190
   11MOL   N269 7489   7.140   7.038   0.279 -1.2754  0.0379 -0.2053
   11MOL   C270 7490   6.312   6.716   0.023 -1.0123  0.3650 -0.5868
   11MOL   C271 7491   6.184   6.659   0.013 -0.3360  0.0826  1.2809
   11MOL   H272 7492   6.059   6.758   0.317  0.7030 -2.3396  0.5963
   11MOL   H273 7493   6.279   6.872   0.325 -3.8705  1.1921  1.1141
   11MOL   H274 7494   6.460   6.850   0.369  0.1624 -1.8589 -0.4098
   11MOL   H275 7495   6.717   6.950   0.259  1.0168  1.5693  2.1617
   11MOL   H276 7496   6.654   6.946   0.421  3.0804  1.1587  0.1402
   11MOL   H277 7497   6.717   6.690   0.265 -2.3043 -1.4603  1.9679
   11MOL   H278 7498   6.713   6.710   0.442  2.4049 -3.5604 -1.0780
   11MOL   H279 7499   6.921   6.825   0.440  1.0427 -0.2878  0.2127
   11MOL   H280 7500   6.935   6.667   0.380 -2.2115 -0.2400  1.1366
   11MOL   H281 7501   6.917   6.912   0.187  2.0952  0.5830 -0.5814
   11MOL   H282 7502   6.911   6.749   0.137  1.1394 -2.1619  0.1454
   11MOL   H283 7503   7.129   6.832   0.099 -1.1762 -0.8269 -0.4155
   11MOL   H284 7504   7.149   6.706   0.226 -0.4587  0.1587 -0.1013
   11MOL   H285 7505   7.151   6.870   0.400  0.4164 -1.1168  0.6737
   11MOL   H286 7506   7.283   6.875   0.292 -0.6521 -0.4634  1.1129
   11MOL   H287 7507   7.154   7.066   0.183 -0.5242 -0.9295 -0.3850
   11MOL   H288 7508   6.389   6.720   7.833 -0.8496  0.6492 -0.4097
   11MOL   H289 7509   6.159   6.605   7.809  0.9279  0.5554  0.6389
   11MOL   C290 7510   7.113   7.123   0.377  0.4228  0.2651 -0.2009
   11MOL   O291 7511   7.111   7.086   0.496 -0.4724 -0.3962  0.1045
   11MOL   C292 7512   7.083   7.270   0.339 -0.1712 -0.3209  0.1670
   11MOL   C293 7513   7.064   7.375   0.438 -0.4960  0.1687 -0.9183
   11MOL   C294 7514   7.046   7.510   0.405  0.2791  0.2892  0.0642
   11MOL   C295 7515   7.045   7.545   0.267 -0.2403 -0.2100 -0.7013
   11MOL   C296 7516   7.038   7.684   0.228  0.2332 -0.0691 -0.6159
   11MOL   O297 7517   6.995   7.766   0.307  0.5841  0.6147  0.1557
   11MOL   N298 7518   7.091   7.721   0.110  0.1595  0.4276 -0.1210
   11MOL   C299 7519   7.090   7.863   0.052  0.2092 -0.0352  1.2325
   11MOL   C300 7520   6.968   7.885   7.856  0.0690  0.4442 -0.5586
   11MOL   C301 7521   6.978   7.806   7.719 -0.0120  0.2638 -0.1510
   11MOL   C302 7522   6.940   7.658   7.728  0.3555 -0.4823 -1.1578
   11MOL   C303 7523   6.882   7.620   7.594  0.7239  0.7264 -0.4375
   11MOL   C304 7524   6.838   7.475   7.594  0.1112 -0.2435 -0.0032
   11MOL   N305 7525   6.806   7.420   7.466  0.0277  0.3271  0.5007
   11MOL   C306 7526   7.054   7.446   0.165 -0.5755  0.0780  0.1124
   11MOL   C307 7527   7.081   7.311   0.205  0.0740 -0.4242 -0.4313
   11MOL   H308 7528   7.081   7.364   0.544 -0.7486 -1.0985 -0.9931
   11MOL   H309 7529   7.042   7.591   0.477  0.7366 -0.6979  1.2296
   11MOL   H310 7530   7.136   7.650   0.054  0.3416  0.2190  0.2954
   11MOL   H311 7531   7.094   0.052   0.131 -1.2212 -0.6524  1.9115
   11MOL   H312 7532   7.183   7.871   7.882 -0.6065 -0.9543 -0.3089
   11MOL   H313 7533   6.954   0.106   7.842 -0.8603  0.2617 -1.0726
   11MOL   H314 7534   6.891   7.842   0.034 -2.2505  3.4375 -1.2638
   11MOL   H315 7535   6.911   7.857   7.650 -0.2281 -0.4631 -0.4858
   11MOL   H316 7536   7.078   7.804   7.677  0.4787  0.2417  1.0070
   11MOL   H317 7537   6.859   7.632   7.797  0.3874  0.2762 -0.8296
   11MOL   H318 7538   7.028   7.597   7.748 -0.4831 -1.4793 -0.4362
   11MOL   H319 7539   6.952   7.634   7.512 -0.2282 -1.4634 -1.6644
   11MOL   H320 7540   6.794   7.681   7.574  0.8263  0.6447 -1.1419
   11MOL   H321 7541   6.926   7.413   7.611  0.0584  0.1783  1.9316
   11MOL   H322 7542   6.757   7.463   7.666 -1.2666  1.7041 -1.1812
   11MOL   H323 7543   6.879   7.370   7.417 -2.6339 -2.3380 -0.9643
   11MOL   H324 7544   7.044   7.469   0.060  2.6363 -0.0964 -0.2734
   11MOL   H325 7545   7.085   7.240   0.124 -2.1564  1.4509 -2.2871
   11MOL   C326 7546   6.695   7.442   7.395  0.4771  0.6826 -0.6592
   11MOL   O327 7547   6.604   7.500   7.444 -0.8874 -0.1125 -0.3485
   11MOL   C328 7548   6.693   7.398   7.250  0.7486  0.6228 -0.4080
   11MOL   C329 7549   6.811   7.385   7.175  0.2160  0.2346  0.5847
   11MOL   C330 7550   6.811   7.342   7.040 -0.5545  0.1253  0.2616
   11MOL   C331 7551   6.688   7.319   6.975 -0.3240  0.4577  0.3684
   11MOL   C332 7552   6.680   7.292   6.828  0.2134 -0.1037 -1.0047
   11MOL   O333 7553   6.588   7.327   6.757 -0.4640 -0.4730  0.0199
   11MOL   N334 7554   6.777   7.215   6.776  0.1393 -0.1863 -0.7225
   11MOL   C335 7555   6.778   7.169   6.635  0.0745  0.0842  0.2170
   11MOL   C336 7556   6.850   7.274   6.548  0.3902  0.2532 -0.2908
   11MOL   C337 7557   6.783   7.266   6.410 -0.5661 -0.3145 -0.9943
   11MOL   C338 7558   6.644   7.315   6.396  0.3852  0.4840 -0.0577
   11MOL   C339 7559   6.637   7.466   6.424  0.1957 -0.7842  0.3218
   11MOL   C340 7560   6.491   7.512   6.418 -0.1977  0.4286 -0.2940
   11MOL   N341 7561   6.417   7.453   6.530 -0.1286 -0.1390  0.3325
   11MOL   C342 7562   6.565   7.341   7.045 -0.7890 -0.0156 -0.2993
   11MOL   C343 7563   6.568   7.381   7.182  0.1829  0.0026 -0.0798
   11MOL   H344 7564   6.907   7.407   7.220 -0.3403 -0.0706  1.9262
   11MOL   H345 7565   6.901   7.318   6.987  0.2625  1.1451  1.1669
   11MOL   H346 7566   6.855   7.189   6.835  1.7252  1.6156 -1.9652
   11MOL   H347 7567   6.825   7.070   6.630 -0.5645 -0.2421  0.5662
   11MOL   H348 7568   6.673   7.150   6.610 -0.2671  0.4925  1.3022
   11MOL   H349 7569   6.954   7.246   6.530 -0.0160 -0.6262 -1.3227
   11MOL   H350 7570   6.838   7.375   6.587  1.0759  0.7970 -1.4567
   11MOL   H351 7571   6.839   7.336   6.349  0.0718 -0.2970 -0.3914
   11MOL   H352 7572   6.788   7.167   6.364 -0.3749 -2.3500  3.1672
   11MOL   H353 7573   6.570   7.257   6.450  0.4849 -0.7061 -1.1691
   11MOL   H354 7574   6.614   7.299   6.292 -1.6086  1.6696  0.3072
   11MOL   H355 7575   6.694   7.514   6.344 -1.1074  1.1314  0.5061
   11MOL   H356 7576   6.681   7.486   6.522  1.7784  2.1869 -0.9215
   11MOL   H357 7577   6.495   7.621   6.410  0.5969  0.4555  0.4420
   11MOL   H358 7578   6.439   7.482   6.327  0.7881  0.3915 -0.8559
   11MOL   H359 7579   6.455   7.466   6.623  0.4698  1.5941 -0.1502
   11MOL   H360 7580   6.471   7.335   6.993 -0.4854 -0.3502 -0.8174
   11MOL   H361 7581   6.472   7.399   7.229  0.9437 -1.4748  2.1051
   11MOL   C362 7582   6.288   7.406   6.518  0.5733 -0.1083 -0.4675
   11MOL   O363 7583   6.244   7.373   6.410 -0.0854 -0.4888 -0.4601
   11MOL   C364 7584   6.202   7.415   6.640  0.0945  0.4151  0.5495
   11MOL   C365 7585   6.105   7.319   6.675  1.0683  0.0828  0.1320
   11MOL   C366 7586   6.023   7.326   6.795 -0.4800  0.7341  0.2170
   11MOL   C367 7587   6.033   7.443   6.874  0.0269 -0.2561  0.0689
   11MOL   C368 7588   5.937   7.460   6.993  0.0402 -0.3204  1.0876
   11MOL   O369 7589   5.960   7.543   7.082 -0.2997 -0.2519 -0.1403
   11MOL   N370 7590   5.820   7.392   6.985 -0.1447  0.0401  0.1298
   11MOL   C371 7591   5.704   7.408   7.076  0.6980  0.3370 -0.4903
   11MOL   C372 7592   5.671   7.274   7.151 -1.3050 -0.0673 -0.0189
   11MOL   C373 7593   5.558   7.294   7.258  0.0556 -0.2464  0.3877
   11MOL   C374 7594   5.514   7.166   7.345  0.2308 -0.6919 -0.2412
   11MOL   C375 7595   5.393   7.195   7.430  0.0189 -0.4611 -0.7222
   11MOL   C376 7596   5.321   7.079   7.500  0.0497  0.1993  0.5693
   11MOL   N377 7597   5.226   7.131   7.598  0.0053 -0.2061 -0.9271
   11MOL   C378 7598   6.126   7.540   6.836  0.2610 -0.0797  0.1711
   11MOL   C379 7599   6.205   7.529   6.718 -0.2146 -0.4926  0.4070
   11MOL   H380 7600   6.089   7.234   6.610  1.8497  0.6162 -0.7866
   11MOL   H381 7601   5.947   7.253   6.815 -2.0763  1.9653 -1.1569
   11MOL   H382 7602   5.807   7.357   6.891 -1.1950  2.0983 -0.5225
   11MOL   H383 7603   5.725   7.478   7.156  2.7407 -0.6570 -0.1293
   11MOL   H384 7604   5.639   7.448   6.999  0.7233  1.0235 -0.1548
   11MOL   H385 7605   5.757   7.239   7.208  0.8149  1.5819 -2.1032
   11MOL   H386 7606   5.648   7.199   7.075 -0.8915  0.6916 -0.8955
   11MOL   H387 7607   5.590   7.372   7.327 -1.7858 -0.0010  1.0048
   11MOL   H388 7608   5.466   7.329   7.211  1.2637  1.1601 -0.9833
   11MOL   H389 7609   5.594   7.138   7.414 -0.7861  1.0623  1.7281
   11MOL   H390 7610   5.513   7.083   7.275  2.7072 -1.2789  0.3801
   11MOL   H391 7611   5.322   7.265   7.386  1.3718  0.3063 -1.7224
   11MOL   H392 7612   5.432   7.265   7.505  0.6995 -2.5400  0.9020
   11MOL   H393 7613   5.259   7.019   7.433 -2.0512  1.2219  1.5561
   11MOL   H394 7614   5.395   7.014   7.546  0.0332  0.7797  1.4342
   11MOL   H395 7615   5.265   7.160   7.686  0.5611  0.1537 -1.2865
   11MOL   H396 7616   6.140   7.627   6.899  1.7030 -0.4438  0.3884
   11MOL   H397 7617   6.260   7.617   6.689  1.1534 -0.9051  1.6778
   11MOL   C398 7618   5.095   7.160   7.576 -0.4903 -0.2076 -0.2007
   11MOL   O399 7619   5.045   7.142   7.466 -0.4409 -0.0551  0.6394
   11MOL   C400 7620   5.018   7.194   7.698  0.3267  0.0177 -0.3947
   11MOL   C401 7621   4.906   7.113   7.729 -0.4334  0.1709  0.1010
   11MOL   C402 7622   4.820   7.142   7.838  0.1296  0.2134  0.4263
   11MOL   C403 7623   4.860   7.245   0.041  0.3856 -0.0424  0.7346
   11MOL   C404 7624   4.786   7.265   0.164  0.7912 -0.2757  0.7660
   11MOL   O405 7625   4.692   7.197   0.194 -0.2281  0.1680  0.1745
   11MOL   N406 7626   4.822   7.371   0.243 -0.4137 -0.0934  0.4872
   11MOL   C407 7627   4.747   7.419   0.365 -0.2499 -0.8355 -1.0537
   11MOL   C408 7628   4.803   7.560   0.413  0.0847 -0.3618 -0.0132
   11MOL   C409 7629   4.867   7.645   0.297 -0.0849  0.1424  0.0869
   11MOL   C410 7630   5.018   7.625   0.285 -0.2983 -0.1957 -0.0555
   11MOL   C411 7631   5.072   7.678   0.147 -0.8889 -0.0066  0.6151
   11MOL   C412 7632   5.217   7.629   0.124 -0.0718 -0.1098 -0.4053
   11MOL   N413 7633   5.258   7.661   7.874  0.2349 -0.0137 -0.2478
   11MOL   C414 7634   4.971   7.331   0.012  1.4644  0.4889  0.5203
   11MOL   C415 7635   5.043   7.301   7.783  0.3571 -0.5859  0.2608
   11MOL   H416 7636   4.889   7.027   7.666 -0.5742  1.2101 -1.3149
   11MOL   H417 7637   4.731   7.083   7.854  1.0094 -0.7910  1.6410
   11MOL   H418 7638   4.908   7.417   0.218 -1.0835  1.4171  0.9340
   11MOL   H419 7639   4.639   7.419   0.354 -0.1690  0.4838 -1.9213
   11MOL   H420 7640   4.765   7.342   0.440  1.2349  0.2986 -0.2194
   11MOL   H421 7641   4.862   7.540   0.503  0.2207 -0.2219 -0.0722
   11MOL   H422 7642   4.724   7.613   0.465  0.8217  1.3543 -0.6197
   11MOL   H423 7643   4.821   7.629   0.199  0.2138  1.0841 -0.2141
   11MOL   H424 7644   4.866   7.752   0.318 -0.2312  0.0362  0.6213
   11MOL   H425 7645   5.049   7.521   0.282 -1.6950 -0.6487  0.6618
   11MOL   H426 7646   5.077   7.660   0.371 -2.3223 -0.6818  1.5641
   11MOL   H427 7647   5.052   7.784   0.129 -0.0605  0.0008 -0.2895
   11MOL   H428 7648   5.013   7.626   0.071 -1.3461  1.7872 -0.2757
   11MOL   H429 7649   5.286   7.681   0.190  0.3536  0.3341 -1.2002
   11MOL   H430 7650   5.228   7.524   0.153  0.8220  0.3649  1.0836
   11MOL   H431 7651   5.207   7.631   7.793  1.9455 -0.1664 -1.2925
   11MOL   H432 7652   4.988   7.419   0.072  1.0364  1.0631 -0.2078
   11MOL   H433 7653   5.123   7.370   7.758 -0.4201  0.2007 -0.1071
   11MOL   C434 7654   5.371   7.731   7.845 -0.0399 -0.6685  0.3216
   11MOL   O435 7655   5.460   7.761   0.037  0.0685 -0.7256 -0.0417
   11MOL   C436 7656   5.386   7.778   7.707 -0.3294 -0.0814 -0.3675
   11MOL   C437 7657   5.493   7.738   7.626  0.1562 -0.3494  0.1270
   11MOL   C438 7658   5.507   7.772   7.491  0.1984  0.1487 -0.4895
   11MOL   C439 7659   5.408   7.852   7.432  0.4231  0.0824  0.4654
   11MOL   C440 7660   5.413   7.885   7.281  0.4091 -0.6177  0.3162
   11MOL   O441 7661   5.519   0.019   7.221 -0.2634 -0.8374  0.2141
   11MOL   N442 7662   5.297   7.884   7.217 -0.0350  0.4129 -0.4896
   11MOL   C443 7663   5.269   0.038   7.084 -0.4757 -0.9139  0.1436
   11MOL   C444 7664   5.116   0.026   7.051 -0.6643  0.5508 -0.8182
   11MOL   C445 7665   5.065   0.087   6.919 -0.3004 -0.4268 -0.5268
   11MOL   C446 7666   4.916   0.058   6.892  1.0440 -0.4501  0.5912
   11MOL   C447 7667   4.830   0.174   6.837 -0.4725  0.2008  0.3130
   11MOL   C448 7668   4.687   0.134   6.836  1.3317 -0.1874  0.1138
   11MOL   N449 7669   4.604   0.252   6.800  0.1798  0.1898 -0.1527
   11MOL   C450 7670   5.298   0.008   7.512 -0.5494 -0.1683  0.2864
   11MOL   C451 7671   5.290   7.865   7.655 -0.2829  0.2474 -0.0375
   11MOL   H452 7672   5.564   7.666   7.663 -1.2386 -1.4482  0.7413
   11MOL   H453 7673   5.575   7.716   7.429 -0.8550 -2.0684  0.3071
   11MOL   H454 7674   5.216   7.860   7.273  1.4956 -1.1938  1.1072
   11MOL   H455 7675   5.290   0.145   7.085 -2.6545 -0.4476  2.6646
   11MOL   H456 7676   5.339   7.877   7.015  2.5514 -0.2732  2.6500
   11MOL   H457 7677   5.051   0.056   7.134  0.1531  2.3233 -0.7845
   11MOL   H458 7678   5.091   7.809   7.030  3.5259 -0.8845  0.7295
   11MOL   H459 7679   5.088   0.193   6.925  3.3380 -1.1409 -0.5595
   11MOL   H460 7680   5.125   0.047   6.837 -0.7018 -0.3783 -0.8387
   11MOL   H461 7681   4.874   0.026   6.987  3.3122 -0.5063  1.6041
   11MOL   H462 7682   4.922   7.856   6.827  1.5136  0.2260 -0.2955
   11MOL   H463 7683   4.859   0.198   6.735 -0.4171  0.2623  0.3428
   11MOL   H464 7684   4.848   0.256   6.907  1.4372 -1.2096  1.5485
   11MOL   H465 7685   4.673   0.045   6.775  0.2351  0.6463 -0.8893
   11MOL   H466 7686   4.651   0.103   6.934 -0.4201 -3.8680 -1.5854
   11MOL   H467 7687   4.610   0.339   6.850 -0.7616  0.9773 -1.3933
   11MOL   H468 7688   5.223   0.065   7.459 -0.5611 -0.1512  0.3218
   11MOL   H469 7689   5.202   0.005   7.713 -0.7346 -0.4698 -0.4029
   11MOL   C470 7690   4.518   0.245   6.703  0.2254 -0.1573 -0.2778
   11MOL   O471 7691   4.504   0.144   6.632  0.5183 -0.2071 -0.5783
   11MOL   C472 7692   4.428   0.356   6.682  0.4324 -0.2614  0.8426
   11MOL   C473 7693   4.384   0.396   6.552 -0.1484  0.0393 -0.3907
   11MOL   C474 7694   4.271   0.483   6.533 -0.5543  0.0147  0.1468
   11MOL   C475 7695   4.220   0.540   6.650  0.2551 -0.2963 -0.5693
   11MOL   C476 7696   4.098   0.634   6.635  0.0796  0.2389  0.6981
   11MOL   O477 7697   4.013   0.644   6.723  0.6260 -0.3768 -0.0512
   11MOL   N478 7698   4.108   0.715   6.529  0.3996  0.1324 -0.3590
   11MOL   C479 7699   4.033   0.842   6.511  0.5541  0.7708 -1.1385
   11MOL   C480 7700   4.089   0.934   6.410 -0.4998 -0.8409 -1.1141
   11MOL   C481 7701   4.227   0.986   6.448 -0.2417  0.3498  0.1003
   11MOL   C482 7702   4.305   1.075   6.346  0.5940  0.0323  0.1829
   11MOL   C483 7703   4.415   1.003   6.266 -0.0009  0.8517 -0.4941
   11MOL   C484 7704   4.404   0.863   6.210 -0.1330  0.1065 -0.9263
   11MOL   N485 7705   4.287   0.837   6.124 -0.7857  0.4594 -0.2872
   11MOL   C486 7706   4.264   0.509   6.777 -0.2377  0.3159  0.7340
   11MOL   C487 7707   4.366   0.413   6.792  0.2261  0.3734 -0.9437
   11MOL   H488 7708   4.422   0.346   6.464  2.0392  0.6348  0.1864
   11MOL   H489 7709   4.224   0.501   6.437  0.3328  0.4496 -0.2173
   11MOL   H490 7710   4.188   0.716   6.467  0.2673  2.0316 -0.5165
   11MOL   H491 7711   3.935   0.806   6.481  0.7160  1.3747 -2.4278
   11MOL   H492 7712   4.017   0.893   6.606 -0.2807 -0.1872 -0.7567
   11MOL   H493 7713   4.019   1.017   6.401 -1.5247 -1.2309  2.5090
   11MOL   H494 7714   4.073   0.877   6.318 -0.6648 -2.2943 -0.2012
   11MOL   H495 7715   4.200   1.046   6.535 -1.0297  0.5906 -0.3032
   11MOL   H496 7716   4.291   0.904   6.481  0.4828  1.0438  0.4388
   11MOL   H497 7717   4.348   1.160   6.399  0.1204  0.9694 -0.9290
   11MOL   H498 7718   4.233   1.128   6.285  0.3199  0.3999  0.8145
   11MOL   H499 7719   4.503   1.008   6.331  0.3760 -2.9919 -0.6056
   11MOL   H500 7720   4.443   1.058   6.176 -3.1964  1.4083 -1.1988
   11MOL   H501 7721   4.496   0.832   6.160  1.0961 -1.2741  2.0549
   11MOL   H502 7722   4.402   0.794   6.294  1.3289  0.8805 -0.2236
   11MOL   H503 7723   4.271   0.907   6.054  1.6922  3.1312  1.6905
   11MOL   H504 7724   4.208   0.536   6.865  1.4190  0.3709  1.7998
   11MOL   H505 7725   4.392   0.370   6.887  1.5566  1.7595 -0.6411
   11MOL   C506 7726   4.214   0.722   6.122  0.1591 -0.5711 -0.2094
   11MOL   O507 7727   4.215   0.635   6.210  0.5508 -0.6600 -0.8341
   11MOL   C508 7728   4.122   0.706   6.002  0.2913 -0.8188  0.1165
   11MOL   C509 7729   4.047   0.812   5.946  0.5416  0.1602 -1.2128
   11MOL   C510 7730   3.972   0.793   5.826 -0.3979 -0.1910  0.1273
   11MOL   C511 7731   3.970   0.675   5.762 -0.2599 -0.0216  0.3580
   11MOL   C512 7732   3.892   0.664   5.630 -0.1230  0.4036  0.3065
   11MOL   O513 7733   3.876   0.555   5.583 -0.0581 -0.4963  0.3958
   11MOL   N514 7734   3.845   0.770   5.575 -0.1626 -0.1284  0.6368
   11MOL   C515 7735   3.750   0.779   5.470 -0.4125  0.7403  0.3180
   11MOL   C516 7736   3.692   0.919   5.465 -0.2760  0.0489 -0.2648
   11MOL   C517 7737   3.568   0.916   5.369  0.1669 -0.0765  0.1879
   11MOL   C518 7738   3.514   1.052   5.346  0.3430  0.7410 -0.3959
   11MOL   C519 7739   3.398   1.051   5.238 -0.2312 -0.2067  0.0785
   11MOL   C520 7740   3.347   1.191   5.217  0.0450  0.5552 -0.1038
   11MOL   N521 7741   3.240   1.206   5.108  0.1925  0.7725 -0.3704
   11MOL   C522 7742   4.035   0.564   5.822  0.2181 -0.0066 -1.0783
   11MOL   C523 7743   4.106   0.577   5.946  0.0182  0.4871  0.1948
   11MOL   H524 7744   4.041   0.910   5.990 -0.7172 -0.1649 -0.6319
   11MOL   H525 7745   3.937   0.884   5.779  0.3559 -0.5487 -1.1503
   11MOL   H526 7746   3.867   0.858   5.620  4.3642 -0.1924 -1.2428
   11MOL   H527 7747   3.818   0.764   5.386 -0.2344  0.7675  0.4587
   11MOL   H528 7748   3.674   0.705   5.495  0.5124 -0.1400  0.5741
   11MOL   H529 7749   3.768   0.983   5.419 -0.5963 -0.2815 -1.2755
   11MOL   H530 7750   3.662   0.953   5.564 -0.0460  0.6949 -0.4115
   11MOL   H531 7751   3.597   0.871   5.273  0.8191 -1.0489  0.8295
   11MOL   H532 7752   3.499   0.841   5.409 -0.2692 -1.1920 -2.5128
   11MOL   H533 7753   3.587   1.131   5.326 -0.4419  1.6286  0.1894
   11MOL   H534 7754   3.476   1.102   5.435 -0.8607 -0.7255 -0.0800
   11MOL   H535 7755   3.324   0.986   5.283 -0.5563  0.9580  1.2308
   11MOL   H536 7756   3.425   1.011   5.140 -0.9985  1.8349 -0.9929
   11MOL   H537 7757   3.294   1.221   5.307 -1.3857 -0.0331 -0.7384
   11MOL   H538 7758   3.427   1.261   5.194  1.2502 -0.9176 -0.4776
   11MOL   H539 7759   3.272   1.214   5.013  0.4500 -0.3120 -0.3777
   11MOL   H540 7760   4.034   0.463   5.784  0.0113 -0.5686  0.4044
   11MOL   H541 7761   4.157   0.491   5.986  0.1449  0.7409  0.5784
   11MOL   C542 7762   3.115   1.170   5.128  0.4150  0.1460 -0.0564
   11MOL   O543 7763   3.075   1.129   5.235  0.0986 -0.0965 -0.0050
   11MOL   C544 7764   3.014   1.219   5.028 -0.3591 -0.1164 -0.9722
   11MOL   C545 7765   3.048   1.288   4.911  0.6617 -0.5318  0.4545
   11MOL   C546 7766   2.951   1.336   4.826 -0.2072 -0.0535  0.2299
   11MOL   C547 7767   2.815   1.314   4.854  1.0551 -0.4638  0.7105
   11MOL   C548 7768   2.705   1.387   4.774  0.5120  1.1734 -0.3459
   11MOL   O549 7769   2.582   1.353   4.788  0.7284  0.2360  0.9396
   11MOL   N550 7770   2.740   1.485   4.689  0.0253  0.8995  0.9378
   11MOL   C551 7771   2.643   1.569   4.622  1.2308  0.1678  0.0443
   11MOL   C552 7772   2.706   1.677   4.539  0.3837 -0.2371 -0.2300
   11MOL   C553 7773   2.627   1.780   4.460 -0.0954 -0.2957 -0.1194
   11MOL   C554 7774   2.716   1.894   4.399  0.1269  0.1885  0.0502
   11MOL   C555 7775   2.638   1.990   4.321  0.1203 -0.0084 -0.2163
   11MOL   C556 7776   2.729   2.099   4.264 -0.4311 -0.3777 -0.4109
   11MOL   N557 7777   2.656   2.177   4.164  0.3001  0.3489  0.3525
   11MOL   C558 7778   2.778   1.239   4.966  0.1925 -0.8497  0.2754
   11MOL   C559 7779   2.877   1.199   5.054 -0.0417  0.2572 -0.6189
   11MOL   H560 7780   3.149   1.303   4.875  0.1150 -1.7820 -1.7375
   11MOL   H561 7781   2.978   1.389   4.736 -1.3059  2.2456  1.2280
   11MOL   H562 7782   2.830   1.484   4.642  0.8662 -2.6351  2.3885
   11MOL   H563 7783   2.588   1.508   4.549  0.2290 -2.1295  2.6073
   11MOL   H564 7784   2.575   1.608   4.698  1.1079  1.3362 -0.6619
   11MOL   H565 7785   2.779   1.633   4.472 -0.3989  1.3757 -2.1829
   11MOL   H566 7786   2.780   1.731   4.598  0.1863 -0.5289  0.2911
   11MOL   H567 7787   2.574   1.742   4.372 -0.4275  0.9583 -0.4754
   11MOL   H568 7788   2.548   1.825   4.520  1.2273  1.2177  0.5209
   11MOL   H569 7789   2.787   1.849   4.329 -1.9831 -0.8693 -1.4817
   11MOL   H570 7790   2.773   1.952   4.471  0.1882 -1.0153  0.9900
   11MOL   H571 7791   2.550   2.031   4.371  1.2417  2.4569 -0.1773
   11MOL   H572 7792   2.593   1.940   4.235 -0.1539  1.6129 -1.0459
   11MOL   H573 7793   2.763   2.169   4.340 -2.7209 -2.0736  2.2809
   11MOL   H574 7794   2.819   2.058   4.218  0.9161  1.6439  0.3601
   11MOL   H575 7795   2.567   2.218   4.191  0.1169  0.5720 -0.5926
   11MOL   H576 7796   2.672   1.221   4.976 -0.2926  2.0787  0.6876
   11MOL   H577 7797   2.843   1.156   5.147 -0.6965  0.4665 -0.7589
   11MOL   C578 7798   2.705   2.240   4.058  0.1568  0.5641  0.3546
   11MOL   O579 7799   2.803   2.188   4.006 -0.4034  0.2943  0.0895
   11MOL   C580 7800   2.620   2.339   3.987 -0.9147  0.1457 -0.5534
   11MOL   C581 7801   2.649   2.377   3.852 -0.5025  0.4630  0.2408
   11MOL   C582 7802   2.559   2.466   3.794  1.2206 -0.2879  0.7437
   11MOL   C583 7803   2.463   2.538   3.863 -0.0663 -0.4253  0.3433
   11MOL   C584 7804   2.367   2.632   3.801  0.7496 -0.0424 -0.5142
   11MOL   O585 7805   2.299   2.611   3.704  0.3967 -0.0010  1.0711
   11MOL   N586 7806   2.354   2.747   3.876  0.8313 -0.1401 -0.0060
   11MOL   C587 7807   2.261   2.855   3.837 -0.0614 -0.0342  0.1171
   11MOL   C588 7808   2.341   2.958   3.757  0.1118  0.1866 -0.0144
   11MOL   C589 7809   2.264   3.081   3.706  0.4119  0.3186  0.4316
   11MOL   C590 7810   2.186   3.072   3.573 -1.1096 -1.0274 -0.7304
   11MOL   C591 7811   2.140   3.204   3.507  0.1286 -0.5526 -0.4247
   11MOL   C592 7812   2.067   3.167   3.377  0.5566 -0.2825  0.1458
   11MOL   N593 7813   2.151   3.097   3.282  0.2829  0.6530 -1.1219
   11MOL   C594 7814   2.448   2.509   3.998 -0.0439 -0.5246  0.4360
   11MOL   C595 7815   2.526   2.412   4.060 -0.3079 -0.2142 -0.0856
   11MOL   H596 7816   2.720   2.316   3.797 -1.6974 -0.6883 -0.0632
   11MOL   H597 7817   2.547   2.471   3.686  1.1729 -2.1364  0.6567
   11MOL   H598 7818   2.402   2.754   3.964  1.7798 -0.4592 -0.4911
   11MOL   H599 7819   2.171   2.812   3.795  1.2475 -1.0670 -1.6610
   11MOL   H600 7820   2.232   2.913   3.925 -2.7641 -0.3389 -0.5271
   11MOL   H601 7821   2.393   2.909   3.675 -0.8713  0.4170 -0.7819
   11MOL   H602 7822   2.421   2.990   3.824 -1.4082  0.9755  1.4687
   11MOL   H603 7823   2.177   3.103   3.768 -1.0664  0.2905 -1.5750
   11MOL   H604 7824   2.322   3.171   3.688 -0.8899  1.1413  0.2902
   11MOL   H605 7825   2.091   3.023   3.592 -2.4511  1.3011 -1.3196
   11MOL   H606 7826   2.252   3.021   3.503  0.0133  1.1053 -1.2621
   11MOL   H607 7827   2.222   3.274   3.492 -2.0480  1.9406 -1.2464
   11MOL   H608 7828   2.072   3.251   3.579  1.1237  0.1157  0.0884
   11MOL   H609 7829   1.971   3.119   3.396  0.7434 -0.7879 -0.1695
   11MOL   H610 7830   2.045   3.266   3.336 -0.8727  0.2328  2.1127
   11MOL   H611 7831   2.248   3.122   3.272  0.7741 -0.6113  0.3947
   11MOL   H612 7832   2.381   2.564   4.062  0.8595 -0.5135  1.3896
   11MOL   H613 7833   2.502   2.392   4.163 -0.5041  0.5767  0.0250
   11MOL   C614 7834   2.113   2.979   3.229 -0.5008  0.6968 -0.6157
   11MOL   O615 7835   1.994   2.936   3.246 -0.1761 -0.3424  0.0518
   11MOL   C616 7836   2.210   2.913   3.135 -1.2482 -0.5920 -0.7475
   11MOL   C617 7837   2.164   2.813   3.052  0.0407  0.5323 -0.2156
   11MOL   C618 7838   2.250   2.740   2.962  0.3579  0.1975 -0.6287
   11MOL   C619 7839   2.390   2.765   2.969 -0.0071  0.3428  1.0083
   11MOL   C620 7840   2.482   2.703   2.878  0.0598 -0.2058 -0.7240
   11MOL   O621 7841   2.596   2.737   2.867 -0.3139 -0.0830 -0.1931
   11MOL   N622 7842   2.431   2.590   2.819  0.5585 -0.5086 -0.1513
   11MOL   C623 7843   2.510   2.490   2.744  0.0797  0.1016  0.1771
   11MOL   C624 7844   2.496   2.519   2.591 -0.6954 -0.1199  0.3847
   11MOL   C625 7845   2.352   2.530   2.532 -0.5614 -0.5073  0.3150
   11MOL   C626 7846   2.346   2.518   2.378 -0.3662  0.0144  0.3014
   11MOL   C627 7847   2.203   2.525   2.322 -0.1730  0.1829 -0.5082
   11MOL   C628 7848   2.188   2.536   2.171 -0.9261  0.4810  0.5996
   11MOL   N629 7849   2.219   2.412   2.106  0.1921 -0.0665 -0.4056
   11MOL   C630 7850   2.438   2.866   3.056  0.3290  0.6940  0.3854
   11MOL   C631 7851   2.350   2.945   3.139  0.5422  0.3265  0.3927
   11MOL   H632 7852   2.059   2.787   3.044  0.7286 -1.8953 -2.2188
   11MOL   H633 7853   2.196   2.666   2.905 -2.4028  0.9036  0.9508
   11MOL   H634 7854   2.332   2.579   2.839  0.5782  1.0182  0.8703
   11MOL   H635 7855   2.616   2.490   2.770 -0.7809 -1.2764  4.0651
   11MOL   H636 7856   2.475   2.390   2.769  1.8770 -0.2635  1.3480
   11MOL   H637 7857   2.543   2.431   2.549  0.4132  0.2016  0.9353
   11MOL   H638 7858   2.548   2.609   2.557 -0.8784 -0.6272 -1.2808
   11MOL   H639 7859   2.284   2.453   2.567 -0.1811 -0.7238  0.5780
   11MOL   H640 7860   2.316   2.630   2.556 -0.6690 -0.7751  1.2810
   11MOL   H641 7861   2.390   2.424   2.343  1.8992  1.3314 -0.5037
   11MOL   H642 7862   2.408   2.596   2.334 -0.1003  0.2473  1.0746
   11MOL   H643 7863   2.168   2.617   2.370 -0.3856  0.1720 -0.6430
   11MOL   H644 7864   2.145   2.445   2.367 -1.2023  0.9912 -0.3818
   11MOL   H645 7865   2.090   2.572   2.141 -0.9162  2.0236  2.3121
   11MOL   H646 7866   2.259   2.609   2.131 -0.6671 -0.1755 -0.1639
   11MOL   H647 7867   2.291   2.412   2.035 -0.0338 -2.1600 -0.6739
   11MOL   H648 7868   2.541   2.897   3.055 -0.1307  2.3111 -1.6058
   11MOL   H649 7869   2.391   3.016   3.210 -0.8107  2.4177 -0.8373
   11MOL   C650 7870   2.149   2.298   2.110  0.4001 -0.6821  0.3362
   11MOL   O651 7871   2.042   2.292   2.175  0.2265  0.1802 -0.3239
   11MOL   C652 7872   2.206   2.175   2.036 -0.2457  0.4442  0.3388
   11MOL   C653 7873   2.149   2.044   2.037  0.0566  0.2922 -0.8396
   11MOL   C654 7874   2.216   1.932   1.967  0.2866 -0.0160 -0.2679
   11MOL   C655 7875   2.336   1.955   1.897 -0.3294  0.2571 -0.5725
   11MOL   C656 7876   2.424   1.847   1.842  0.3132  0.5376 -0.3162
   11MOL   O657 7877   2.477   1.861   1.732  0.4209  0.4972 -0.2551
   11MOL   N658 7878   2.446   1.746   1.923  0.0108 -0.5817 -0.2900
   11MOL   C659 7879   2.563   1.660   1.906  0.2402  0.3630  0.6464
   11MOL   C660 7880   2.604   1.583   2.037  0.1196  0.3657  0.1513
   11MOL   C661 7881   2.707   1.473   2.018 -0.1808 -0.1579  0.3546
   11MOL   C662 7882   2.854   1.503   1.984 -0.1605 -0.4911 -0.1014
   11MOL   C663 7883   2.879   1.553   1.838 -0.4533  0.5908  0.2330
   11MOL   C664 7884   3.030   1.562   1.796 -0.2929  0.3699 -0.2522
   11MOL   N665 7885   3.051   1.604   1.654  0.5530 -0.1081 -1.1247
   11MOL   C666 7886   2.379   2.090   1.878 -0.3123 -0.0859  0.5342
   11MOL   C667 7887   2.322   2.199   1.950 -0.2000 -0.7897 -0.2420
   11MOL   H668 7888   2.059   2.026   2.093 -0.3729 -0.7752 -1.8617
   11MOL   H669 7889   2.171   1.834   1.977  2.5209 -1.0128  0.3776
   11MOL   H670 7890   2.413   1.764   2.017 -0.2846  3.3805 -1.0686
   11MOL   H671 7891   2.543   1.582   1.832  2.8909 -1.4001  1.7046
   11MOL   H672 7892   2.651   1.712   1.869 -0.3859  2.2336  1.7663
   11MOL   H673 7893   2.512   1.539   2.074  0.9146  0.2244  2.0060
   11MOL   H674 7894   2.630   1.648   2.120  1.5883 -1.5334  1.2154
   11MOL   H675 7895   2.721   1.420   2.112 -1.8460  0.5069  0.9957
   11MOL   H676 7896   2.670   1.392   1.955  0.9838  0.1939 -0.8103
   11MOL   H677 7897   2.915   1.413   1.985 -0.5965 -0.8160 -1.3863
   11MOL   H678 7898   2.887   1.582   2.051  1.3513 -3.1279  2.3650
   11MOL   H679 7899   2.825   1.647   1.826 -0.0056  0.9776  1.2237
   11MOL   H680 7900   2.817   1.492   1.772 -0.8310  0.4018  0.7677
   11MOL   H681 7901   3.078   1.639   1.856 -4.2381  0.8508  2.4904
   11MOL   H682 7902   3.068   1.462   1.819  0.6463  0.6812 -0.4298
   11MOL   H683 7903   3.067   1.530   1.587 -1.4204 -1.3747 -0.2547
   11MOL   H684 7904   2.468   2.100   1.818 -0.9743 -0.5551 -0.5261
   11MOL   H685 7905   2.358   2.300   1.937  1.4237 -1.2161  0.8064
   11MOL   C686 7906   3.020   1.723   1.608 -0.4425 -0.8862  0.2257
   11MOL   O687 7907   3.007   1.818   1.681 -0.1720 -0.1372 -0.6345
   11MOL   C688 7908   2.998   1.736   1.461 -0.7700  0.0991  0.5486
   11MOL   C689 7909   2.987   1.623   1.380 -0.9730 -0.3205 -0.8977
   11MOL   C690 7910   2.981   1.631   1.242 -0.4358 -0.3522 -0.4235
   11MOL   C691 7911   2.991   1.757   1.175 -0.0603  0.2974  0.0054
   11MOL   C692 7912   2.966   1.771   1.027  0.5765  0.4698 -0.0973
   11MOL   O693 7913   3.036   1.843   0.958  0.2465  0.3489  0.3215
   11MOL   N694 7914   2.868   1.695   0.979 -0.2091  0.4654 -0.3292
   11MOL   C695 7915   2.841   1.671   0.833 -0.1842  0.7519 -0.6746
   11MOL   C696 7916   2.751   1.778   0.772  0.5473 -0.3547  0.0332
   11MOL   C697 7917   2.730   1.752   0.620  0.2583 -0.4333 -0.4547
   11MOL   C698 7918   2.617   1.833   0.556 -0.1872 -0.3516 -0.0281
   11MOL   C699 7919   2.648   1.973   0.520 -0.3859 -0.4976 -0.4071
   11MOL   C700 7920   2.774   2.005   0.431 -0.7904  0.1495 -0.8070
   11MOL   N701 7921   2.880   2.021   0.528  0.5469  0.0870  0.8582
   11MOL   C702 7922   3.014   1.870   1.254 -0.3984  0.0405  0.4799
   11MOL   C703 7923   3.021   1.858   1.397 -0.5894  0.2556  0.4328
   11MOL   H704 7924   2.963   1.523   1.413 -3.1746 -0.1549 -1.9083
   11MOL   H705 7925   2.967   1.547   1.176 -0.3254 -0.8554  0.1909
   11MOL   H706 7926   2.822   1.630   1.041 -3.0246  1.7260 -1.0340
   11MOL   H707 7927   2.937   1.668   0.781 -1.6757  0.0929 -3.4618
   11MOL   H708 7928   2.809   1.568   0.817  2.4927 -0.5171  1.4876
   11MOL   H709 7929   2.791   1.878   0.793 -0.0871  0.0534 -0.6696
   11MOL   H710 7930   2.657   1.766   0.825  1.1294  0.2411  1.2301
   11MOL   H711 7931   2.815   1.764   0.554  1.1093  1.9306  1.0088
   11MOL   H712 7932   2.700   1.647   0.621 -0.1084 -0.3347  1.5847
   11MOL   H713 7933   2.528   1.826   0.619  0.6165  0.2724  1.1884
   11MOL   H714 7934   2.588   1.768   0.474  2.4828  1.2175 -2.3279
   11MOL   H715 7935   2.640   2.036   0.608 -0.2922 -0.5274 -0.3766
   11MOL   H716 7936   2.554   1.996   0.471  0.2267  0.9018 -0.9461
   11MOL   H717 7937   2.786   1.927   0.356 -0.0984  1.3632 -2.0056
   11MOL   H718 7938   2.769   2.097   0.372 -0.8387  1.2813  0.9270
   11MOL   H719 7939   2.973   2.001   0.495 -0.2928 -0.3842 -1.3245
   11MOL   H720 7940   3.032   1.962   1.201  1.3121  0.5380  1.8564
   11MOL   H721 7941   3.034   1.949   1.453 -2.4805  0.9151 -0.1504
   11MOL   H722 7942   2.871   1.951   0.600 -0.2591 -1.6844 -0.9174
   12MOL     C1 7943   6.471   6.861   1.191 -0.4805  0.7637  0.8103
   12MOL     O2 7944   6.349   6.871   1.216 -0.0475  0.0112 -0.4987
   12MOL     C3 7945   6.573   6.807   1.284  0.3324  0.1281 -0.0133
   12MOL     C4 7946   6.702   6.864   1.272 -0.1375 -0.3323 -0.3797
   12MOL     C5 7947   6.806   6.817   1.358 -0.3981 -0.1296 -0.1104
   12MOL     C6 7948   6.772   6.718   1.457  0.7348  0.4708  0.1768
   12MOL     C7 7949   6.877   6.674   1.558  0.1486 -0.8671  0.2388
   12MOL     O8 7950   6.882   6.560   1.603  0.5344 -0.5427 -0.0568
   12MOL     N9 7951   6.974   6.762   1.590  0.3616  0.0122 -0.2953
   12MOL    C10 7952   7.078   6.760   1.692  0.8393 -0.3813 -0.6869
   12MOL    C11 7953   7.098   6.896   1.739  0.6149  0.3643  0.1213
   12MOL    C12 7954   7.190   6.909   1.865  0.0698  0.1504  0.5773
   12MOL    C13 7955   7.239   7.056   1.868 -0.1156  0.2152  0.2375
   12MOL    C14 7956   7.127   7.162   1.901 -0.7883  0.6871  0.3881
   12MOL    C15 7957   7.185   7.297   1.937 -0.0302 -0.7052 -0.0494
   12MOL    N16 7958   7.084   7.389   1.985  0.5754  0.0490  0.0662
   12MOL    C17 7959   6.650   6.657   1.453  0.2226  0.3161 -0.5541
   12MOL    C18 7960   6.550   6.696   1.363 -0.3976  0.2237  0.0118
   12MOL    H19 7961   6.726   6.949   1.209  1.6957  1.6587  2.8247
   12MOL    H20 7962   6.906   6.859   1.363  0.1204 -1.4469  1.1708
   12MOL    H21 7963   6.961   6.852   1.547  0.6739  0.0161 -0.3862
   12MOL    H22 7964   7.032   6.696   1.766  0.2243 -2.5750 -2.9172
   12MOL    H23 7965   7.177   6.724   1.662 -0.3479 -3.9656 -0.4777
   12MOL    H24 7966   7.002   6.934   1.775 -0.6378 -0.9239 -1.7243
   12MOL    H25 7967   7.125   6.967   1.660  0.2409  0.1544 -0.2006
   12MOL    H26 7968   7.133   6.891   1.956  1.4473  0.3706  1.4915
   12MOL    H27 7969   7.269   6.836   1.853 -2.5295 -2.5813 -0.5169
   12MOL    H28 7970   7.274   7.074   1.767 -0.5615 -1.4477 -0.2216
   12MOL    H29 7971   7.327   7.073   1.930 -0.8109 -1.4086  1.6934
   12MOL    H30 7972   7.073   7.129   1.989  0.1623 -1.1731  0.2872
   12MOL    H31 7973   7.049   7.163   1.824  0.8012 -2.7429 -1.3823
   12MOL    H32 7974   7.273   7.287   2.002  1.2134  1.5646 -1.3048
   12MOL    H33 7975   7.231   7.339   1.847 -0.2048 -2.2163 -0.8668
   12MOL    H34 7976   7.001   7.349   2.026 -0.3351 -0.1641 -1.8982
   12MOL    H35 7977   6.632   6.575   1.521  0.8830 -0.0659 -0.8379
   12MOL    H36 7978   6.452   6.651   1.357 -0.0045 -0.5374 -0.8135
   12MOL    H37 7979   6.518   6.893   1.098 -1.5824  0.6253  0.1904
   12MOL    C38 7980   7.101   7.522   1.996 -0.0848  0.1593  0.6950
   12MOL    O39 7981   7.206   7.578   1.960  0.0649 -0.4684  0.2406
   12MOL    C40 7982   6.992   7.587   2.078 -0.0031 -0.0830  0.6567
   12MOL    C41 7983   6.928   7.527   2.189 -0.7231 -0.1686 -0.2756
   12MOL    C42 7984   6.834   7.588   2.274 -0.2130  0.0497 -0.0140
   12MOL    C43 7985   6.813   7.726   2.258 -0.3373 -0.2346 -0.1922
   12MOL    C44 7986   6.727   7.798   2.346  0.2560 -0.6278 -0.1388
   12MOL    O45 7987   6.675   0.018   2.318  0.4325  0.1473  0.0556
   12MOL    N46 7988   6.695   7.734   2.461  0.0526 -0.0604 -0.3470
   12MOL    C47 7989   6.623   7.795   2.563 -0.2843 -0.1467 -0.1836
   12MOL    C48 7990   6.475   7.773   2.546 -0.3952 -0.1364 -0.5760
   12MOL    C49 7991   6.392   7.868   2.629 -0.6753  0.2386  0.4088
   12MOL    C50 7992   6.244   7.848   2.601 -0.3779  0.6424 -0.8843
   12MOL    C51 7993   6.162   0.024   2.711 -0.3604 -0.0828  0.0235
   12MOL    C52 7994   6.017   0.002   2.688 -0.1004  0.0780 -0.4687
   12MOL    N53 7995   5.938   0.060   2.798 -0.2508 -0.6879  0.1377
   12MOL    C54 7996   6.878   7.794   2.146  1.4940 -0.4284 -0.1476
   12MOL    C55 7997   6.963   7.727   2.058 -0.1083 -0.5077  0.2572
   12MOL    H56 7998   6.944   7.421   2.206 -0.7723  0.2388  2.4858
   12MOL    H57 7999   6.785   7.525   2.346  2.9885 -0.4494  1.7976
   12MOL    H58 8000   6.741   7.646   2.482 -0.3605 -0.5917 -1.6091
   12MOL    H59 8001   6.669   7.773   2.659  1.4734  1.1803 -0.6928
   12MOL    H60 8002   6.652   0.014   2.565 -0.5545 -0.1014  1.5017
   12MOL    H61 8003   6.447   7.668   2.560  0.7531  0.0680  4.1543
   12MOL    H62 8004   6.449   7.784   2.441 -1.8835 -3.8798 -0.6997
   12MOL    H63 8005   6.421   7.838   2.730 -1.8450 -0.8676  0.4231
   12MOL    H64 8006   6.424   0.085   2.613 -0.4210 -0.0550 -1.0270
   12MOL    H65 8007   6.223   7.741   2.587  0.7841  0.0998  1.3590
   12MOL    H66 8008   6.209   0.012   2.511  2.4612  0.5699 -2.0823
   12MOL    H67 8009   6.172   0.131   2.732  0.0458 -0.2018  0.4435
   12MOL    H68 8010   6.185   7.867   2.808 -1.1088 -0.6891 -0.0644
   12MOL    H69 8011   5.977   0.037   2.593  0.6847  1.2861 -0.3606
   12MOL    H70 8012   6.002   7.780   2.685 -0.0252 -0.0248  1.6419
   12MOL    H71 8013   5.918   7.880   2.872  2.3090 -0.0038  1.4865
   12MOL    H72 8014   6.858   0.013   2.131  0.6941 -0.9576 -3.1179
   12MOL    H73 8015   7.011   7.779   1.976  3.0773 -0.5468  2.0118
   12MOL    C74 8016   5.894   0.187   2.822  1.2797  0.1961 -0.7410
   12MOL    O75 8017   5.888   0.271   2.732 -0.5078  0.0935  0.0458
   12MOL    C76 8018   5.850   0.220   2.958 -0.3863 -0.7401  0.1009
   12MOL    C77 8019   5.761   0.330   2.974  0.5830 -0.3673 -0.4015
   12MOL    C78 8020   5.713   0.366   3.104 -0.6469  0.5379  0.0423
   12MOL    C79 8021   5.762   0.314   3.222  0.7908 -0.5377 -0.6578
   12MOL    C80 8022   5.723   0.375   3.354  0.0378  0.3432  0.2661
   12MOL    O81 8023   5.636   0.458   3.367 -0.0660 -0.2391 -0.6657
   12MOL    N82 8024   5.799   0.342   3.455 -0.0692  0.2432  0.2576
   12MOL    C83 8025   5.802   0.414   3.579  0.7043 -0.0500  0.1275
   12MOL    C84 8026   5.941   0.391   3.649  0.4230  0.4824 -0.5309
   12MOL    C85 8027   5.965   0.454   3.787 -0.3953  0.3162  0.0285
   12MOL    C86 8028   6.093   0.408   3.867 -0.0986 -0.4501  0.2969
   12MOL    C87 8029   6.114   0.255   3.876  0.1099  0.1080  0.0962
   12MOL    C88 8030   6.249   0.212   3.907  0.4864 -0.6136  0.3096
   12MOL    N89 8031   6.283   0.071   3.881 -0.1995 -0.7348 -0.0903
   12MOL    C90 8032   5.858   0.205   3.206  0.0150 -0.4781  0.2015
   12MOL    C91 8033   5.891   0.150   3.075  0.3074  0.3468  0.0995
   12MOL    H92 8034   5.749   0.399   2.892 -0.3861  1.4520  1.2366
   12MOL    H93 8035   5.650   0.454   3.109  1.5923  2.3416 -1.9865
   12MOL    H94 8036   5.878   0.285   3.428 -1.0768 -0.5204 -1.1512
   12MOL    H95 8037   5.784   0.521   3.570  0.1358 -0.0453  1.2584
   12MOL    H96 8038   5.717   0.385   3.640  1.5871 -1.8526  0.5393
   12MOL    H97 8039   6.010   0.445   3.584 -0.7480  1.8218 -0.6805
   12MOL    H98 8040   5.973   0.287   3.642 -1.2599 -0.1177  0.3428
   12MOL    H99 8041   5.960   0.563   3.789  0.6831  0.3612  2.4366
   12MOL   H100 8042   5.877   0.426   3.845 -0.9618  1.2184 -0.3812
   12MOL   H101 8043   6.093   0.458   3.964  0.4735  0.4227 -0.1525
   12MOL   H102 8044   6.175   0.449   3.808 -0.2348  0.3711  0.6711
   12MOL   H103 8045   6.087   0.203   3.784  1.2104 -0.6485  0.1961
   12MOL   H104 8046   6.046   0.212   3.949  1.2274 -0.0498  1.0622
   12MOL   H105 8047   6.329   0.276   3.868 -0.3472  0.1298 -0.2052
   12MOL   H106 8048   6.255   0.230   4.014  3.0146 -1.7289  0.4029
   12MOL   H107 8049   6.254   7.881   3.941  0.1240 -1.0961 -0.3859
   12MOL   H108 8050   5.887   0.151   3.295 -0.9570  1.9442  2.0370
   12MOL   H109 8051   5.958   0.066   3.065 -0.1618  0.0389 -0.5141
   12MOL   C110 8052   6.340   0.026   3.769 -0.0932 -0.3906 -0.1520
   12MOL   O111 8053   6.362   0.099   3.676  0.7034  0.5333  0.0706
   12MOL   C112 8054   6.374   7.764   3.760 -0.3070  0.0979 -0.2301
   12MOL   C113 8055   6.301   7.674   3.828  0.0457  0.4437  0.7112
   12MOL   C114 8056   6.325   7.539   3.825 -0.5502  0.6465 -0.5221
   12MOL   C115 8057   6.420   7.482   3.734 -0.2669 -0.0678 -0.6050
   12MOL   C116 8058   6.437   7.331   3.726  0.0418 -0.5745 -0.7845
   12MOL   O117 8059   6.546   7.285   3.706  0.0513  0.7088  0.1329
   12MOL   N118 8060   6.329   7.264   3.736  0.1853  0.0974 -0.1388
   12MOL   C119 8061   6.317   7.116   3.744  0.1732  0.2439 -0.1108
   12MOL   C120 8062   6.299   7.059   3.885 -0.1248  0.6888 -0.3856
   12MOL   C121 8063   6.326   6.908   3.900  0.1048  0.2905 -0.4487
   12MOL   C122 8064   6.323   6.865   4.044  0.0481 -0.3463 -0.3528
   12MOL   C123 8065   6.457   6.884   4.112  0.7344 -0.3735 -0.1385
   12MOL   C124 8066   6.453   6.849   4.267 -0.7065 -0.7898  0.3960
   12MOL   N125 8067   6.583   6.817   4.314 -0.0631  0.6254 -0.2519
   12MOL   C126 8068   6.490   7.569   3.656 -0.2736  0.5244  0.1850
   12MOL   C127 8069   6.466   7.709   3.658 -0.0581  0.3732  0.0411
   12MOL   H128 8070   6.210   7.698   3.882 -1.4628 -2.0440 -0.6323
   12MOL   H129 8071   6.256   7.479   3.882 -0.6948  0.1026 -1.2646
   12MOL   H130 8072   6.245   7.317   3.717  0.7493  1.6521  1.6312
   12MOL   H131 8073   6.243   7.073   3.677 -0.8651  0.2300  1.0236
   12MOL   H132 8074   6.411   7.083   3.698 -0.9389  1.3210 -3.2764
   12MOL   H133 8075   6.198   7.086   3.917 -1.3988 -1.3430 -2.5321
   12MOL   H134 8076   6.360   7.118   3.954 -2.7281 -0.3324  2.9130
   12MOL   H135 8077   6.242   6.861   3.850  1.5052 -0.0515 -2.5143
   12MOL   H136 8078   6.420   6.882   3.851  0.3450  0.2702  0.0224
   12MOL   H137 8079   6.287   6.762   4.051  0.3249 -0.4859 -0.9597
   12MOL   H138 8080   6.241   6.921   4.089  0.8059  0.2307  0.3321
   12MOL   H139 8081   6.478   6.991   4.102  1.8169 -0.4272  1.4100
   12MOL   H140 8082   6.530   6.825   4.056  2.2118  1.3966 -0.1278
   12MOL   H141 8083   6.390   6.918   4.324  1.6230  2.0251 -0.3129
   12MOL   H142 8084   6.400   6.754   4.280 -0.9578 -0.6961  0.0777
   12MOL   H143 8085   6.622   6.728   4.285 -0.0587  0.8282 -0.8634
   12MOL   H144 8086   6.555   7.522   3.584  1.1200 -0.4179  2.0125
   12MOL   H145 8087   6.512   7.776   3.586 -0.5720  0.2275 -0.4271
   12MOL   C146 8088   6.664   6.908   4.375 -0.4265  0.7346 -0.5911
   12MOL   O147 8089   6.623   7.023   4.398 -0.0975  0.1063  0.1628
   12MOL   C148 8090   6.803   6.860   4.416  0.6288 -0.0201  0.0123
   12MOL   C149 8091   6.851   6.738   4.370 -0.1101  0.2161  0.3931
   12MOL   C150 8092   6.982   6.697   4.395 -0.1879 -0.3478 -0.8789
   12MOL   C151 8093   7.060   6.778   4.476  0.6918  0.0687 -0.3423
   12MOL   C152 8094   7.200   6.734   4.512 -0.1933  0.0082 -0.3236
   12MOL   O153 8095   7.273   6.692   4.421 -0.1725 -0.3786 -0.6894
   12MOL   N154 8096   7.236   6.733   4.643 -0.0551 -0.0281 -0.4297
   12MOL   C155 8097   7.355   6.677   4.701  0.0395  0.1638 -0.4485
   12MOL   C156 8098   7.363   6.519   4.690  0.3986  0.0089  0.5820
   12MOL   C157 8099   7.506   6.472   4.716  0.2796  0.6631 -0.6979
   12MOL   C158 8100   7.511   6.315   4.728 -0.8758  0.2338 -0.0239
   12MOL   C159 8101   7.656   6.268   4.734  0.0651 -0.1240 -0.1238
   12MOL   C160 8102   7.659   6.116   4.753  0.3755  0.0714  0.4327
   12MOL   N161 8103   7.791   6.058   4.745 -0.2677 -0.1453 -0.1189
   12MOL   C162 8104   7.020   6.902   4.520  0.0103  0.1687 -0.1465
   12MOL   C163 8105   6.887   6.944   4.488  0.0184 -0.5879 -0.1695
   12MOL   H164 8106   6.789   6.664   4.322 -1.0631 -1.5189  4.1371
   12MOL   H165 8107   7.012   6.603   4.351 -1.7170 -0.0587 -2.5975
   12MOL   H166 8108   7.156   6.753   4.700  1.2417 -0.4953  1.6033
   12MOL   H167 8109   7.446   6.719   4.658  0.2299  0.1726 -0.0350
   12MOL   H168 8110   7.359   6.705   4.806 -0.3044  1.5015 -0.7781
   12MOL   H169 8111   7.338   6.477   4.592  3.0285 -1.3764  0.4531
   12MOL   H170 8112   7.302   6.482   4.772 -1.9176  0.1415 -1.0165
   12MOL   H171 8113   7.579   6.504   4.642  1.0312 -1.1236 -0.7678
   12MOL   H172 8114   7.535   6.513   4.813  1.8382 -2.0827  0.0684
   12MOL   H173 8115   7.467   6.271   4.638 -1.4512 -0.9485  0.8200
   12MOL   H174 8116   7.464   6.280   4.820 -0.0175  2.3928  1.2698
   12MOL   H175 8117   7.699   6.319   4.821  0.1729  1.8307 -1.3092
   12MOL   H176 8118   7.706   6.298   4.642 -0.9433 -0.2991 -0.7350
   12MOL   H177 8119   7.607   6.095   4.847  2.3511 -1.5945  1.1817
   12MOL   H178 8120   7.604   6.064   4.675  1.8147 -0.2382 -0.3818
   12MOL   H179 8121   7.794   5.973   4.690 -2.3500  1.6454 -3.1092
   12MOL   H180 8122   7.088   6.964   4.577 -1.8618 -0.5586  3.0400
   12MOL   H181 8123   6.845   7.037   4.524  1.1160  0.2714 -1.0885
   12MOL   C182 8124   0.012   6.087   4.821 -0.1473  0.4768 -0.6188
   12MOL   O183 8125   0.017   6.176   4.908  0.3327 -0.7516  0.3491
   12MOL   C184 8126   0.144   6.013   4.788  0.5842  0.2764 -0.9718
   12MOL   C185 8127   0.257   6.047   4.866 -0.6806  0.0951 -0.2986
   12MOL   C186 8128   0.378   5.990   4.832 -0.1036 -0.0355 -0.7482
   12MOL   C187 8129   0.385   5.890   4.730  0.0729 -1.1156  0.2421
   12MOL   C188 8130   0.524   5.831   4.708 -0.4506  0.1598 -0.5687
   12MOL   O189 8131   0.617   5.902   4.677 -0.2271  0.2205 -0.4055
   12MOL   N190 8132   0.536   5.699   4.713  0.0328 -0.1556  0.1350
   12MOL   C191 8133   0.661   5.622   4.701 -0.4440  0.1636 -0.2671
   12MOL   C192 8134   0.749   5.609   4.824  0.2583 -0.5548  0.2473
   12MOL   C193 8135   0.885   5.530   4.804  0.0750 -0.0068  0.2712
   12MOL   C194 8136   0.982   5.542   4.927  0.0066  0.0200  0.0674
   12MOL   C195 8137   1.096   5.442   4.895  0.0633  0.1208  0.0222
   12MOL   C196 8138   1.195   5.417   5.017  0.3451 -0.5549 -0.1199
   12MOL   N197 8139   1.321   5.362   4.977  0.2881  0.4400  0.1660
   12MOL   C198 8140   0.270   5.851   4.656  0.0476  0.3719 -0.5565
   12MOL   C199 8141   0.148   5.907   4.687 -0.1515 -0.5150 -0.3986
   12MOL   H200 8142   0.260   6.125   4.941  3.3480 -1.5716  1.4618
   12MOL   H201 8143   0.469   6.019   4.883  0.3736 -0.6498 -1.2272
   12MOL   H202 8144   0.453   5.647   4.735 -0.7202  1.8846  2.3888
   12MOL   H203 8145   0.650   5.523   4.656 -1.4140  0.4048 -0.5593
   12MOL   H204 8146   0.726   5.682   4.637  1.6811 -1.0955  0.6330
   12MOL   H205 8147   0.688   5.562   4.901 -0.6099  0.1140 -0.0344
   12MOL   H206 8148   0.762   5.708   4.868 -0.1823  0.2060 -1.3339
   12MOL   H207 8149   0.874   5.423   4.785  1.9948 -0.0939 -0.4349
   12MOL   H208 8150   0.944   5.572   4.723 -0.8595  1.8250  0.5060
   12MOL   H209 8151   0.932   5.500   5.014 -0.4853  0.5366  0.0388
   12MOL   H210 8152   1.013   5.645   4.946  0.7647 -0.1006 -0.5039
   12MOL   H211 8153   1.153   5.495   4.818 -0.0514  1.8961  1.1349
   12MOL   H212 8154   1.065   5.343   4.863  0.8698 -1.0776  2.8168
   12MOL   H213 8155   1.207   5.517   5.060 -0.7446  0.2903 -1.7214
   12MOL   H214 8156   1.162   5.354   5.100  1.0917  0.9089  1.3342
   12MOL   H215 8157   1.331   5.341   4.879 -0.5737  0.5342  0.0461
   12MOL   H216 8158   0.266   5.775   4.580 -0.4701  1.9600 -2.1426
   12MOL   H217 8159   0.055   5.875   4.644 -2.1173  2.5538  1.3604
   12MOL   C218 8160   1.426   5.360   5.047  0.6794 -0.9599  0.2334
   12MOL   O219 8161   1.422   5.367   5.166  0.1744 -0.0400 -0.2021
   12MOL   C220 8162   1.552   5.384   4.974 -0.9071 -0.0060 -0.1700
   12MOL   C221 8163   1.662   5.301   4.996  0.2991  0.6019 -0.1130
   12MOL   C222 8164   1.782   5.321   4.923  0.2045  0.1980 -0.3393
   12MOL   C223 8165   1.794   5.417   4.823  0.2969 -0.6315  0.0800
   12MOL   C224 8166   1.911   5.430   4.729 -0.2650  0.3231 -0.1714
   12MOL   O225 8167   2.031   5.401   4.754  0.4065 -0.0584 -0.1939
   12MOL   N226 8168   1.881   5.447   4.601 -0.2049  0.2214  0.6807
   12MOL   C227 8169   1.976   5.450   4.488 -0.1208  0.4433 -0.2377
   12MOL   C228 8170   1.893   5.419   4.363 -0.1233  0.3572 -0.0461
   12MOL   C229 8171   1.824   5.286   4.340  0.0722 -0.7359  0.0488
   12MOL   C230 8172   1.710   5.257   4.437 -0.6355 -0.1254 -0.3720
   12MOL   C231 8173   1.741   5.163   4.557 -0.2069 -0.2317 -0.0196
   12MOL   C232 8174   1.619   5.167   4.657  0.2645 -0.0363 -0.5065
   12MOL   N233 8175   1.486   5.132   4.595  0.3760  0.4423 -0.0066
   12MOL   C234 8176   1.680   5.498   4.801  0.1140 -0.5755 -0.2826
   12MOL   C235 8177   1.559   5.486   4.883 -0.6599 -0.1381 -0.2221
   12MOL   H236 8178   1.643   5.223   5.068 -0.5304  0.8485 -0.0512
   12MOL   H237 8179   1.856   5.242   4.924 -2.0890 -2.0043 -1.1668
   12MOL   H238 8180   1.783   5.436   4.578 -0.3264  0.8421  0.8773
   12MOL   H239 8181   2.019   5.551   4.484 -0.8384  0.7131 -1.2416
   12MOL   H240 8182   2.048   5.372   4.513 -1.3798  0.2142  2.9476
   12MOL   H241 8183   1.973   5.426   4.290 -1.5607  0.7196 -1.6115
   12MOL   H242 8184   1.826   5.504   4.350  0.2108  0.8228  1.1684
   12MOL   H243 8185   1.775   5.284   4.243 -1.0533 -0.6695  0.6097
   12MOL   H244 8186   1.899   5.207   4.334  2.0020  1.0020  0.7028
   12MOL   H245 8187   1.639   5.205   4.373  1.0312 -1.3071 -1.2852
   12MOL   H246 8188   1.650   5.345   4.460  1.3097  1.1280  0.0186
   12MOL   H247 8189   1.836   5.186   4.604  0.1249  0.4507 -0.9917
   12MOL   H248 8190   1.753   5.067   4.508  3.0855  1.7045 -3.3124
   12MOL   H249 8191   1.629   5.103   4.744 -1.2763 -0.4257 -0.5904
   12MOL   H250 8192   1.611   5.267   4.699 -0.7988  0.1675 -1.1638
   12MOL   H251 8193   1.490   5.062   4.523 -1.2279  0.3853 -0.0510
   12MOL   H252 8194   1.680   5.577   4.727 -0.9191 -0.1193  0.1868
   12MOL   H253 8195   1.483   5.556   4.855 -0.7642 -1.1432 -2.5936
   12MOL   C254 8196   1.363   5.158   4.643  0.3512 -0.6520 -0.2383
   12MOL   O255 8197   1.340   5.248   4.727 -0.1543 -0.5426  0.0487
   12MOL   C256 8198   1.247   5.072   4.587  0.3152  0.0095 -0.2532
   12MOL   C257 8199   1.282   4.962   4.503  0.0937 -0.1145 -0.3753
   12MOL   C258 8200   1.171   4.892   4.441  0.6743 -0.7199 -0.2249
   12MOL   C259 8201   1.037   4.937   4.460 -0.1759  0.6314 -0.2698
   12MOL   C260 8202   0.926   4.865   4.392 -0.8986 -0.2418 -0.6501
   12MOL   O261 8203   0.902   4.745   4.404 -0.4544  0.1127 -0.3775
   12MOL   N262 8204   0.858   4.947   4.315  0.7262 -0.0438 -0.0022
   12MOL   C263 8205   0.748   4.908   4.231  0.2212  0.3825  0.3258
   12MOL   C264 8206   0.775   4.972   4.094 -0.1139 -0.6296  0.4261
   12MOL   C265 8207   0.682   4.937   3.984  0.3785 -0.3638 -0.0688
   12MOL   C266 8208   0.711   5.014   3.848 -0.0598 -0.3911 -0.5673
   12MOL   C267 8209   0.852   4.991   3.779 -0.9863  0.0879  0.8508
   12MOL   C268 8210   0.879   5.024   3.633 -0.5846 -0.1507  0.1564
   12MOL   N269 8211   0.783   4.949   3.549 -0.0474 -0.6064 -0.2137
   12MOL   C270 8212   1.016   5.048   4.547  0.3652 -0.2710  0.4946
   12MOL   C271 8213   1.114   5.119   4.610 -0.2253  1.1392  0.0289
   12MOL   H272 8214   1.385   4.932   4.491 -0.6632 -3.5635  1.1635
   12MOL   H273 8215   1.197   4.823   4.362 -0.4208  0.2316 -1.4286
   12MOL   H274 8216   0.887   5.044   4.311 -0.7390  0.3713 -0.7877
   12MOL   H275 8217   0.743   4.799   4.223 -1.2636  0.4012  0.8838
   12MOL   H276 8218   0.652   4.938   4.272 -0.5545  0.7054 -1.6657
   12MOL   H277 8219   0.877   4.944   4.067 -0.9147 -1.5495 -1.7527
   12MOL   H278 8220   0.777   5.080   4.105  0.8401 -0.2865 -2.5925
   12MOL   H279 8221   0.682   4.829   3.969 -1.9242 -0.5559  1.0362
   12MOL   H280 8222   0.583   4.966   4.020 -0.0814 -1.5799 -0.3050
   12MOL   H281 8223   0.693   5.117   3.879 -1.9285 -0.6387 -0.7471
   12MOL   H282 8224   0.627   4.994   3.781 -1.6629  1.8537  0.6735
   12MOL   H283 8225   0.876   4.886   3.795  0.8509  0.3103 -0.2950
   12MOL   H284 8226   0.919   5.047   3.844  0.2084  0.5064 -0.7151
   12MOL   H285 8227   0.869   5.130   3.611 -2.3708 -0.2302  0.5707
   12MOL   H286 8228   0.985   5.007   3.612 -0.2724 -0.0801  1.5588
   12MOL   H287 8229   0.687   4.980   3.545  0.7470  1.8108 -0.8388
   12MOL   H288 8230   0.912   5.077   4.555  0.3509  0.0827 -0.8089
   12MOL   H289 8231   1.085   5.198   4.677  1.6274  0.8676  1.1896
   12MOL   C290 8232   0.813   4.841   3.478 -0.3369 -0.3813 -0.5265
   12MOL   O291 8233   0.933   4.801   3.463  0.3121  0.1363 -1.1860
   12MOL   C292 8234   0.696   4.779   3.400 -0.2813 -0.1461 -0.2334
   12MOL   C293 8235   0.593   4.862   3.350 -0.2735  0.4630 -0.6194
   12MOL   C294 8236   0.500   4.812   3.260  0.4926 -0.7546 -0.7838
   12MOL   C295 8237   0.510   4.685   3.210  0.1359  0.9587  0.4182
   12MOL   C296 8238   0.409   4.635   3.107 -1.0439  0.0372  0.3753
   12MOL   O297 8239   0.430   4.528   3.049 -0.1583 -0.5240 -0.1731
   12MOL   N298 8240   0.297   4.706   3.099 -0.0218 -0.2272 -0.4567
   12MOL   C299 8241   0.192   4.675   3.013  0.3292 -0.2710 -0.0823
   12MOL   C300 8242   0.054   4.716   3.073  0.1820 -0.1780  0.1024
   12MOL   C301 8243   7.823   4.715   2.961 -0.1525  0.2982  0.2994
   12MOL   C302 8244   7.789   4.579   2.912  0.6189 -0.0826  0.1382
   12MOL   C303 8245   7.656   4.558   2.836  0.2413  0.3454  0.3143
   12MOL   C304 8246   7.642   4.411   2.801 -0.5368 -0.7290 -0.0623
   12MOL   N305 8247   7.522   4.391   2.715  0.6687  0.5523  0.9973
   12MOL   C306 8248   0.609   4.600   3.261  0.3747  0.8345 -0.4728
   12MOL   C307 8249   0.703   4.650   3.349 -0.1771 -0.4127  0.1729
   12MOL   H308 8250   0.588   4.967   3.375  0.8217  0.3497  0.0953
   12MOL   H309 8251   0.434   4.884   3.214  1.2901  1.8156  1.9688
   12MOL   H310 8252   0.293   4.789   3.158 -1.9299 -0.8787  0.3650
   12MOL   H311 8253   0.218   4.730   2.923  1.0971 -1.3003 -0.4957
   12MOL   H312 8254   0.189   4.572   2.980 -2.2367  0.1271 -1.2884
   12MOL   H313 8255   0.056   4.815   3.119 -1.2102 -0.0244 -0.1330
   12MOL   H314 8256   0.027   4.658   3.161  0.7747  0.1806  0.5277
   12MOL   H315 8257   7.739   4.782   2.978  0.9042  1.7332 -0.1067
   12MOL   H316 8258   7.858   4.759   2.868 -5.6410  0.3916 -1.8879
   12MOL   H317 8259   7.781   4.508   2.994  0.9974 -1.7088 -1.1977
   12MOL   H318 8260   7.873   4.551   2.848 -0.4804 -2.6438 -0.2245
   12MOL   H319 8261   7.644   4.623   2.749  3.3285 -2.8772 -2.6329
   12MOL   H320 8262   7.568   4.587   2.895  0.1012  1.0938 -0.2585
   12MOL   H321 8263   7.734   4.377   2.753  0.4773 -0.3917  1.5708
   12MOL   H322 8264   7.622   4.358   2.895 -0.3461 -0.9955 -0.1723
   12MOL   H323 8265   7.476   4.481   2.708  1.0880  0.7278  0.4423
   12MOL   H324 8266   0.615   4.495   3.237  2.6747  1.1372 -1.2758
   12MOL   H325 8267   0.791   4.593   3.374 -0.5320 -0.1758  1.9906
   12MOL   C326 8268   7.464   4.270   2.681 -0.1381 -0.7073  0.1006
   12MOL   O327 8269   7.521   4.165   2.703  0.1840  0.4073 -0.3231
   12MOL   C328 8270   7.335   4.275   2.604  0.0210 -0.5553 -0.2978
   12MOL   C329 8271   7.236   4.169   2.604  0.5120 -0.9387  0.8067
   12MOL   C330 8272   7.117   4.190   2.528 -0.0447 -0.0953  0.0797
   12MOL   C331 8273   7.090   4.308   2.453  0.9098  0.0011 -0.2253
   12MOL   C332 8274   6.958   4.337   2.386 -0.2118  0.1416  0.3995
   12MOL   O333 8275   6.851   4.329   2.451  0.3590 -0.1006  0.4663
   12MOL   N334 8276   6.972   4.399   2.264 -0.4282  0.1237 -0.2904
   12MOL   C335 8277   6.866   4.456   2.186 -0.0061 -0.2436 -0.2296
   12MOL   C336 8278   6.907   4.600   2.149 -0.0865 -0.3889  0.3179
   12MOL   C337 8279   6.804   4.695   2.073  0.4649  0.0319  0.7145
   12MOL   C338 8280   6.681   4.725   2.158  0.1453 -0.2512 -0.9391
   12MOL   C339 8281   6.566   4.798   2.077  0.2999  0.6643 -0.2880
   12MOL   C340 8282   6.428   4.775   2.140 -0.0861 -0.5304 -0.4697
   12MOL   N341 8283   6.334   4.862   2.063 -0.6200  0.3091 -0.7232
   12MOL   C342 8284   7.194   4.402   2.447  0.1148 -0.2845  0.0030
   12MOL   C343 8285   7.311   4.384   2.519 -0.2268 -0.2105 -0.0623
   12MOL   H344 8286   7.249   4.082   2.667 -2.9857 -2.1611 -0.0075
   12MOL   H345 8287   7.037   4.117   2.535 -0.0070 -0.2177 -0.6715
   12MOL   H346 8288   7.068   4.415   2.234 -0.1913  0.0998  0.4338
   12MOL   H347 8289   6.858   4.398   2.094 -1.2329  2.2359 -1.7277
   12MOL   H348 8290   6.777   4.454   2.249  0.5574 -1.7495  0.5419
   12MOL   H349 8291   6.994   4.593   2.084 -0.7235  4.1390 -1.1689
   12MOL   H350 8292   6.949   4.649   2.237  0.9269 -3.0708  1.3990
   12MOL   H351 8293   6.860   4.785   2.046 -2.0420  1.1423 -1.0290
   12MOL   H352 8294   6.769   4.646   1.982 -0.4932  0.8607  0.6203
   12MOL   H353 8295   6.708   4.796   2.237 -0.0907 -0.0948 -0.9986
   12MOL   H354 8296   6.646   4.636   2.209  0.3618  0.3974  0.3861
   12MOL   H355 8297   6.558   4.745   1.982  2.5111 -0.4444  0.1240
   12MOL   H356 8298   6.593   4.902   2.057  0.2463  0.2630 -2.5538
   12MOL   H357 8299   6.401   4.670   2.140 -0.2570 -0.5009  0.6050
   12MOL   H358 8300   6.431   4.811   2.243  0.4534 -2.0794  0.0629
   12MOL   H359 8301   6.345   4.859   1.962  1.2557  0.0142 -0.5401
   12MOL   H360 8302   7.181   4.499   2.402  1.1466 -0.3780 -0.5104
   12MOL   H361 8303   7.384   4.464   2.519  1.0204 -1.3356  0.7349
   12MOL   C362 8304   6.231   4.931   2.111  0.9566 -0.3485  0.3159
   12MOL   O363 8305   6.212   4.953   2.232  0.3801 -0.5191 -0.4216
   12MOL   C364 8306   6.149   4.991   2.004 -0.5481  0.3804 -0.0112
   12MOL   C365 8307   6.181   4.979   1.865 -0.5103 -0.2245  0.6611
   12MOL   C366 8308   6.098   5.036   1.767 -0.4825 -0.6844  0.3495
   12MOL   C367 8309   5.978   5.099   1.805 -0.1462 -0.2625 -0.8093
   12MOL   C368 8310   5.884   5.164   1.705 -0.0611  0.3670 -0.9822
   12MOL   O369 8311   5.790   5.229   1.747  0.7507  0.0945 -0.1166
   12MOL   N370 8312   5.905   5.150   1.574  0.2265 -0.7662  0.1142
   12MOL   C371 8313   5.818   5.203   1.473 -0.3550 -0.1148  0.3755
   12MOL   C372 8314   5.725   5.093   1.415 -0.1961 -0.0334  0.0906
   12MOL   C373 8315   5.622   5.142   1.312 -0.7936 -0.3142  0.3343
   12MOL   C374 8316   5.506   5.041   1.284 -0.1646 -0.0494  0.6219
   12MOL   C375 8317   5.399   5.094   1.191  0.1083  0.6966  0.4167
   12MOL   C376 8318   5.295   4.993   1.146 -0.1449  0.0326 -0.2635
   12MOL   N377 8319   5.203   5.039   1.043 -0.2643  0.2343 -0.4306
   12MOL   C378 8320   5.950   5.121   1.943  0.2071 -0.2603 -0.2404
   12MOL   C379 8321   6.033   5.069   2.042  0.2870  0.4894  0.6762
   12MOL   H380 8322   6.274   4.926   1.847  0.0264  0.3676  1.6218
   12MOL   H381 8323   6.111   5.030   1.660  0.1649  0.5689  0.3485
   12MOL   H382 8324   5.977   5.088   1.539  0.6221 -0.4959  0.4550
   12MOL   H383 8325   5.756   5.287   1.504 -0.7318 -0.4902  0.6611
   12MOL   H384 8326   5.886   5.248   1.402 -2.6071  2.0363 -0.4900
   12MOL   H385 8327   5.667   5.039   1.490 -0.8858  0.1317 -0.3172
   12MOL   H386 8328   5.779   5.019   1.358 -0.1140  1.6259 -2.0481
   12MOL   H387 8329   5.569   5.227   1.356  0.2249  1.2469 -1.3847
   12MOL   H388 8330   5.682   5.171   1.226  0.3946  1.0585  1.6083
   12MOL   H389 8331   5.471   5.010   1.382  1.7916  1.2449  1.7723
   12MOL   H390 8332   5.556   4.955   1.239  1.1227  1.2631 -0.5202
   12MOL   H391 8333   5.439   5.131   1.097  0.9370 -2.3268 -0.4700
   12MOL   H392 8334   5.359   5.181   1.244  1.3601  1.1957  0.5420
   12MOL   H393 8335   5.354   4.919   1.091  1.0119  0.1390  0.8117
   12MOL   H394 8336   5.237   4.959   1.232 -2.0257  1.8312 -0.7694
   12MOL   H395 8337   5.208   5.137   1.016 -0.2801 -0.0854 -1.6239
   12MOL   H396 8338   5.859   5.170   1.973 -0.3449 -1.3959 -0.0358
   12MOL   H397 8339   6.010   5.079   2.147  1.0013  1.3494  0.7472
   12MOL   C398 8340   5.107   4.964   0.991 -0.2209 -0.3160 -0.2624
   12MOL   O399 8341   5.097   4.843   1.022  0.0635 -0.8636  0.4125
   12MOL   C400 8342   5.004   5.045   0.910 -0.5691 -0.6212 -0.2560
   12MOL   C401 8343   5.042   5.135   0.812  0.0378  0.0793 -0.2307
   12MOL   C402 8344   4.946   5.198   0.733 -0.0989 -0.0251 -0.6043
   12MOL   C403 8345   4.814   5.190   0.769  0.1169  0.3022 -0.7280
   12MOL   C404 8346   4.708   5.263   0.690  0.1416  0.3363 -0.0780
   12MOL   O405 8347   4.641   5.355   0.735  0.5087  0.7332  0.1265
   12MOL   N406 8348   4.694   5.221   0.563 -0.4073 -0.1349 -0.0140
   12MOL   C407 8349   4.610   5.278   0.456  0.3990 -0.2861 -0.2483
   12MOL   C408 8350   4.695   5.321   0.341 -0.1862  0.0474 -0.2893
   12MOL   C409 8351   4.731   5.196   0.257 -0.3571  0.3689  0.2426
   12MOL   C410 8352   4.862   5.223   0.178 -0.1607 -0.7539 -0.3930
   12MOL   C411 8353   4.848   5.356   0.094 -0.6636  0.3106  0.0220
   12MOL   C412 8354   4.955   5.368   7.867 -0.0477 -0.0081  0.1299
   12MOL   N413 8355   4.955   5.508   7.811  0.1889  0.1451  0.0340
   12MOL   C414 8356   4.772   5.103   0.869 -0.1737 -0.5890 -0.4385
   12MOL   C415 8357   4.867   5.030   0.935  0.2011 -0.2275 -0.4321
   12MOL   H416 8358   5.146   5.136   0.784  0.3579  0.4381  0.9499
   12MOL   H417 8359   4.974   5.250   0.643 -0.0282 -2.7315 -2.1877
   12MOL   H418 8360   4.757   5.145   0.542 -0.1963 -0.6650  2.4092
   12MOL   H419 8361   4.537   5.201   0.433 -0.7500  0.7989 -0.3116
   12MOL   H420 8362   4.554   5.367   0.484  0.3426 -0.9213  1.7566
   12MOL   H421 8363   4.783   5.376   0.374 -0.0789 -0.9382  1.0951
   12MOL   H422 8364   4.634   5.384   0.275 -0.8144 -1.2172 -0.9310
   12MOL   H423 8365   4.746   5.106   0.316 -0.3267  0.6493  0.6646
   12MOL   H424 8366   4.649   5.174   0.188  0.7600 -1.5782 -0.5105
   12MOL   H425 8367   4.887   5.143   0.109  1.5985  1.0242 -1.9198
   12MOL   H426 8368   4.950   5.228   0.242  1.6047 -1.7615 -2.6569
   12MOL   H427 8369   4.841   5.449   0.151 -1.2563 -0.5002  1.2976
   12MOL   H428 8370   4.753   5.352   0.042 -1.3742  0.7914  1.2469
   12MOL   H429 8371   5.052   5.346   0.026  0.1793 -0.8462 -0.7560
   12MOL   H430 8372   4.926   5.305   7.784 -0.5608 -0.1884  0.4441
   12MOL   H431 8373   4.885   5.578   7.833 -2.6822 -2.4012 -0.5395
   12MOL   H432 8374   4.669   5.086   0.895 -0.2638  0.1673 -0.3054
   12MOL   H433 8375   4.836   4.953   1.005  2.2203 -2.8949 -2.3628
   12MOL   C434 8376   5.034   5.548   7.713  0.4021 -0.2841  1.1926
   12MOL   O435 8377   5.113   5.477   7.655 -0.2615 -0.5212 -0.2530
   12MOL   C436 8378   5.014   5.688   7.664  0.0506 -0.5241 -0.4397
   12MOL   C437 8379   5.000   5.717   7.527 -0.3390 -0.0628  0.0333
   12MOL   C438 8380   4.988   5.852   7.479 -0.5225  0.2967 -0.2991
   12MOL   C439 8381   4.974   5.958   7.571  0.1200  0.7254 -0.0955
   12MOL   C440 8382   4.961   6.105   7.528 -0.2266 -0.3447  0.0553
   12MOL   O441 8383   5.037   6.187   7.578  0.0941 -0.7684 -0.2750
   12MOL   N442 8384   4.856   6.134   7.452 -0.0174  0.0912 -0.1765
   12MOL   C443 8385   4.796   6.265   7.422 -0.3987  0.2792  0.6660
   12MOL   C444 8386   4.866   6.353   7.317  0.5472  0.7693  0.0134
   12MOL   C445 8387   4.897   6.289   7.184  0.0621 -0.3263  0.5351
   12MOL   C446 8388   4.978   6.381   7.095  0.4536  0.0975  0.1072
   12MOL   C447 8389   5.020   6.305   6.964 -0.1920 -0.0483  0.4775
   12MOL   C448 8390   5.100   6.381   6.861 -0.5923  0.3212 -0.2470
   12MOL   N449 8391   5.222   6.439   6.924  0.1232  0.2517 -0.1690
   12MOL   C450 8392   4.971   5.928   7.710 -0.0094 -0.0544 -1.0656
   12MOL   C451 8393   4.997   5.795   7.755 -0.2564  0.3668 -0.3650
   12MOL   H452 8394   5.005   5.637   7.454  0.6614  1.1491 -1.2566
   12MOL   H453 8395   4.986   5.871   7.373 -2.3872 -1.0107 -0.5288
   12MOL   H454 8396   4.822   6.064   7.387  0.1820 -1.7414  1.6561
   12MOL   H455 8397   4.701   6.255   7.370  0.2211  1.3758 -0.7043
   12MOL   H456 8398   4.784   6.325   7.513 -1.8307  1.0328  0.0007
   12MOL   H457 8399   4.963   6.377   7.360  0.4731  0.9111  0.1015
   12MOL   H458 8400   4.812   6.448   7.313  1.6313  1.5485  2.4651
   12MOL   H459 8401   4.942   6.190   7.189 -1.0030 -0.8397 -0.0415
   12MOL   H460 8402   4.799   6.263   7.143  0.7843 -1.8307 -0.2778
   12MOL   H461 8403   5.062   6.415   7.155  1.0853 -0.5750 -0.3923
   12MOL   H462 8404   4.919   6.470   7.074 -0.5397 -0.3051  1.1676
   12MOL   H463 8405   4.932   6.262   6.917  0.6092 -0.3559 -0.7582
   12MOL   H464 8406   5.079   6.220   6.998 -0.8058 -0.1122  1.3965
   12MOL   H465 8407   5.110   6.318   6.772  1.4939  1.5074 -0.8811
   12MOL   H466 8408   5.040   6.468   6.834 -0.3307 -0.0809 -2.1743
   12MOL   H467 8409   5.215   6.516   6.989 -0.6660  0.4069 -0.4312
   12MOL   H468 8410   4.961   6.009   7.780  0.7464 -1.3763  0.5941
   12MOL   H469 8411   5.004   5.782   7.862 -1.4612 -1.0481 -0.4453
   12MOL   C470 8412   5.343   6.421   6.870  0.6363 -0.3484  0.3774
   12MOL   O471 8413   5.358   6.369   6.757  0.5627  0.3636  0.2241
   12MOL   C472 8414   5.465   6.484   6.935 -0.2799 -0.4718 -0.1386
   12MOL   C473 8415   5.492   6.472   7.071  0.7242 -0.0922 -0.4115
   12MOL   C474 8416   5.603   6.532   7.135  0.2927  0.2021 -0.0608
   12MOL   C475 8417   5.677   6.622   7.057 -0.2060  0.3174  0.3024
   12MOL   C476 8418   5.777   6.708   7.125  0.7390 -0.4072  0.3495
   12MOL   O477 8419   5.818   6.681   7.240 -0.4850  1.2171  0.2361
   12MOL   N478 8420   5.824   6.822   7.070  0.5183  0.0996 -0.3718
   12MOL   C479 8421   5.927   6.916   7.119 -0.3512  0.0041  0.7208
   12MOL   C480 8422   6.055   6.951   7.033  0.5469 -0.0184 -0.0404
   12MOL   C481 8423   6.153   7.044   7.107 -0.1940  0.0409 -0.5673
   12MOL   C482 8424   6.279   7.078   7.031  0.7136 -0.0894  1.1202
   12MOL   C483 8425   6.342   6.964   6.949 -0.0010  0.1328  0.5350
   12MOL   C484 8426   6.461   7.017   6.873 -0.6651  0.5449 -0.1983
   12MOL   N485 8427   6.543   6.913   6.805 -0.1658 -0.3436  0.7962
   12MOL   C486 8428   5.653   6.634   6.919 -0.1272 -0.1820 -0.1174
   12MOL   C487 8429   5.544   6.567   6.857  0.0293 -0.1313  0.1477
   12MOL   H488 8430   5.427   6.412   7.133 -0.8479  1.7726 -0.2204
   12MOL   H489 8431   5.625   6.513   7.239  0.0195  0.8135  0.1097
   12MOL   H490 8432   5.779   6.839   6.981 -1.6705 -0.5825  0.5795
   12MOL   H491 8433   5.876   7.010   7.138  1.6147  1.0586  0.8865
   12MOL   H492 8434   5.963   6.882   7.217 -3.0460 -2.1651  1.0029
   12MOL   H493 8435   6.021   7.013   6.949  0.7819  0.5413  0.2734
   12MOL   H494 8436   6.099   6.856   7.002  1.0220  0.2817 -0.2916
   12MOL   H495 8437   6.086   7.124   7.139 -2.5817 -2.4966  1.0321
   12MOL   H496 8438   6.180   6.991   7.199 -1.6990  0.4032  0.1008
   12MOL   H497 8439   6.352   7.124   7.098  0.7564 -0.8644  1.6077
   12MOL   H498 8440   6.260   7.162   6.965  0.7117  1.0365  2.5107
   12MOL   H499 8441   6.266   6.932   6.878  1.5217  1.8466 -1.9449
   12MOL   H500 8442   6.367   6.888   7.023 -0.8947  0.3385  1.0569
   12MOL   H501 8443   6.422   7.089   6.801  0.0681 -0.2537 -1.4258
   12MOL   H502 8444   6.528   7.063   6.946  1.2568 -1.9523 -0.3133
   12MOL   H503 8445   6.497   6.841   6.752  1.8837 -1.6242  0.6961
   12MOL   H504 8446   5.690   6.725   6.874 -0.8947  0.2683  0.1532
   12MOL   H505 8447   5.509   6.588   6.757 -0.2213  0.8746  0.4432
   12MOL   C506 8448   6.673   6.894   6.828 -1.4325 -0.3121 -0.6617
   12MOL   O507 8449   6.738   6.957   6.917  0.1039  0.2486 -0.0382
   12MOL   C508 8450   6.744   6.782   6.749 -0.2800 -0.2390 -0.0495
   12MOL   C509 8451   6.735   6.785   6.608 -0.1643  0.3280  0.3493
   12MOL   C510 8452   6.797   6.682   6.539  0.6189 -0.3603  0.1824
   12MOL   C511 8453   6.864   6.575   6.612  0.4830 -0.3007 -0.5446
   12MOL   C512 8454   6.921   6.462   6.532  0.3916  0.5001  0.2028
   12MOL   O513 8455   6.903   6.340   6.551  0.8391 -0.3673 -0.7861
   12MOL   N514 8456   7.003   6.508   6.437 -0.0682 -0.1348  0.2813
   12MOL   C515 8457   7.073   6.416   6.350 -0.3101  0.4602  0.1705
   12MOL   C516 8458   6.986   6.354   6.240 -0.0445 -0.4260  0.1246
   12MOL   C517 8459   6.943   6.450   6.120 -0.5143 -0.1378 -0.7392
   12MOL   C518 8460   6.838   6.562   6.143 -0.5564  0.2893 -0.5005
   12MOL   C519 8461   6.704   6.521   6.196 -0.0937 -0.6677 -0.0727
   12MOL   C520 8462   6.599   6.625   6.173  0.2952 -0.0603 -0.2600
   12MOL   N521 8463   6.466   6.588   6.223 -0.1507  0.2760  0.0884
   12MOL   C522 8464   6.863   6.573   6.751 -0.6719 -0.0573 -0.0673
   12MOL   C523 8465   6.805   6.683   6.819  0.6295  0.5749 -0.4110
   12MOL   H524 8466   6.673   6.849   6.549 -1.5162 -1.3598 -0.0903
   12MOL   H525 8467   6.798   6.679   6.431 -0.1136  1.5793  0.0958
   12MOL   H526 8468   7.028   6.605   6.427 -0.3399 -0.2436 -1.7126
   12MOL   H527 8469   7.158   6.471   6.310  0.8679  0.4475  2.5497
   12MOL   H528 8470   7.122   6.335   6.404  1.3017  1.1408 -0.2212
   12MOL   H529 8471   6.896   6.310   6.282 -0.9032  0.6118 -0.6107
   12MOL   H530 8472   7.041   6.274   6.191  0.2811 -0.0285 -0.1645
   12MOL   H531 8473   7.034   6.495   6.082  1.0424 -2.9076 -0.4628
   12MOL   H532 8474   6.903   6.391   6.038  0.5860 -1.1447 -0.5685
   12MOL   H533 8475   6.826   6.621   6.052  0.9871 -0.4637 -1.1975
   12MOL   H534 8476   6.890   6.632   6.209  2.5674 -2.6602  0.2838
   12MOL   H535 8477   6.699   6.491   6.301  1.0294  2.1401  0.8454
   12MOL   H536 8478   6.671   6.436   6.136  0.1029 -0.9340  0.1933
   12MOL   H537 8479   6.628   6.726   6.203  2.7485 -0.4307 -1.3006
   12MOL   H538 8480   6.592   6.647   6.066  1.9717  0.5225 -0.2594
   12MOL   H539 8481   6.454   6.557   6.318 -1.2415  0.4816  0.0203
   12MOL   H540 8482   6.906   6.485   6.798  2.0176  0.3996 -1.5551
   12MOL   H541 8483   6.810   6.687   6.926 -0.8381  0.8430 -0.3460
   12MOL   C542 8484   6.352   6.633   6.173 -0.6070  0.6587 -0.5116
   12MOL   O543 8485   6.340   6.691   6.067 -0.1464  0.0083  0.2670
   12MOL   C544 8486   6.227   6.584   6.240 -0.0817  0.1102 -0.3457
   12MOL   C545 8487   6.104   6.628   6.187 -0.3406 -0.1374 -0.3133
   12MOL   C546 8488   5.988   6.595   6.254  0.4790  0.8043  0.5566
   12MOL   C547 8489   5.991   6.515   6.373 -0.1144  0.1855  0.0855
   12MOL   C548 8490   5.853   6.491   6.437 -0.1535  0.0542 -0.9224
   12MOL   O549 8491   5.749   6.543   6.396  0.1209 -0.2102 -0.4576
   12MOL   N550 8492   5.852   6.391   6.526 -0.2303  0.6716  0.1480
   12MOL   C551 8493   5.735   6.337   6.587 -0.0182 -0.9176 -0.2707
   12MOL   C552 8494   5.769   6.226   6.694  0.4325 -0.2110  0.2537
   12MOL   C553 8495   5.650   6.169   6.776 -0.2300 -0.3616  0.8668
   12MOL   C554 8496   5.545   6.098   6.683 -0.1020  0.1040 -0.1716
   12MOL   C555 8497   5.440   6.004   6.748  0.0546  0.1654 -0.2018
   12MOL   C556 8498   5.311   5.982   6.658 -0.1673  0.2032  0.6306
   12MOL   N557 8499   5.195   5.969   6.738  0.2467  0.0477  0.0502
   12MOL   C558 8500   6.109   6.475   6.430  0.0264  0.1089  0.0446
   12MOL   C559 8501   6.228   6.502   6.360  0.3137 -0.0451  0.1655
   12MOL   H560 8502   6.092   6.696   6.104  0.0581 -0.1536 -0.3812
   12MOL   H561 8503   5.898   6.636   6.210  0.5372  1.6236  1.1951
   12MOL   H562 8504   5.939   6.344   6.547  1.5287  2.7234 -2.2708
   12MOL   H563 8505   5.687   6.424   6.632 -1.8344 -0.7179 -2.4868
   12MOL   H564 8506   5.667   6.305   6.508  0.7724  0.2026 -1.4327
   12MOL   H565 8507   5.852   6.263   6.754  0.8514  0.7584 -0.8950
   12MOL   H566 8508   5.819   6.142   6.645  0.3166  0.1294 -0.4554
   12MOL   H567 8509   5.687   6.096   6.847 -2.0036  0.0215  2.2215
   12MOL   H568 8510   5.586   6.242   6.825 -1.6723 -0.7331 -0.4161
   12MOL   H569 8511   5.594   6.048   6.600  0.2902  0.8441 -0.3891
   12MOL   H570 8512   5.488   6.171   6.625  0.2154 -0.7814 -1.6369
   12MOL   H571 8513   5.406   6.058   6.836  0.4195  0.0597  0.0019
   12MOL   H572 8514   5.484   5.913   6.787 -0.4475 -0.0396 -0.1056
   12MOL   H573 8515   5.302   6.057   6.579 -1.9985  0.3250  0.9403
   12MOL   H574 8516   5.307   5.896   6.590 -0.7521  1.4746 -0.9793
   12MOL   H575 8517   5.212   5.941   6.833 -2.0903  1.2205  0.8505
   12MOL   H576 8518   6.100   6.422   6.524 -2.1394 -0.4819 -0.4779
   12MOL   H577 8519   6.323   6.459   6.386 -0.4644 -2.0100 -0.1216
   12MOL   C578 8520   5.071   5.993   6.699  0.6304 -0.2246 -0.4836
   12MOL   O579 8521   5.037   6.027   6.584 -0.5658  0.3413 -0.5229
   12MOL   C580 8522   4.973   5.992   6.817  0.0800 -0.1471  0.2789
   12MOL   C581 8523   4.836   6.025   6.794 -0.0398  0.8337  0.1505
   12MOL   C582 8524   4.739   6.022   6.898 -0.0095 -0.4745  0.0973
   12MOL   C583 8525   4.786   6.000   7.030  0.0426 -0.1188 -0.0262
   12MOL   C584 8526   4.697   6.010   7.148  0.6280  0.2830 -0.4599
   12MOL   O585 8527   4.741   5.997   7.261  0.4401  0.7769 -0.1107
   12MOL   N586 8528   4.567   6.017   7.119  0.6372 -0.0787 -0.2737
   12MOL   C587 8529   4.459   6.024   7.220  0.1033  0.2389  0.6414
   12MOL   C588 8530   4.419   5.885   7.258 -0.0646  1.3585  0.2188
   12MOL   C589 8531   4.332   5.868   7.384 -0.0335  0.2844  0.1145
   12MOL   C590 8532   4.207   5.963   7.385 -0.3456  0.3965  0.0576
   12MOL   C591 8533   4.127   5.963   7.516  0.0430 -0.3278  0.1380
   12MOL   C592 8534   4.019   6.072   7.495  0.1559 -0.2869  0.2080
   12MOL   N593 8535   3.931   6.086   7.611 -0.1062 -0.3726 -0.0501
   12MOL   C594 8536   4.922   5.970   7.049  0.1270 -0.1481  0.1522
   12MOL   C595 8537   5.020   5.968   6.946  0.0958 -0.6814  0.2423
   12MOL   H596 8538   4.801   6.038   6.692  0.8699  0.0068 -0.2758
   12MOL   H597 8539   4.636   6.044   6.876  0.5341  3.5396  1.0587
   12MOL   H598 8540   4.540   6.010   7.022 -0.1374  1.0537 -0.1369
   12MOL   H599 8541   4.498   6.085   7.302 -0.3282  1.7719 -0.2734
   12MOL   H600 8542   4.378   6.085   7.180  2.2400  2.9724  0.3259
   12MOL   H601 8543   4.513   5.834   7.277  0.3123  1.8215 -0.3945
   12MOL   H602 8544   4.357   5.839   7.181 -0.5262 -0.2655  1.5183
   12MOL   H603 8545   4.300   5.765   7.402  0.6891  0.0651  0.1736
   12MOL   H604 8546   4.396   5.895   7.468 -0.3655  0.5557  0.2836
   12MOL   H605 8547   4.139   5.932   7.306 -1.3676 -3.6676  2.4132
   12MOL   H606 8548   4.234   6.067   7.369 -1.6107  0.3876 -2.4127
   12MOL   H607 8549   4.196   5.996   7.594  1.8511  0.5477 -1.7888
   12MOL   H608 8550   4.090   5.862   7.537 -0.8087  0.6323  3.6008
   12MOL   H609 8551   4.068   6.167   7.474 -1.1259  0.2358 -0.4436
   12MOL   H610 8552   3.954   6.058   7.409  1.2441  0.2993 -0.7131
   12MOL   H611 8553   3.848   6.029   7.604  0.6913 -1.4317 -1.0231
   12MOL   H612 8554   4.956   5.942   7.147  1.6914 -0.6854 -0.5270
   12MOL   H613 8555   5.122   5.951   6.975  0.8160  0.7206 -1.3964
   12MOL   C614 8556   3.956   6.152   7.723  0.2835  0.9285  0.1443
   12MOL   O615 8557   4.057   6.221   7.731  0.3449 -0.0117 -0.2238
   12MOL   C616 8558   3.861   6.129   7.835 -0.3129  0.2509 -0.2286
   12MOL   C617 8559   3.816   5.998   7.873 -0.3528  0.0071 -0.3703
   12MOL   C618 8560   3.729   5.979   0.103 -0.2507  0.0902 -0.1126
   12MOL   C619 8561   3.683   6.093   0.176  0.1821  0.7703  0.0645
   12MOL   C620 8562   3.579   6.080   0.281  0.5457  0.5250  0.2938
   12MOL   O621 8563   3.492   5.992   0.278 -0.4751 -0.1042 -0.5171
   12MOL   N622 8564   3.585   6.171   0.376  0.3258  0.1785  0.5250
   12MOL   C623 8565   3.478   6.201   0.471 -0.0697  0.0365  0.4407
   12MOL   C624 8566   3.489   6.129   0.612 -0.2108  0.2899  0.1024
   12MOL   C625 8567   3.399   6.214   0.704 -0.7632  0.7503  0.0476
   12MOL   C626 8568   3.389   6.166   0.848 -0.3611  0.5912  0.1569
   12MOL   C627 8569   3.286   6.249   0.926  0.0940  0.2080 -0.4200
   12MOL   C628 8570   3.268   6.218   1.077 -0.4524 -0.3582  0.2154
   12MOL   N629 8571   3.142   6.274   1.128 -0.1538 -0.3593 -0.3573
   12MOL   C630 8572   3.720   6.221   0.132 -0.6497 -0.1317 -0.6523
   12MOL   C631 8573   3.812   6.243   0.024 -0.2781 -0.1158  0.2958
   12MOL   H632 8574   3.863   5.909   7.834  2.0184 -1.0699  4.5682
   12MOL   H633 8575   3.697   5.884   0.144 -1.3452  0.5923  0.2304
   12MOL   H634 8576   3.655   6.244   0.366 -0.0750  0.5685  0.5540
   12MOL   H635 8577   3.482   6.309   0.485 -0.6306 -0.3241  3.9848
   12MOL   H636 8578   3.382   6.185   0.423 -1.1044  1.3849  1.9743
   12MOL   H637 8579   3.592   6.114   0.644 -0.0483  1.0159 -0.0676
   12MOL   H638 8580   3.452   6.027   0.603  3.4780 -1.3811  2.4709
   12MOL   H639 8581   3.460   6.304   0.707 -2.1929  1.7250  0.1636
   12MOL   H640 8582   3.299   6.222   0.660 -0.5951 -0.8942 -0.6751
   12MOL   H641 8583   3.491   6.181   0.884 -0.6644 -1.0729  1.7117
   12MOL   H642 8584   3.353   6.063   0.843  0.6462  0.2555 -0.2596
   12MOL   H643 8585   3.188   6.231   0.883 -1.1040  0.9742  1.9054
   12MOL   H644 8586   3.294   6.357   0.915 -2.6020  0.3152 -1.6952
   12MOL   H645 8587   3.277   6.110   1.086  0.1788 -0.2034  1.5496
   12MOL   H646 8588   3.351   6.262   1.132 -0.1878  0.1423 -0.5682
   12MOL   H647 8589   3.131   6.373   1.140 -2.2207 -0.7119  1.0250
   12MOL   H648 8590   3.684   6.311   0.180  2.0643 -0.5569  2.2976
   12MOL   H649 8591   3.846   6.343   0.004 -1.7416  0.1154 -1.1496
   12MOL   C650 8592   3.038   6.201   1.151 -0.1383  0.7057  0.1322
   12MOL   O651 8593   3.037   6.076   1.141  0.3395 -0.0215  0.1299
   12MOL   C652 8594   2.914   6.271   1.198 -0.4246  0.0189 -1.3598
   12MOL   C653 8595   2.923   6.377   1.290  0.0422 -0.6350  0.0547
   12MOL   C654 8596   2.800   6.432   1.338 -0.3815  0.8379  0.3305
   12MOL   C655 8597   2.674   6.394   1.295  0.4402  0.4448 -0.1303
   12MOL   C656 8598   2.547   6.461   1.341  0.4337  0.3647  0.1525
   12MOL   O657 8599   2.532   6.500   1.458 -0.0626 -0.5358  0.5148
   12MOL   N658 8600   2.451   6.480   1.248 -0.1753  0.0221 -1.0851
   12MOL   C659 8601   2.333   6.566   1.276  0.2669 -0.9441  0.1197
   12MOL   C660 8602   2.231   6.561   1.160  1.2143 -0.2841 -0.9941
   12MOL   C661 8603   2.092   6.603   1.198  0.0201  0.8370  0.1845
   12MOL   C662 8604   2.009   6.488   1.258  0.4333  0.2251 -0.2179
   12MOL   C663 8605   1.869   6.532   1.305 -0.2758  0.3374  0.3443
   12MOL   C664 8606   1.854   6.631   1.413 -0.8044 -0.2613 -0.5639
   12MOL   N665 8607   1.937   6.594   1.531 -0.2852 -0.7639  0.5146
   12MOL   C666 8608   2.672   6.295   1.190  0.5162  0.4039  0.5172
   12MOL   C667 8609   2.786   6.218   1.154 -0.0711 -0.5510  0.5295
   12MOL   H668 8610   3.022   6.395   1.330  1.2094 -1.0005 -2.5630
   12MOL   H669 8611   2.803   6.512   1.410 -3.1050  0.3789  1.0202
   12MOL   H670 8612   2.481   6.456   1.155  2.7710 -1.6242  0.2009
   12MOL   H671 8613   2.289   6.529   1.369  0.2080 -0.7321  0.1757
   12MOL   H672 8614   2.360   6.671   1.283 -1.1997 -0.6551  1.7846
   12MOL   H673 8615   2.241   6.456   1.129 -2.9152 -0.7905 -0.8937
   12MOL   H674 8616   2.258   6.618   1.071  1.9704 -0.5613 -0.9515
   12MOL   H675 8617   2.104   6.695   1.253 -0.0502  2.1461 -1.9264
   12MOL   H676 8618   2.034   6.629   1.109  0.7973  2.1535  0.0566
   12MOL   H677 8619   2.061   6.452   1.347  0.4820 -1.2674 -0.8306
   12MOL   H678 8620   1.995   6.404   1.190 -0.8642  1.3126 -1.3082
   12MOL   H679 8621   1.823   6.443   1.349  0.8294  0.3365  1.4919
   12MOL   H680 8622   1.805   6.554   1.219  1.1546  0.1138 -0.8108
   12MOL   H681 8623   1.871   6.733   1.378 -1.0727 -0.1363 -0.3256
   12MOL   H682 8624   1.753   6.637   1.453  0.1592  0.0209  1.8858
   12MOL   H683 8625   1.909   6.512   1.583  0.2747 -0.9231  0.5695
   12MOL   H684 8626   2.576   6.260   1.154 -0.1130  1.6023  1.0010
   12MOL   H685 8627   2.778   6.141   1.078  0.5140  0.4064 -0.5121
   12MOL   C686 8628   2.035   6.668   1.577  0.4481  0.3544  0.5515
   12MOL   O687 8629   2.082   6.761   1.508  0.1991 -0.1261 -0.2079
   12MOL   C688 8630   2.088   6.644   1.716  0.0881  0.1340  0.0350
   12MOL   C689 8631   2.000   6.619   1.822 -0.2008 -0.1086 -0.3543
   12MOL   C690 8632   2.053   6.607   1.953  0.0302  0.0832  0.2208
   12MOL   C691 8633   2.193   6.621   1.973  0.6549 -0.1568 -0.1805
   12MOL   C692 8634   2.246   6.608   2.108  0.0241  0.1979 -0.1590
   12MOL   O693 8635   2.359   6.569   2.125  0.3088  0.1715  0.2248
   12MOL   N694 8636   2.172   6.654   2.206  0.0757 -1.0001 -0.1308
   12MOL   C695 8637   2.216   6.677   2.348  0.5435  0.4721  0.1509
   12MOL   C696 8638   2.135   6.790   2.419  1.1360 -0.1973  0.1861
   12MOL   C697 8639   1.989   6.749   2.459 -0.5554  0.3897  0.4417
   12MOL   C698 8640   1.919   6.859   2.537 -0.0957 -0.0726 -0.2483
   12MOL   C699 8641   1.773   6.822   2.579  0.0912  0.0374 -0.0929
   12MOL   C700 8642   1.723   6.927   2.675 -0.6200 -0.0022 -0.4633
   12MOL   N701 8643   1.592   6.899   2.709 -1.2952  0.0312  0.3285
   12MOL   C702 8644   2.285   6.647   1.869  0.3830 -0.2921 -0.4554
   12MOL   C703 8645   2.232   6.650   1.739 -0.2563 -0.3086 -0.3118
   12MOL   H704 8646   1.896   6.607   1.795 -0.1850  2.7623 -1.9279
   12MOL   H705 8647   1.992   6.580   2.038  2.3942 -1.0711  1.5952
   12MOL   H706 8648   2.091   6.702   2.170  0.6251 -0.4351 -0.6350
   12MOL   H707 8649   2.197   6.580   2.393 -0.0187 -0.5312 -2.1753
   12MOL   H708 8650   2.321   6.704   2.356  0.8514 -0.3921 -0.9291
   12MOL   H709 8651   2.131   6.892   2.380 -1.4675  1.5568  4.6869
   12MOL   H710 8652   2.189   6.806   2.512 -2.0150  1.8139  1.7764
   12MOL   H711 8653   1.929   6.734   2.369 -0.4770 -1.9655  0.7400
   12MOL   H712 8654   1.982   6.653   2.510  0.1661 -0.0749 -0.3230
   12MOL   H713 8655   1.920   6.955   2.487 -2.1611  0.4706  0.7059
   12MOL   H714 8656   1.960   6.874   2.637 -1.9427 -1.8683  0.8294
   12MOL   H715 8657   1.769   6.719   2.615 -0.4382 -0.1018 -0.5361
   12MOL   H716 8658   1.714   6.831   2.488 -0.4351 -1.7433  0.0307
   12MOL   H717 8659   1.779   6.926   2.769 -1.9432 -2.5836  0.3223
   12MOL   H718 8660   1.727   7.031   2.640  1.0130  0.0052 -0.3248
   12MOL   H719 8661   1.540   6.903   2.623  0.3672  1.8092 -0.6173
   12MOL   H720 8662   2.392   6.650   1.878  0.4335 -2.0908 -0.2737
   12MOL   H721 8663   2.295   6.673   1.654 -1.4762 -0.3758 -1.2397
   12MOL   H722 8664   1.592   6.803   2.743 -1.2758 -0.4922 -1.1433
   13MOL     C1 8665   3.448   6.883   2.863 -0.1193  0.4947 -0.0188
   13MOL     O2 8666   3.428   6.880   2.990 -0.1171  0.2075  0.3837
   13MOL     C3 8667   3.547   6.807   2.797 -0.2366  0.7279  0.7877
   13MOL     C4 8668   3.640   6.729   2.866 -0.0157  0.0166  0.7768
   13MOL     C5 8669   3.744   6.669   2.790 -0.2616 -0.5405 -0.1831
   13MOL     C6 8670   3.750   6.676   2.647 -0.0626 -0.3897  0.0849
   13MOL     C7 8671   3.866   6.608   2.576 -0.2216  0.1217  0.3320
   13MOL     O8 8672   3.910   6.634   2.467 -0.2227  0.1037  0.1206
   13MOL     N9 8673   3.920   6.508   2.646 -0.1029 -0.5749 -0.4144
   13MOL    C10 8674   4.054   6.451   2.621 -0.0839  0.3831  0.1580
   13MOL    C11 8675   4.163   6.541   2.674 -0.4500 -0.0430  0.3170
   13MOL    C12 8676   4.151   6.613   2.807  0.0940  0.0828  0.2218
   13MOL    C13 8677   4.277   6.688   2.841 -0.3188 -0.5749 -0.1777
   13MOL    C14 8678   4.274   6.754   2.989  0.3901 -0.4845 -0.4493
   13MOL    C15 8679   4.218   6.898   2.993  0.0550  0.1608  0.3619
   13MOL    N16 8680   4.245   6.969   3.120  0.9343 -0.5290 -0.6334
   13MOL    C17 8681   3.649   6.743   2.580 -0.2437 -0.1935 -0.6568
   13MOL    C18 8682   3.550   6.812   2.653 -0.0073  0.1819 -0.0965
   13MOL    H19 8683   3.634   6.725   2.974 -1.1464 -1.7574  0.6618
   13MOL    H20 8684   3.829   6.643   2.852  0.3391  2.5823  0.4281
   13MOL    H21 8685   3.868   6.480   2.727  0.6716 -2.3643 -0.5131
   13MOL    H22 8686   4.054   6.356   2.675 -0.5090 -0.2336 -0.9120
   13MOL    H23 8687   4.059   6.412   2.519 -1.1081 -0.9264  0.5981
   13MOL    H24 8688   4.198   6.615   2.602  0.1941  0.8893  1.5540
   13MOL    H25 8689   4.249   6.475   2.684 -0.4588  0.1640  1.8811
   13MOL    H26 8690   4.065   6.679   2.807 -0.6101 -0.7472  3.2443
   13MOL    H27 8691   4.123   6.538   2.882  0.8775 -0.5092 -0.0631
   13MOL    H28 8692   4.316   6.764   2.772  1.0047 -1.1809 -0.1071
   13MOL    H29 8693   4.358   6.616   2.847  1.2491  1.2766  1.2626
   13MOL    H30 8694   4.381   6.757   3.006  0.1609  1.1363  0.8547
   13MOL    H31 8695   4.226   6.684   3.056  2.3229 -2.1329 -0.7603
   13MOL    H32 8696   4.255   6.963   2.913 -0.4132  1.2136  0.9922
   13MOL    H33 8697   4.114   6.878   2.971  0.3808 -0.6124 -0.5065
   13MOL    H34 8698   4.325   6.941   3.175  2.1506 -0.1443 -2.1704
   13MOL    H35 8699   3.654   6.752   2.472  2.3646  0.6038 -0.4956
   13MOL    H36 8700   3.483   6.881   2.603  1.9974  1.1012 -1.6125
   13MOL    H37 8701   3.385   6.935   2.791 -1.2768 -1.4091 -0.4196
   13MOL    C38 8702   4.179   7.077   3.165 -0.4141  0.0259 -0.6640
   13MOL    O39 8703   4.066   7.117   3.126  0.0660  0.0308  0.2422
   13MOL    C40 8704   4.238   7.144   3.293 -0.1096 -0.1485  0.6112
   13MOL    C41 8705   4.175   7.250   3.357 -0.3915 -0.6107  0.1608
   13MOL    C42 8706   4.241   7.317   3.462  0.1242 -0.0603  0.2422
   13MOL    C43 8707   4.375   7.283   3.501 -0.1819  0.4010 -0.1229
   13MOL    C44 8708   4.441   7.372   3.602  0.1093  0.1934  0.1471
   13MOL    O45 8709   4.385   7.475   3.647 -0.1335  0.4192  0.1114
   13MOL    N46 8710   4.565   7.335   3.640  0.0746  0.0299  0.3163
   13MOL    C47 8711   4.659   7.413   3.724  0.0358 -0.4619 -0.0766
   13MOL    C48 8712   4.805   7.409   3.667 -0.1371  0.0983  0.7472
   13MOL    C49 8713   4.908   7.488   3.751  0.1009  0.2757 -0.2708
   13MOL    C50 8714   5.025   7.548   3.676  0.6508  0.2682 -0.0188
   13MOL    C51 8715   4.996   7.667   3.589 -1.0090 -0.4950 -0.1619
   13MOL    C52 8716   5.112   7.756   3.554 -0.2382  0.2726  0.2368
   13MOL    N53 8717   5.063   7.856   3.464 -0.0407 -0.3990 -0.4960
   13MOL    C54 8718   4.437   7.169   3.446 -0.4704  0.2429  0.6240
   13MOL    C55 8719   4.366   7.103   3.341 -0.2700  0.1802 -0.4969
   13MOL    H56 8720   4.077   7.282   3.328 -0.0876 -0.5704 -0.8207
   13MOL    H57 8721   4.190   7.396   3.515  0.3882 -0.2095  0.7159
   13MOL    H58 8722   4.585   7.236   3.633  0.4987  0.2332 -1.3656
   13MOL    H59 8723   4.631   7.516   3.743  2.6093 -0.3410  3.5892
   13MOL    H60 8724   4.667   7.366   3.822  1.1121 -1.5884 -0.6941
   13MOL    H61 8725   4.811   7.433   3.561  2.4873  1.1661  1.1182
   13MOL    H62 8726   4.845   7.307   3.668  1.4088  0.7030  1.1740
   13MOL    H63 8727   4.858   7.566   3.809 -0.8576 -0.5318 -0.0092
   13MOL    H64 8728   4.948   7.421   3.827 -0.4164 -0.9917 -1.1063
   13MOL    H65 8729   5.060   7.468   3.610 -1.9512 -0.5532 -0.4732
   13MOL    H66 8730   5.101   7.572   3.751  1.7330 -0.0234 -1.0031
   13MOL    H67 8731   4.920   7.722   3.646  0.9946  2.0744  0.1139
   13MOL    H68 8732   4.945   7.630   3.500 -1.5491 -0.5562  0.1670
   13MOL    H69 8733   5.146   7.816   3.639 -0.4544  0.8891 -0.1055
   13MOL    H70 8734   5.196   7.697   3.517 -0.2918 -0.3284  1.0528
   13MOL    H71 8735   4.996   0.034   3.502  1.6317 -0.8992  3.6198
   13MOL    H72 8736   4.540   7.144   3.467  0.8490  1.7197 -3.4223
   13MOL    H73 8737   4.422   7.027   3.288  0.0200 -1.1243  1.6166
   13MOL    C74 8738   5.075   7.852   3.333  0.1061 -0.3895  0.4309
   13MOL    O75 8739   5.137   7.763   3.270  0.3336 -0.0530  0.1717
   13MOL    C76 8740   5.005   0.072   3.255 -0.2522  0.1016 -0.0380
   13MOL    C77 8741   4.988   0.052   3.118  0.4889 -0.8097 -0.1373
   13MOL    C78 8742   4.942   0.155   3.032  0.0811 -0.1720  0.2296
   13MOL    C79 8743   4.911   0.277   3.096  0.1161 -0.1407  0.4048
   13MOL    C80 8744   4.868   0.399   3.012  0.1524 -0.3457  0.5018
   13MOL    O81 8745   4.783   0.390   2.926  0.4849  0.3183 -0.6933
   13MOL    N82 8746   4.930   0.515   3.041  0.3052 -0.2132  0.0120
   13MOL    C83 8747   4.924   0.643   2.968 -0.2769  0.2577  0.5977
   13MOL    C84 8748   5.050   0.729   2.998 -0.0015  0.0848 -0.6762
   13MOL    C85 8749   5.083   0.851   2.919  0.8051 -0.0678 -0.2531
   13MOL    C86 8750   5.189   0.937   2.989  0.1349  0.0189 -0.4905
   13MOL    C87 8751   5.323   0.867   3.009 -0.9278  0.1221 -0.2150
   13MOL    C88 8752   5.421   0.962   3.076 -0.2856 -0.1553  0.5961
   13MOL    N89 8753   5.544   0.889   3.109  0.2076 -0.0959 -0.1515
   13MOL    C90 8754   4.919   0.294   3.233 -0.0534  0.4381  0.1349
   13MOL    C91 8755   4.969   0.194   3.315 -0.6582  0.1754  0.5848
   13MOL    H92 8756   5.015   7.847   3.066  1.1996 -0.5373 -0.2451
   13MOL    H93 8757   4.931   0.141   2.926 -0.0596 -3.1034  0.5979
   13MOL    H94 8758   4.997   0.514   3.116 -0.7578  0.0224  0.9665
   13MOL    H95 8759   4.915   0.626   2.861 -1.3477 -0.5287  0.7983
   13MOL    H96 8760   4.833   0.695   2.998 -1.5472 -1.4372 -0.2073
   13MOL    H97 8761   5.132   0.656   3.000  0.3013  0.4434  1.6793
   13MOL    H98 8762   5.051   0.753   3.105  0.6879 -2.3994 -0.0702
   13MOL    H99 8763   5.113   0.821   2.818  2.5520  0.2391  0.1473
   13MOL   H100 8764   4.997   0.916   2.907  0.8281 -0.4205 -2.4851
   13MOL   H101 8765   5.152   0.962   3.088  1.7045  0.2121  0.0551
   13MOL   H102 8766   5.203   1.025   2.925  0.5867 -0.2025 -0.6983
   13MOL   H103 8767   5.365   0.836   2.914  0.0238  0.6398  0.0249
   13MOL   H104 8768   5.309   0.779   3.073  0.4950 -0.6612 -0.9547
   13MOL   H105 8769   5.433   1.055   3.021  2.1639 -0.7018  0.1462
   13MOL   H106 8770   5.371   0.991   3.168  0.1091  3.6605 -0.2924
   13MOL   H107 8771   5.627   0.901   3.053  1.0491 -2.1619  0.5950
   13MOL   H108 8772   4.887   0.389   3.275 -0.3897  1.3927 -2.2172
   13MOL   H109 8773   4.980   0.206   3.421 -2.1305  1.2897  0.6284
   13MOL   C110 8774   5.565   0.802   3.212  0.0547  0.1668 -0.2341
   13MOL   O111 8775   5.479   0.767   3.286  0.1699  0.5981 -0.1979
   13MOL   C112 8776   5.698   0.741   3.214  0.2486 -0.0115  0.6912
   13MOL   C113 8777   5.758   0.700   3.096  0.1450 -0.0193  0.1976
   13MOL   C114 8778   5.888   0.643   3.099  0.3320  0.1636 -0.3942
   13MOL   C115 8779   5.969   0.643   3.218 -0.0885  0.6153 -0.0647
   13MOL   C116 8780   6.112   0.597   3.219 -0.7824 -0.4399 -0.5754
   13MOL   O117 8781   6.167   0.591   3.326 -0.0150 -0.1360 -0.3759
   13MOL   N118 8782   6.172   0.582   3.101 -0.5196 -0.4431 -0.2029
   13MOL   C119 8783   6.308   0.541   3.082 -0.0456  0.2605  0.3589
   13MOL   C120 8784   6.346   0.537   2.931 -0.1769 -0.6897  0.0547
   13MOL   C121 8785   6.365   0.669   2.866  0.6076 -0.5816 -0.5781
   13MOL   C122 8786   6.389   0.661   2.713 -0.1517  0.1609  0.1794
   13MOL   C123 8787   6.258   0.632   2.639 -0.1633 -0.2270  0.2997
   13MOL   C124 8788   6.170   0.760   2.611 -0.0898  0.0273 -0.6431
   13MOL   N125 8789   6.026   0.729   2.602 -0.0179 -0.0707 -0.3316
   13MOL   C126 8790   5.908   0.697   3.335  0.0545  0.8924 -0.1218
   13MOL   C127 8791   5.779   0.750   3.330  0.3243  0.2598  0.1228
   13MOL   H128 8792   5.710   0.706   3.000 -1.8958  0.7588  1.2504
   13MOL   H129 8793   5.931   0.604   3.008  2.3024  0.2274  0.4935
   13MOL   H130 8794   6.129   0.611   3.014  1.6982 -0.2677 -1.2833
   13MOL   H131 8795   6.377   0.606   3.135 -0.8436  0.4842  1.1256
   13MOL   H132 8796   6.326   0.445   3.129  0.0964  1.6865  3.3201
   13MOL   H133 8797   6.288   0.460   2.882  1.7646 -0.8149 -2.1341
   13MOL   H134 8798   6.446   0.493   2.934 -0.0872 -0.6222 -1.4738
   13MOL   H135 8799   6.276   0.726   2.892  2.2214  1.4566  0.6253
   13MOL   H136 8800   6.452   0.708   2.919 -0.4579 -0.7353  1.3257
   13MOL   H137 8801   6.465   0.587   2.690  1.0485  1.1424  0.8605
   13MOL   H138 8802   6.434   0.754   2.679  0.5249  0.0915  0.8730
   13MOL   H139 8803   6.202   0.550   2.684  1.9607 -0.8318  1.8802
   13MOL   H140 8804   6.285   0.601   2.539  0.9392  0.0564  0.5086
   13MOL   H141 8805   6.187   0.840   2.684  2.6858  0.0516 -1.2416
   13MOL   H142 8806   6.197   0.810   2.518  1.9907  2.5209  1.2140
   13MOL   H143 8807   5.991   0.692   2.515 -2.0631  1.0777 -0.0461
   13MOL   H144 8808   5.961   0.702   3.428 -0.5184  0.4903  0.2323
   13MOL   H145 8809   5.735   0.775   3.425 -0.0992  1.4437 -0.3689
   13MOL   C146 8810   5.942   0.751   2.705 -0.1727  0.4535  0.4489
   13MOL   O147 8811   5.987   0.794   2.815 -0.4940  0.3443  0.1803
   13MOL   C148 8812   5.795   0.733   2.680  0.0776 -0.0620 -0.2938
   13MOL   C149 8813   5.714   0.841   2.722  0.2765 -0.2437  0.6678
   13MOL   C150 8814   5.575   0.826   2.702  0.6051  0.4264  0.3812
   13MOL   C151 8815   5.517   0.710   2.648 -0.2056 -0.6589  0.4513
   13MOL   C152 8816   5.364   0.696   2.637  0.0544 -0.1474 -0.2728
   13MOL   O153 8817   5.297   0.798   2.629 -0.1370  0.1680 -0.1070
   13MOL   N154 8818   5.316   0.570   2.612  0.3847  0.2745  0.3089
   13MOL   C155 8819   5.173   0.540   2.602 -0.8709  0.1085  0.6377
   13MOL   C156 8820   5.138   0.532   2.454 -0.5223 -0.2375  0.0791
   13MOL   C157 8821   5.057   0.406   2.416 -0.1775 -0.3137  0.8205
   13MOL   C158 8822   5.001   0.415   2.272 -0.1944  0.8879 -0.5514
   13MOL   C159 8823   4.894   0.519   2.251  0.5029  0.0860 -0.2241
   13MOL   C160 8824   4.840   0.504   2.114 -0.1808 -0.0181  0.8877
   13MOL   N161 8825   4.724   0.589   2.087 -0.4948  0.6862  0.6296
   13MOL   C162 8826   5.601   0.608   2.608 -1.0974 -0.2496 -0.4224
   13MOL   C163 8827   5.738   0.619   2.615 -0.3490 -0.0742 -0.2087
   13MOL   H164 8828   5.753   0.932   2.765 -0.3037 -0.1044  0.9134
   13MOL   H165 8829   5.509   0.907   2.729  0.9000  0.7752  0.0639
   13MOL   H166 8830   5.380   0.492   2.606 -1.5655 -1.2747 -1.1393
   13MOL   H167 8831   5.158   0.446   2.655  1.2945 -1.1531 -0.9148
   13MOL   H168 8832   5.115   0.620   2.649 -0.2429 -0.4490  2.4002
   13MOL   H169 8833   5.230   0.532   2.396 -0.5516 -0.4320  0.0316
   13MOL   H170 8834   5.086   0.624   2.428 -1.3996 -0.1536  2.0741
   13MOL   H171 8835   5.118   0.317   2.427 -2.2091 -2.1143 -1.7426
   13MOL   H172 8836   4.976   0.419   2.487 -0.8364 -0.3241  0.0761
   13MOL   H173 8837   4.968   0.312   2.255  0.6625  0.2937  1.1600
   13MOL   H174 8838   5.082   0.426   2.201 -1.9418 -0.7217 -2.8555
   13MOL   H175 8839   4.930   0.620   2.268 -0.0163  0.3053 -0.3968
   13MOL   H176 8840   4.811   0.491   2.316  1.6673 -0.6208  0.9811
   13MOL   H177 8841   4.906   0.545   2.038  1.8932  0.1973  2.7376
   13MOL   H178 8842   4.801   0.406   2.086  0.9787  0.0282 -0.9442
   13MOL   H179 8843   4.722   0.668   2.025 -2.2205 -0.3534 -0.6897
   13MOL   H180 8844   5.554   0.521   2.565 -0.6598  0.1134 -1.6557
   13MOL   H181 8845   5.803   0.546   2.569 -0.0956  0.2724 -0.4063
   13MOL   C182 8846   4.602   0.590   2.149 -0.7168  0.5694  0.2124
   13MOL   O183 8847   4.579   0.517   2.240  0.3104  0.1302  0.9568
   13MOL   C184 8848   4.506   0.690   2.096 -0.5646 -0.5223 -0.7267
   13MOL   C185 8849   4.545   0.815   2.041  0.1203 -0.1210  0.0115
   13MOL   C186 8850   4.443   0.895   1.983  0.3507 -0.2881 -0.5048
   13MOL   C187 8851   4.307   0.853   1.978  0.4620 -1.3655  0.0582
   13MOL   C188 8852   4.195   0.951   1.938  0.1530 -0.4968  0.2685
   13MOL   O189 8853   4.219   1.044   1.859 -0.9221  0.1742  0.3573
   13MOL   N190 8854   4.080   0.945   2.005  0.1518  0.2915 -0.8976
   13MOL   C191 8855   3.961   1.020   1.991 -0.3961  0.1839 -0.3461
   13MOL   C192 8856   3.845   0.937   1.936  0.0198  0.5371 -0.7183
   13MOL   C193 8857   3.865   0.908   1.783 -0.5432 -0.9401  0.4755
   13MOL   C194 8858   3.929   0.770   1.754  0.2637  0.3595  0.2838
   13MOL   C195 8859   3.969   0.755   1.607 -0.3676  0.3033  0.0869
   13MOL   C196 8860   4.098   0.835   1.576 -0.0721  0.3624 -0.3306
   13MOL   N197 8861   4.223   0.765   1.605  0.0866  1.0772 -0.1336
   13MOL   C198 8862   4.272   0.733   2.040  0.0374  0.5992 -0.1610
   13MOL   C199 8863   4.369   0.655   2.097 -0.4541  0.7330 -0.3446
   13MOL   H200 8864   4.642   0.861   2.053 -0.3678  0.6477  1.0278
   13MOL   H201 8865   4.477   0.987   1.937 -0.3578 -0.0668 -0.5928
   13MOL   H202 8866   4.073   0.867   2.069  2.4256  0.9163  0.1385
   13MOL   H203 8867   3.936   1.049   2.093 -3.1219  1.8811 -1.4169
   13MOL   H204 8868   3.965   1.119   1.945 -0.9559  1.1605  1.6185
   13MOL   H205 8869   3.765   1.010   1.948 -1.7072 -1.6158  1.3147
   13MOL   H206 8870   3.820   0.855   2.002  1.9155 -0.1236 -0.7844
   13MOL   H207 8871   3.770   0.926   1.732 -0.2197  0.3536  0.2885
   13MOL   H208 8872   3.918   0.989   1.732 -0.9848 -0.3734  0.9095
   13MOL   H209 8873   3.859   0.691   1.782  1.2044 -0.8250 -0.6566
   13MOL   H210 8874   4.015   0.751   1.819 -0.0014  1.0952  0.8630
   13MOL   H211 8875   3.889   0.778   1.537  1.1387  1.6242 -1.2606
   13MOL   H212 8876   3.993   0.652   1.582  0.0354  0.9028 -2.1542
   13MOL   H213 8877   4.096   0.825   1.468 -2.4729 -1.1160 -0.1896
   13MOL   H214 8878   4.095   0.943   1.590 -1.2878  0.3313 -0.3112
   13MOL   H215 8879   4.226   0.669   1.636  1.1170  0.5270 -1.8946
   13MOL   H216 8880   4.173   0.690   2.034  0.0899  0.2558  1.3599
   13MOL   H217 8881   4.331   0.573   2.156  0.0131 -0.3959 -1.6011
   13MOL   C218 8882   4.343   0.818   1.602  1.0137 -0.2930  0.1959
   13MOL   O219 8883   4.372   0.925   1.550  0.2208  0.1167  0.3009
   13MOL   C220 8884   4.450   0.735   1.656 -0.1173  0.5238  0.3553
   13MOL   C221 8885   4.579   0.760   1.615 -0.4595 -0.2794 -0.3708
   13MOL   C222 8886   4.689   0.676   1.650  0.4068 -0.1454 -0.3298
   13MOL   C223 8887   4.665   0.556   1.724 -0.5705 -0.4879  0.4344
   13MOL   C224 8888   4.775   0.452   1.748  0.1710 -0.0510  0.3818
   13MOL   O225 8889   4.748   0.359   1.823 -0.1511  0.0711 -0.2258
   13MOL   N226 8890   4.882   0.467   1.672  0.4036 -0.4436 -0.1074
   13MOL   C227 8891   4.997   0.378   1.689  0.0329  0.4570 -0.7025
   13MOL   C228 8892   5.021   0.276   1.575  0.0664  0.0687 -0.1680
   13MOL   C229 8893   4.898   0.187   1.548  0.6569  0.5960 -0.0109
   13MOL   C230 8894   4.926   0.066   1.453 -0.1407  0.7228  0.0464
   13MOL   C231 8895   4.803   7.863   1.414 -0.3596 -0.7086 -0.1542
   13MOL   C232 8896   4.821   7.747   1.317 -0.5003 -0.5113  0.1422
   13MOL   N233 8897   4.860   7.785   1.186 -0.5333  0.2350 -0.0550
   13MOL   C234 8898   4.540   0.540   1.775  0.1320  0.2274 -0.3904
   13MOL   C235 8899   4.430   0.619   1.737 -0.3051  0.5212  0.6177
   13MOL   H236 8900   4.601   0.841   1.547  3.5012 -1.0019 -0.0787
   13MOL   H237 8901   4.790   0.701   1.621  1.0466 -0.9629  1.1276
   13MOL   H238 8902   4.891   0.533   1.596 -0.2724  0.4435  0.5641
   13MOL   H239 8903   5.084   0.444   1.689  0.4969 -0.1506  0.1117
   13MOL   H240 8904   4.996   0.328   1.785  1.1904 -2.0191 -1.9492
   13MOL   H241 8905   5.104   0.214   1.609  0.1075  0.0728 -0.2589
   13MOL   H242 8906   5.061   0.317   1.482 -0.0855 -1.2962 -0.8525
   13MOL   H243 8907   4.865   0.156   1.648  0.7170 -1.1756 -0.5296
   13MOL   H244 8908   4.815   0.249   1.516 -1.0443  0.0105  3.0472
   13MOL   H245 8909   4.999   7.880   1.490  0.4773  0.3719 -1.8498
   13MOL   H246 8910   4.962   0.105   1.358  1.1784 -2.9612 -1.0697
   13MOL   H247 8911   4.722   0.043   1.383  0.8042 -0.1730 -2.1461
   13MOL   H248 8912   4.773   7.829   1.513  0.4748 -1.4101 -0.1413
   13MOL   H249 8913   4.897   7.681   1.358 -2.3112 -3.3710 -0.9401
   13MOL   H250 8914   4.733   7.683   1.309  0.3313 -1.6333 -0.1899
   13MOL   H251 8915   4.959   7.771   1.168 -0.6419 -0.5525 -0.0278
   13MOL   H252 8916   4.523   0.463   1.849 -2.0792  0.1892 -0.9161
   13MOL   H253 8917   4.336   0.592   1.782 -0.1782 -1.3167 -0.1801
   13MOL   C254 8918   4.780   7.826   1.081  0.6729  0.0675 -0.5916
   13MOL   O255 8919   4.658   7.856   1.093  0.0460  0.3394  0.2149
   13MOL   C256 8920   4.850   7.845   0.952 -0.4487 -0.1001 -0.3088
   13MOL   C257 8921   4.786   0.017   0.845  0.2564  0.5883  0.4907
   13MOL   C258 8922   4.847   0.035   0.721  0.5036  0.2221  0.1945
   13MOL   C259 8923   4.978   7.883   0.699  0.3036 -0.1121 -0.2964
   13MOL   C260 8924   5.051   0.007   0.567  0.5363 -0.0179  0.0840
   13MOL   O261 8925   5.148   7.826   0.539 -0.1417 -0.4818 -0.5716
   13MOL   N262 8926   4.998   0.092   0.481  0.5252 -1.2275  0.0830
   13MOL   C263 8927   5.051   0.124   0.349 -0.0638 -0.2471  0.7973
   13MOL   C264 8928   5.063   0.275   0.336 -0.2655  0.2470  0.4137
   13MOL   C265 8929   5.095   0.344   0.470 -0.0971  0.2296  0.1725
   13MOL   C266 8930   5.141   0.487   0.438  0.0036  0.8333 -0.0639
   13MOL   C267 8931   5.157   0.571   0.571  0.4845 -0.0698 -0.5021
   13MOL   C268 8932   5.024   0.632   0.619  0.3833 -0.0086  0.5719
   13MOL   N269 8933   5.056   0.726   0.731 -0.4020  0.3513  0.1502
   13MOL   C270 8934   5.042   7.820   0.810 -0.5703 -0.6735 -0.3071
   13MOL   C271 8935   4.988   7.803   0.936 -0.5673 -0.5060  0.1778
   13MOL   H272 8936   4.686   0.053   0.863  0.2780  1.4229 -0.9882
   13MOL   H273 8937   4.780   0.076   0.646  0.1854 -4.2032 -2.0959
   13MOL   H274 8938   4.915   0.140   0.512  0.7180 -2.0476  1.9353
   13MOL   H275 8939   5.153   0.087   0.340 -0.5332 -1.8072  1.6416
   13MOL   H276 8940   4.987   0.095   0.265  1.8373  1.5378 -1.3597
   13MOL   H277 8941   4.963   0.311   0.311 -0.1048  0.0264 -0.5569
   13MOL   H278 8942   5.127   0.306   0.254 -1.5501  1.1344 -0.2806
   13MOL   H279 8943   5.010   0.343   0.539  1.0721 -1.4892  1.6514
   13MOL   H280 8944   5.173   0.294   0.528  1.9929  1.8067 -1.2058
   13MOL   H281 8945   5.086   0.546   0.365  0.7494  1.5017 -0.0923
   13MOL   H282 8946   5.237   0.471   0.389  0.8073 -1.0673  2.0107
   13MOL   H283 8947   5.230   0.647   0.544 -1.5555  1.6103 -1.5460
   13MOL   H284 8948   5.192   0.510   0.654 -1.8979 -0.1608  0.4753
   13MOL   H285 8949   4.967   0.674   0.537  2.0937  0.2785 -0.4846
   13MOL   H286 8950   4.960   0.551   0.653 -1.6144  0.6241 -1.5826
   13MOL   H287 8951   5.119   0.696   0.805 -2.2592 -2.3357  0.7087
   13MOL   H288 8952   5.142   7.784   0.792 -0.2586 -0.0506  0.1360
   13MOL   H289 8953   5.054   7.751   1.004  0.8285  2.5638  1.2525
   13MOL   C290 8954   5.014   0.848   0.735 -0.9092  0.0853  0.0854
   13MOL   O291 8955   4.915   0.891   0.668  0.4024 -0.3152 -0.7205
   13MOL   C292 8956   5.087   0.940   0.826  0.6636 -0.2248 -0.2234
   13MOL   C293 8957   5.009   1.005   0.923 -0.5355  0.8646 -0.2077
   13MOL   C294 8958   5.077   1.082   1.020  0.4183 -1.1203 -0.3200
   13MOL   C295 8959   5.213   1.095   1.018 -0.3962 -0.0460 -0.1019
   13MOL   C296 8960   5.287   1.171   1.123  0.4278 -0.3848  0.2957
   13MOL   O297 8961   5.390   1.130   1.169  0.4122 -0.2368  0.4571
   13MOL   N298 8962   5.240   1.292   1.165 -0.0231  0.0400  0.9335
   13MOL   C299 8963   5.316   1.375   1.257  0.1670  0.6491 -0.0836
   13MOL   C300 8964   5.279   1.330   1.396  0.0077 -0.7276 -0.0434
   13MOL   C301 8965   5.131   1.354   1.440  0.5168  0.5853 -0.5263
   13MOL   C302 8966   5.052   1.236   1.502 -0.1353 -0.2349  0.4331
   13MOL   C303 8967   4.899   1.269   1.501  0.6528  0.2188 -0.1057
   13MOL   C304 8968   4.826   1.146   1.556  0.0179 -0.6003  0.0463
   13MOL   N305 8969   4.858   1.100   1.693 -0.6129  0.1513  0.8098
   13MOL   C306 8970   5.290   1.026   0.920  0.3636  0.0261 -0.4091
   13MOL   C307 8971   5.226   0.951   0.824  0.4571 -0.2037 -0.5123
   13MOL   H308 8972   4.904   0.982   0.939  0.0888 -1.1700  1.1328
   13MOL   H309 8973   5.026   1.126   1.104  1.1535 -0.9435  0.0409
   13MOL   H310 8974   5.151   1.326   1.132  1.2910  2.8401  0.1404
   13MOL   H311 8975   5.420   1.376   1.225  0.2382 -1.7502  0.0275
   13MOL   H312 8976   5.293   1.481   1.242  0.4640  1.1603  2.6350
   13MOL   H313 8977   5.336   1.385   1.472  0.2290 -1.9937  0.7121
   13MOL   H314 8978   5.313   1.229   1.414  0.0750 -0.5597  0.8208
   13MOL   H315 8979   5.125   1.440   1.507 -1.8027  0.5626 -0.6663
   13MOL   H316 8980   5.085   1.389   1.348 -0.3189  0.3533 -0.2030
   13MOL   H317 8981   5.095   1.212   1.599 -1.5369  0.3683  1.2207
   13MOL   H318 8982   5.063   1.148   1.438 -2.0646 -0.2208  0.0560
   13MOL   H319 8983   4.870   1.276   1.397 -0.5431  0.9515  0.2730
   13MOL   H320 8984   4.866   1.361   1.549 -3.2471 -0.1030 -1.9632
   13MOL   H321 8985   4.718   1.159   1.550 -0.0842  0.5994  3.6847
   13MOL   H322 8986   4.838   1.059   1.491 -0.2889  1.2259 -2.4993
   13MOL   H323 8987   4.836   1.161   1.770 -0.7082 -0.6803  1.4443
   13MOL   H324 8988   5.397   1.024   0.927  0.3341  0.6993  0.3799
   13MOL   H325 8989   5.287   0.896   0.754  1.4260 -0.5202  0.5511
   13MOL   C326 8990   4.912   0.983   1.728  0.1346 -0.2620  0.0550
   13MOL   O327 8991   4.942   0.903   1.642 -0.3861  0.2714 -0.0823
   13MOL   C328 8992   4.921   0.952   1.878  0.0269  0.8711  0.3772
   13MOL   C329 8993   4.846   1.037   1.967 -0.0069 -0.3531  0.7830
   13MOL   C330 8994   4.848   1.016   2.106  0.1775 -0.2181 -0.0952
   13MOL   C331 8995   4.939   0.912   2.152  0.7244 -0.1658 -0.7947
   13MOL   C332 8996   4.961   0.896   2.299  0.0635  0.0135  0.4368
   13MOL   O333 8997   5.070   0.852   2.338 -0.1281 -0.4035  0.0225
   13MOL   N334 8998   4.855   0.930   2.372  0.5197  0.5396  0.1190
   13MOL   C335 8999   4.858   0.925   2.516  0.9230  0.3954 -0.3723
   13MOL   C336 9000   4.723   0.886   2.580 -0.1098  0.2920  0.2816
   13MOL   C337 9001   4.738   0.888   2.737  0.0841 -0.3066 -0.1718
   13MOL   C338 9002   4.703   1.033   2.791  0.1523  0.2966 -0.3510
   13MOL   C339 9003   4.702   1.032   2.941 -0.7307  0.6189  0.2372
   13MOL   C340 9004   4.727   1.170   3.004  0.2678 -0.1088 -0.5454
   13MOL   N341 9005   4.868   1.199   3.019 -0.2064  0.1392 -0.2796
   13MOL   C342 9006   5.013   0.831   2.065 -0.5079  0.3289  0.5766
   13MOL   C343 9007   4.994   0.847   1.925  0.1967 -0.0362 -0.4533
   13MOL   H344 9008   4.785   1.115   1.924 -0.0138  0.3892  2.1105
   13MOL   H345 9009   4.802   1.081   2.179 -0.8364  2.4835 -3.0256
   13MOL   H346 9010   4.777   0.976   2.327 -2.1056 -3.4606  0.2673
   13MOL   H347 9011   4.936   0.863   2.559  0.2172  0.1401  0.5551
   13MOL   H348 9012   4.879   1.028   2.546  0.4307  0.8545 -1.5440
   13MOL   H349 9013   4.720   0.781   2.553 -0.4820  0.2692  0.4046
   13MOL   H350 9014   4.639   0.948   2.547 -1.4984 -0.1788  2.7783
   13MOL   H351 9015   4.678   0.809   2.781 -0.4265 -0.4666 -1.1467
   13MOL   H352 9016   4.845   0.870   2.749  0.5287  0.1648 -2.9119
   13MOL   H353 9017   4.606   1.062   2.750 -1.1347 -1.2928  1.4621
   13MOL   H354 9018   4.771   1.108   2.752  1.8236  0.0856  2.0177
   13MOL   H355 9019   4.779   0.960   2.970 -0.2002  0.3474 -1.7882
   13MOL   H356 9020   4.605   0.995   2.973 -0.0162 -1.3500  0.2331
   13MOL   H357 9021   4.679   1.248   2.944 -0.6574 -0.2195  0.0418
   13MOL   H358 9022   4.673   1.169   3.099 -2.3976  1.7321 -1.9689
   13MOL   H359 9023   4.906   1.268   2.956 -0.4926  0.3451 -0.2291
   13MOL   H360 9024   5.077   0.755   2.107  0.9279  0.2215 -1.7631
   13MOL   H361 9025   5.041   0.789   1.846  2.5828  1.7314 -0.3999
   13MOL   C362 9026   4.932   1.168   3.129 -0.0730  0.5335 -0.1417
   13MOL   O363 9027   4.888   1.101   3.219  0.3033  0.2061  0.2133
   13MOL   C364 9028   5.066   1.233   3.153  0.2661  0.3569 -0.7075
   13MOL   C365 9029   5.128   1.239   3.282  0.2162  0.1413 -0.4508
   13MOL   C366 9030   5.256   1.301   3.300  0.3274  0.0969 -0.5927
   13MOL   C367 9031   5.331   1.344   3.187 -0.3697 -0.0835  0.4104
   13MOL   C368 9032   5.475   1.396   3.206 -0.0843  0.4290  0.1429
   13MOL   O369 9033   5.526   1.402   3.318 -0.5156  0.1681 -0.8205
   13MOL   N370 9034   5.538   1.432   3.088  0.2623  0.1385 -0.1640
   13MOL   C371 9035   5.681   1.457   3.066  0.1715 -0.0129  0.4999
   13MOL   C372 9036   5.727   1.408   2.926  0.0092  0.2058  0.2318
   13MOL   C373 9037   5.704   1.260   2.896  1.1029 -0.3189  0.5804
   13MOL   C374 9038   5.756   1.156   2.997 -0.5137  0.0010  0.4399
   13MOL   C375 9039   5.909   1.161   2.993  0.2845 -0.1885 -0.0701
   13MOL   C376 9040   5.984   1.072   3.095  0.6959 -0.2188 -0.7479
   13MOL   N377 9041   5.924   1.086   3.232  0.4726 -0.1201  0.2079
   13MOL   C378 9042   5.264   1.348   3.065 -0.0563  0.0171 -0.7301
   13MOL   C379 9043   5.136   1.300   3.044  0.1107  0.2889  0.0908
   13MOL   H380 9044   5.081   1.194   3.369 -0.7002  0.2646 -0.8762
   13MOL   H381 9045   5.295   1.301   3.401 -1.4307 -0.6259  0.1005
   13MOL   H382 9046   5.477   1.469   3.017  0.3509  1.5691  0.4966
   13MOL   H383 9047   5.690   1.564   3.086 -1.7438  0.0288  1.2792
   13MOL   H384 9048   5.736   1.406   3.145  2.5001  1.3431 -0.1927
   13MOL   H385 9049   5.835   1.424   2.922 -0.2638  4.0047  4.2323
   13MOL   H386 9050   5.672   1.460   2.848 -0.9248  0.2315  0.9027
   13MOL   H387 9051   5.597   1.242   2.886  1.0081 -0.4510  1.8112
   13MOL   H388 9052   5.734   1.230   2.796  0.3424  0.0004  0.2496
   13MOL   H389 9053   5.725   1.063   2.950 -0.2530  0.3326 -0.3952
   13MOL   H390 9054   5.720   1.163   3.100 -2.9193  0.4766 -0.3971
   13MOL   H391 9055   5.942   1.263   3.011 -0.8040  0.1273  0.1408
   13MOL   H392 9056   5.932   1.129   2.891  1.0375  2.5741 -0.7892
   13MOL   H393 9057   5.969   0.966   3.075  0.3208  0.0079 -1.6848
   13MOL   H394 9058   6.091   1.089   3.103  0.3717  1.3175  0.6257
   13MOL   H395 9059   5.868   1.010   3.267  0.5017 -0.3190 -0.1770
   13MOL   H396 9060   5.328   1.377   2.983  2.8806 -2.5867  0.5294
   13MOL   H397 9061   5.098   1.308   2.943  1.0689 -1.0378 -0.3931
   13MOL   C398 9062   5.956   1.171   3.323 -0.6031 -0.0639 -0.0303
   13MOL   O399 9063   6.033   1.269   3.306 -0.0685  0.3319  0.1255
   13MOL   C400 9064   5.896   1.155   3.464  0.4393  0.1239  0.7347
   13MOL   C401 9065   5.878   1.027   3.520 -0.1542  0.8437 -0.0502
   13MOL   C402 9066   5.839   1.004   3.657 -1.0063  0.0413 -0.0899
   13MOL   C403 9067   5.812   1.118   3.732  0.6354 -0.8256 -0.0231
   13MOL   C404 9068   5.759   1.100   3.872  0.0001 -0.2714 -0.2856
   13MOL   O405 9069   5.823   1.024   3.948  0.4065  0.6493  0.0262
   13MOL   N406 9070   5.651   1.166   3.906  0.4608 -0.1590 -0.5076
   13MOL   C407 9071   5.581   1.141   4.032  0.5392 -0.0575 -0.3109
   13MOL   C408 9072   5.654   1.209   4.144  0.0066 -0.1850 -0.0870
   13MOL   C409 9073   5.659   1.361   4.123 -0.5941 -0.8488  0.4457
   13MOL   C410 9074   5.680   1.443   4.246  0.5183 -0.0952 -0.2614
   13MOL   C411 9075   5.666   1.586   4.217  0.0002  0.4642 -0.0119
   13MOL   C412 9076   5.530   1.646   4.172  0.9319 -0.6978 -0.2969
   13MOL   N413 9077   5.545   1.788   4.141  0.3011  0.4667  0.7585
   13MOL   C414 9078   5.819   1.248   3.679  0.4972 -0.0637 -0.5302
   13MOL   C415 9079   5.865   1.272   3.545 -0.0818 -0.4479  0.8983
   13MOL   H416 9080   5.902   0.940   3.461  2.0620  0.8731  0.7749
   13MOL   H417 9081   5.834   0.902   3.692 -0.5040 -0.2657 -0.9063
   13MOL   H418 9082   5.602   1.225   3.840 -2.4128 -1.2297  0.5791
   13MOL   H419 9083   5.490   1.195   4.010  0.0563 -0.4777  0.6190
   13MOL   H420 9084   5.558   1.038   4.059 -1.2527  0.2944 -0.4327
   13MOL   H421 9085   5.750   1.163   4.168 -0.5635 -1.3792 -0.0689
   13MOL   H422 9086   5.591   1.187   4.230 -1.2250  0.1528 -0.8910
   13MOL   H423 9087   5.732   1.381   4.044 -3.8203 -0.8082 -2.6051
   13MOL   H424 9088   5.564   1.383   4.074  0.1701  0.0307 -0.6951
   13MOL   H425 9089   5.775   1.425   4.296 -0.0014  0.1652  0.8264
   13MOL   H426 9090   5.603   1.410   4.315  1.6776  0.1189  1.1576
   13MOL   H427 9091   5.743   1.603   4.142  1.2290 -1.9235  0.6502
   13MOL   H428 9092   5.704   1.634   4.308  1.4914 -0.1776 -0.2719
   13MOL   H429 9093   5.497   1.599   4.079 -1.8112  2.6732 -1.1070
   13MOL   H430 9094   5.456   1.628   4.249  0.0587  2.0298 -0.4696
   13MOL   H431 9095   5.640   1.815   4.122 -0.0692  1.3811  0.1815
   13MOL   H432 9096   5.774   1.325   3.739  3.7040 -0.0841  2.0315
   13MOL   H433 9097   5.869   1.371   3.502  1.0346 -0.3419  1.2092
   13MOL   C434 9098   5.444   1.876   4.137 -0.4764  0.3060 -0.4287
   13MOL   O435 9099   5.328   1.840   4.165 -0.0956  0.3947  0.4028
   13MOL   C436 9100   5.480   2.013   4.093  0.9046  0.7381  0.9948
   13MOL   C437 9101   5.514   2.030   3.958  0.2976 -0.4854  0.4918
   13MOL   C438 9102   5.534   2.154   3.905 -0.4460  0.5247 -0.0739
   13MOL   C439 9103   5.529   2.265   3.992 -0.7083 -0.8808 -0.0660
   13MOL   C440 9104   5.568   2.405   3.946 -0.3437  0.4467 -0.5998
   13MOL   O441 9105   5.528   2.508   3.998 -0.0472 -0.2837 -0.2318
   13MOL   N442 9106   5.652   2.405   3.843 -0.0364  0.1278  0.1663
   13MOL   C443 9107   5.718   2.526   3.797  0.4801 -0.2171  0.3229
   13MOL   C444 9108   5.633   2.608   3.696  0.6669  0.1285 -0.1626
   13MOL   C445 9109   5.705   2.725   3.627 -0.1204  0.2514 -0.6128
   13MOL   C446 9110   5.729   2.841   3.724  0.3338  0.7567  0.5530
   13MOL   C447 9111   5.831   2.954   3.679 -0.7038  0.2222 -0.3406
   13MOL   C448 9112   5.846   3.085   3.756 -0.5151 -0.2600  0.2161
   13MOL   N449 9113   5.932   3.188   3.695  0.2935  0.8802  0.2026
   13MOL   C450 9114   5.506   2.245   4.133  0.2445  0.4123 -0.6755
   13MOL   C451 9115   5.473   2.119   4.182 -0.2455 -0.1049  0.3413
   13MOL   H452 9116   5.515   1.943   3.895 -0.9564  1.0265 -1.7162
   13MOL   H453 9117   5.561   2.159   3.801  0.9439 -0.8533  0.1990
   13MOL   H454 9118   5.685   2.316   3.808  1.5937  1.2682 -1.2753
   13MOL   H455 9119   5.749   2.587   3.882  2.5140 -0.4842 -0.2052
   13MOL   H456 9120   5.808   2.491   3.747 -0.6283  1.4911 -2.9490
   13MOL   H457 9121   5.558   2.660   3.755  1.6640  1.0362  0.3231
   13MOL   H458 9122   5.592   2.545   3.617 -1.1359  0.5404  0.4334
   13MOL   H459 9123   5.798   2.698   3.578 -0.5749 -1.4114 -0.6156
   13MOL   H460 9124   5.649   2.760   3.540  0.9896  0.2469 -1.3427
   13MOL   H461 9125   5.763   2.804   3.820 -0.1615 -1.5334 -0.1382
   13MOL   H462 9126   5.634   2.886   3.751 -0.3450 -0.7007  0.6130
   13MOL   H463 9127   5.811   2.986   3.577  1.0009 -1.1776 -1.1374
   13MOL   H464 9128   5.930   2.910   3.681 -0.9484 -0.3551 -0.8656
   13MOL   H465 9129   5.743   3.116   3.775 -0.3191 -0.5727  1.8361
   13MOL   H466 9130   5.899   3.071   3.850  1.6023  3.4489 -0.3166
   13MOL   H467 9131   5.964   3.167   3.602  0.0603  0.9875  0.0995
   13MOL   H468 9132   5.511   2.329   4.200 -1.4447 -0.0504  0.0470
   13MOL   H469 9133   5.453   2.113   4.288  0.5751 -1.3500  0.4329
   13MOL   C470 9134   5.966   3.299   3.760  0.0224  0.6690 -0.5411
   13MOL   O471 9135   5.920   3.327   3.867  1.1003 -0.6362  0.4473
   13MOL   C472 9136   6.058   3.400   3.694 -0.4126 -0.0320  0.0753
   13MOL   C473 9137   6.132   3.369   3.579  0.2104 -0.1142  0.2545
   13MOL   C474 9138   6.208   3.469   3.515 -0.5634  0.5642 -0.0225
   13MOL   C475 9139   6.210   3.603   3.559  0.5009 -0.0180  0.0128
   13MOL   C476 9140   6.308   3.699   3.494  0.6039 -0.0208  0.6901
   13MOL   O477 9141   6.404   3.665   3.428 -0.1486  0.3284  0.9626
   13MOL   N478 9142   6.282   3.822   3.515 -0.1067  0.1436  0.1872
   13MOL   C479 9143   6.336   3.935   3.439  0.7171  0.5298  0.5636
   13MOL   C480 9144   6.246   3.968   3.318  0.5692 -0.6111  0.0326
   13MOL   C481 9145   6.314   4.064   3.222  0.2728  0.8647 -0.2694
   13MOL   C482 9146   6.240   4.096   3.097 -0.4202  0.0976  0.8663
   13MOL   C483 9147   6.328   4.172   2.995 -0.5804  0.0004 -0.5921
   13MOL   C484 9148   6.264   4.168   2.850 -0.4355 -0.0513  0.1297
   13MOL   N485 9149   6.306   4.050   2.776 -0.1984 -0.0810  0.5964
   13MOL   C486 9150   6.132   3.635   3.675  0.4499  0.4908  0.2270
   13MOL   C487 9151   6.066   3.532   3.745  0.4054  0.4938  0.1245
   13MOL   H488 9152   6.121   3.266   3.548  0.6583  0.5766 -2.3127
   13MOL   H489 9153   6.266   3.429   3.432 -0.8986 -0.9461  0.4531
   13MOL   H490 9154   6.193   3.836   3.560 -0.6030  0.9217 -1.0084
   13MOL   H491 9155   6.359   4.015   3.510 -1.2235  2.0694 -0.5053
   13MOL   H492 9156   6.427   3.897   3.392 -0.9244 -1.4296 -1.1221
   13MOL   H493 9157   6.160   4.020   3.359  1.5596  1.7008 -0.7476
   13MOL   H494 9158   6.224   3.873   3.269 -1.9640 -0.7066  1.2787
   13MOL   H495 9159   6.331   4.160   3.271 -0.7414 -0.3845  2.6418
   13MOL   H496 9160   6.414   4.021   3.210  0.9740  2.0504  1.1426
   13MOL   H497 9161   6.142   4.137   3.120 -0.2074  1.1527 -0.0294
   13MOL   H498 9162   6.211   4.004   3.046 -0.3998  0.3341  0.4226
   13MOL   H499 9163   6.433   4.143   2.993 -1.2844 -2.6684 -1.6443
   13MOL   H500 9164   6.342   4.276   3.026 -1.3105  0.6011 -2.2499
   13MOL   H501 9165   6.157   4.188   2.847 -0.2769  0.7695 -0.1795
   13MOL   H502 9166   6.315   4.253   2.805  1.0862 -0.4679  1.0096
   13MOL   H503 9167   6.386   4.066   2.718  0.4632 -3.5310  0.4452
   13MOL   H504 9168   6.137   3.738   3.706 -4.1949  0.6493  0.8379
   13MOL   H505 9169   6.008   3.552   3.833 -0.8544 -0.8256 -0.3922
   13MOL   C506 9170   6.243   3.937   2.744  0.1972  0.0877  0.6358
   13MOL   O507 9171   6.126   3.913   2.778 -0.3460 -0.0201 -0.4178
   13MOL   C508 9172   6.319   3.862   2.638 -0.3001  0.0041 -0.3767
   13MOL   C509 9173   6.244   3.780   2.550 -0.1194 -0.1690 -0.0325
   13MOL   C510 9174   6.306   3.693   2.456 -0.0682  0.1084 -0.7111
   13MOL   C511 9175   6.445   3.681   2.457 -0.6604 -0.3980  0.3042
   13MOL   C512 9176   6.503   3.586   2.360  0.2927  0.2836  0.3608
   13MOL   O513 9177   6.434   3.530   2.269 -0.1606 -0.1690 -0.6106
   13MOL   N514 9178   6.632   3.549   2.387  0.7363 -0.1297  0.5957
   13MOL   C515 9179   6.716   3.458   2.318 -0.2146 -0.6653  0.2744
   13MOL   C516 9180   6.650   3.322   2.295 -0.7357 -0.5745  0.2521
   13MOL   C517 9181   6.751   3.220   2.249 -0.3069 -0.0073 -0.1939
   13MOL   C518 9182   6.675   3.092   2.210 -0.1387 -0.5651  0.1108
   13MOL   C519 9183   6.761   2.985   2.158  0.0407 -0.6753  0.2166
   13MOL   C520 9184   6.693   2.843   2.161  0.7315 -0.3611 -0.2227
   13MOL   N521 9185   6.583   2.838   2.064  0.0716  0.2797 -0.1732
   13MOL   C522 9186   6.526   3.764   2.537 -0.1880 -0.8312  0.8150
   13MOL   C523 9187   6.459   3.846   2.634  0.6248 -0.6193  0.3895
   13MOL   H524 9188   6.137   3.780   2.555 -0.1299 -0.4301 -0.2208
   13MOL   H525 9189   6.244   3.636   2.387  0.0434  0.7912 -1.3824
   13MOL   H526 9190   6.664   3.574   2.479  0.4022  0.4295  0.5587
   13MOL   H527 9191   6.758   3.510   2.232  1.2984 -0.3508  1.1693
   13MOL   H528 9192   6.803   3.450   2.384 -0.8587 -1.5858  1.0185
   13MOL   H529 9193   6.578   3.320   2.213  0.6770 -0.4338 -1.0307
   13MOL   H530 9194   6.601   3.289   2.386  0.4776  0.3666  1.2577
   13MOL   H531 9195   6.789   3.255   2.153 -2.5243  1.5671 -0.5332
   13MOL   H532 9196   6.828   3.202   2.325 -0.5211 -1.2854 -0.2680
   13MOL   H533 9197   6.606   3.110   2.128  0.3894 -0.1794 -0.2509
   13MOL   H534 9198   6.623   3.053   2.298  0.9772  0.5425  1.2888
   13MOL   H535 9199   6.851   2.980   2.219  0.3525  1.0549 -0.0927
   13MOL   H536 9200   6.804   3.005   2.060  1.4658 -0.2651  0.9162
   13MOL   H537 9201   6.765   2.764   2.140 -1.9416 -3.0440  0.3693
   13MOL   H538 9202   6.656   2.835   2.263 -1.4999  0.4764 -0.9285
   13MOL   H539 9203   6.556   2.920   2.013 -0.5082  1.0028  1.2784
   13MOL   H540 9204   6.633   3.780   2.535  0.2403 -3.2009  2.4821
   13MOL   H541 9205   6.519   3.904   2.703  0.0312  0.5766 -0.0886
   13MOL   C542 9206   6.512   2.732   2.037 -0.8728 -1.3377  0.3881
   13MOL   O543 9207   6.528   2.630   2.100 -0.5589  0.3909 -0.0670
   13MOL   C544 9208   6.420   2.739   1.918  0.0220  0.7098 -0.4308
   13MOL   C545 9209   6.417   2.846   1.829 -0.8218  0.3617 -0.0364
   13MOL   C546 9210   6.313   2.868   1.735 -0.1493  0.4639 -0.0396
   13MOL   C547 9211   6.216   2.770   1.719  0.0220 -0.4092 -0.2892
   13MOL   C548 9212   6.108   2.786   1.614  0.2393  0.2474  0.2397
   13MOL   O549 9213   6.084   2.899   1.571  0.2505 -0.2271 -0.4998
   13MOL   N550 9214   6.047   2.671   1.578 -0.1186 -0.5094 -0.0503
   13MOL   C551 9215   5.945   2.656   1.476 -0.7807  0.0319  0.6560
   13MOL   C552 9216   5.808   2.648   1.543 -0.5052 -0.1752  0.6177
   13MOL   C553 9217   5.788   2.522   1.622 -0.3192  0.1811  0.5233
   13MOL   C554 9218   5.644   2.519   1.682  0.1379  0.1217 -0.5156
   13MOL   C555 9219   5.605   2.386   1.748  0.4080 -0.0302 -0.9967
   13MOL   C556 9220   5.474   2.392   1.829  0.3135 -0.8008 -0.0636
   13MOL   N557 9221   5.418   2.262   1.861  0.2981 -0.0086  0.3929
   13MOL   C558 9222   6.222   2.652   1.802  0.6064 -0.4919  0.5866
   13MOL   C559 9223   6.322   2.639   1.903 -0.5120  0.9724 -0.1814
   13MOL   H560 9224   6.497   2.918   1.826 -1.7044  1.3644  0.0879
   13MOL   H561 9225   6.316   2.954   1.669 -0.6503 -0.1955 -0.9487
   13MOL   H562 9226   6.081   2.584   1.618  0.1084 -0.4406 -0.0959
   13MOL   H563 9227   5.944   2.752   1.424  1.5259 -0.0017  0.4972
   13MOL   H564 9228   5.956   2.579   1.401  1.6237  0.0304  0.9885
   13MOL   H565 9229   5.725   2.652   1.473  0.4744  3.8278 -0.4312
   13MOL   H566 9230   5.791   2.742   1.595  1.3946  0.1718  0.6478
   13MOL   H567 9231   5.791   2.434   1.558 -0.6265 -0.2967  1.1560
   13MOL   H568 9232   5.859   2.532   1.704 -0.7913  0.3897  0.9107
   13MOL   H569 9233   5.579   2.546   1.599 -0.2618  0.1656 -0.1892
   13MOL   H570 9234   5.628   2.600   1.753 -0.8008 -0.7565  0.3014
   13MOL   H571 9235   5.682   2.342   1.812  0.5082 -1.1285 -1.8558
   13MOL   H572 9236   5.597   2.319   1.662  1.4731 -2.4814  0.7611
   13MOL   H573 9237   5.490   2.461   1.912  1.3589 -0.5366 -0.4697
   13MOL   H574 9238   5.409   2.438   1.755  0.2552 -1.4152 -0.4024
   13MOL   H575 9239   5.392   2.199   1.787 -1.1858 -1.2270  1.9011
   13MOL   H576 9240   6.139   2.583   1.803  0.5806 -0.4959 -0.8755
   13MOL   H577 9241   6.325   2.553   1.968  1.2460 -1.4928 -3.3578
   13MOL   C578 9242   5.351   2.249   1.972 -0.3758  0.7040 -0.8889
   13MOL   O579 9243   5.374   2.322   2.072 -0.0614  0.2266  0.0826
   13MOL   C580 9244   5.250   2.149   1.981  0.3373  0.0053 -0.3433
   13MOL   C581 9245   5.190   2.117   2.103 -0.0491  0.1372  0.2951
   13MOL   C582 9246   5.097   2.012   2.116 -0.5733 -0.1002  0.2375
   13MOL   C583 9247   5.053   1.943   2.001 -0.2447 -0.0209 -0.3546
   13MOL   C584 9248   4.958   1.827   2.005  1.2192  0.0888 -0.1176
   13MOL   O585 9249   4.989   1.715   1.947 -0.2047  0.2874  0.4328
   13MOL   N586 9250   4.848   1.846   2.075  0.6753  0.5785 -0.2722
   13MOL   C587 9251   4.749   1.748   2.103  0.0981  0.1313  0.4208
   13MOL   C588 9252   4.658   1.802   2.214  0.5427 -0.2460  0.7514
   13MOL   C589 9253   4.734   1.825   2.350  0.1951 -0.0647 -0.3029
   13MOL   C590 9254   4.645   1.908   2.447 -0.5105  0.0957  0.3144
   13MOL   C591 9255   4.708   1.945   2.583 -0.2288  0.2839 -0.2042
   13MOL   C592 9256   4.793   2.076   2.570  0.2877  0.5479  0.4732
   13MOL   N593 9257   4.864   2.108   2.693  1.0122  0.2041  0.1691
   13MOL   C594 9258   5.107   1.976   1.877  0.1096 -0.2842 -0.6661
   13MOL   C595 9259   5.199   2.080   1.868  0.9610 -0.1747 -0.2591
   13MOL   H596 9260   5.229   2.163   2.193 -0.1066 -0.5841  0.6895
   13MOL   H597 9261   5.058   1.991   2.214 -0.3359  1.5164  0.6941
   13MOL   H598 9262   4.821   1.943   2.085  1.4056  1.0406 -2.5409
   13MOL   H599 9263   4.695   1.726   2.011  1.2563  0.6440 -0.4040
   13MOL   H600 9264   4.795   1.653   2.131  0.0336 -0.4951 -1.5054
   13MOL   H601 9265   4.569   1.742   2.232  0.7522 -0.9547 -0.5332
   13MOL   H602 9266   4.621   1.900   2.182 -0.0506 -0.7545 -0.1322
   13MOL   H603 9267   4.753   1.729   2.396  0.1515  0.2896  0.4591
   13MOL   H604 9268   4.828   1.873   2.324  0.6489 -0.9895 -0.3847
   13MOL   H605 9269   4.555   1.848   2.463  0.9540 -2.8448 -1.9965
   13MOL   H606 9270   4.607   1.998   2.398 -0.0621  0.0679 -0.0880
   13MOL   H607 9271   4.772   1.860   2.608 -0.4947  0.7691  2.2088
   13MOL   H608 9272   4.635   1.946   2.663  0.2067 -3.2053  0.3212
   13MOL   H609 9273   4.870   2.055   2.496 -0.1927 -0.3885  0.2225
   13MOL   H610 9274   4.740   2.157   2.519 -2.1069 -1.1203  0.2164
   13MOL   H611 9275   4.937   2.041   2.711 -0.1943 -1.4577 -0.9559
   13MOL   H612 9276   5.075   1.939   1.781  2.1192  0.1465 -1.5103
   13MOL   H613 9277   5.213   2.114   1.767 -2.8306 -2.1440 -1.5363
   13MOL   C614 9278   4.841   2.209   2.778  0.2484 -0.1463 -0.5144
   13MOL   O615 9279   4.757   2.296   2.771 -0.1023  0.0723 -0.0772
   13MOL   C616 9280   4.940   2.206   2.891  0.1796 -0.4234 -0.3031
   13MOL   C617 9281   5.078   2.197   2.869 -0.5997  0.2494  0.1234
   13MOL   C618 9282   5.168   2.207   2.971  0.3700 -0.3459  0.3631
   13MOL   C619 9283   5.122   2.215   3.102 -0.0979 -0.2943 -0.1633
   13MOL   C620 9284   5.223   2.211   3.218 -0.3486 -0.0594  0.2395
   13MOL   O621 9285   5.201   2.282   3.319  0.2293 -0.4171  1.0482
   13MOL   N622 9286   5.327   2.127   3.213 -0.3716 -0.1993  0.9971
   13MOL   C623 9287   5.432   2.119   3.314 -0.3357 -0.2708 -0.1052
   13MOL   C624 9288   5.434   1.983   3.388  0.1869 -0.9858 -0.4531
   13MOL   C625 9289   5.561   1.958   3.467 -0.1935 -0.2462  1.0068
   13MOL   C626 9290   5.555   1.838   3.566  0.9566 -0.3537 -0.5482
   13MOL   C627 9291   5.565   1.701   3.508 -0.4426 -0.2343  0.3779
   13MOL   C628 9292   5.590   1.585   3.608  0.0668  0.6814 -0.3489
   13MOL   N629 9293   5.472   1.581   3.697  0.2278  0.6234  0.0949
   13MOL   C630 9294   4.984   2.218   3.129  0.0500 -0.1794  0.3476
   13MOL   C631 9295   4.897   2.215   3.023  0.4207  0.1385 -0.0906
   13MOL   H632 9296   5.109   2.202   2.766 -2.3503 -0.2567 -0.4546
   13MOL   H633 9297   5.273   2.200   2.945 -0.0244 -1.1451 -1.0686
   13MOL   H634 9298   5.346   2.062   3.138  0.0872 -0.8994  1.7204
   13MOL   H635 9299   5.533   2.130   3.275 -0.0310  0.8500  0.9734
   13MOL   H636 9300   5.425   2.204   3.381  2.6403  0.7874 -1.0398
   13MOL   H637 9301   5.423   1.899   3.319  2.8245 -1.3017 -0.5539
   13MOL   H638 9302   5.354   1.991   3.461 -0.8784 -2.5082 -1.4034
   13MOL   H639 9303   5.646   1.947   3.399  0.3411 -1.2328  1.8267
   13MOL   H640 9304   5.571   2.047   3.529 -0.0281  0.1099  0.4719
   13MOL   H641 9305   5.474   1.855   3.637  0.3884  1.8797 -1.7003
   13MOL   H642 9306   5.636   1.845   3.639 -0.0420  1.3839  0.4128
   13MOL   H643 9307   5.646   1.703   3.436 -1.0477  1.4871 -0.2718
   13MOL   H644 9308   5.479   1.685   3.443 -1.4217  0.4860  1.4679
   13MOL   H645 9309   5.602   1.486   3.566  2.9526  0.8401  0.0031
   13MOL   H646 9310   5.667   1.604   3.683  1.2776  2.1315 -1.9187
   13MOL   H647 9311   5.399   1.650   3.689 -2.9900 -2.4566  1.7179
   13MOL   H648 9312   4.949   2.235   3.230 -3.1332  0.4108 -0.7883
   13MOL   H649 9313   4.794   2.213   3.057  0.7689  3.0617  1.3040
   13MOL   C650 9314   5.436   1.466   3.753 -0.7902 -0.7399 -0.2793
   13MOL   O651 9315   5.515   1.371   3.764 -0.1928  0.5194 -0.2822
   13MOL   C652 9316   5.295   1.451   3.799  0.1298  0.6849  0.7660
   13MOL   C653 9317   5.213   1.563   3.830 -0.1434  0.6092  0.1263
   13MOL   C654 9318   5.083   1.545   3.879  0.5030  0.7267 -0.0393
   13MOL   C655 9319   5.035   1.419   3.913 -0.7070  0.9754  0.1879
   13MOL   C656 9320   4.906   1.401   3.994  0.0161  0.3916  0.2873
   13MOL   O657 9321   4.904   1.324   4.088  0.4438  0.2204  0.1055
   13MOL   N658 9322   4.804   1.474   3.946  0.5745  0.1927  0.2682
   13MOL   C659 9323   4.693   1.499   4.038  0.6831  0.7935 -0.3314
   13MOL   C660 9324   4.578   1.571   3.966 -0.3100  0.4030  0.8902
   13MOL   C661 9325   4.471   1.616   4.064 -0.0065 -0.1813 -0.6031
   13MOL   C662 9326   4.375   1.721   4.005 -0.0044 -0.2121  0.0204
   13MOL   C663 9327   4.229   1.660   3.987 -0.9260  0.0417  0.0551
   13MOL   C664 9328   4.130   1.756   3.924  0.1134 -0.0300 -0.5218
   13MOL   N665 9329   4.101   1.857   4.019  0.8097  0.3455  0.3149
   13MOL   C666 9330   5.115   1.300   3.882  0.5303 -0.6221 -0.0300
   13MOL   C667 9331   5.246   1.318   3.826  0.7019 -0.3918  0.9038
   13MOL   H668 9332   5.248   1.664   3.817  1.3127  0.2049  0.7675
   13MOL   H669 9333   5.028   1.631   3.913 -3.0475 -1.0867 -0.9973
   13MOL   H670 9334   4.821   1.532   3.865  3.4093  1.8901  1.9991
   13MOL   H671 9335   4.657   1.404   4.077  0.0868  0.6749 -1.1394
   13MOL   H672 9336   4.731   1.552   4.125  1.2186  0.4006 -0.3265
   13MOL   H673 9337   4.536   1.511   3.885 -1.7572  1.4243  0.8450
   13MOL   H674 9338   4.615   1.660   3.914  0.1122  0.9620  2.1261
   13MOL   H675 9339   4.415   1.525   4.084 -0.7177  0.1685 -0.9797
   13MOL   H676 9340   4.508   1.650   4.161  1.5497  1.7640 -1.8243
   13MOL   H677 9341   4.412   1.750   3.906 -1.8003  1.7126 -0.1121
   13MOL   H678 9342   4.376   1.812   4.064  0.2988 -1.0362  1.2953
   13MOL   H679 9343   4.200   1.640   4.090 -0.5024  1.0722  0.3767
   13MOL   H680 9344   4.235   1.559   3.945  0.5393 -0.7375  2.0557
   13MOL   H681 9345   4.143   1.812   3.831 -0.6410 -0.3521 -0.8280
   13MOL   H682 9346   4.037   1.702   3.904  0.9368 -0.8889 -2.0910
   13MOL   H683 9347   4.126   1.845   4.116  0.0426 -1.5861  0.3023
   13MOL   H684 9348   5.098   1.196   3.907 -1.2302 -0.2552  0.3389
   13MOL   H685 9349   5.312   1.234   3.812  0.9824  0.1754 -1.3524
   13MOL   C686 9350   4.034   1.966   3.992 -0.1188 -0.5942  0.4955
   13MOL   O687 9351   3.999   2.004   3.879 -0.0529  0.2954 -0.0924
   13MOL   C688 9352   4.002   2.047   4.110  0.6964 -0.2369  0.1861
   13MOL   C689 9353   3.873   2.098   4.139  0.0821 -0.0131  0.4344
   13MOL   C690 9354   3.851   2.184   4.252 -0.1139 -0.6699 -0.0111
   13MOL   C691 9355   3.960   2.226   4.336  0.7875  0.0884 -0.3490
   13MOL   C692 9356   3.955   2.329   4.446 -0.0551  0.0546  0.0049
   13MOL   O693 9357   4.050   2.369   4.516  0.0335 -0.1998  0.2507
   13MOL   N694 9358   3.838   2.369   4.485  0.1946  0.5547 -0.1413
   13MOL   C695 9359   3.808   2.460   4.594 -0.4572  0.0638  0.5177
   13MOL   C696 9360   3.790   2.384   4.723 -0.5484 -0.1931 -0.7903
   13MOL   C697 9361   3.683   2.273   4.704  0.4885 -0.2963 -0.3433
   13MOL   C698 9362   3.688   2.170   4.819 -0.3189  0.1232 -0.7424
   13MOL   C699 9363   3.805   2.076   4.796  0.0196 -0.4347  0.1995
   13MOL   C700 9364   3.811   1.951   4.891 -0.6815 -0.2036  0.0340
   13MOL   N701 9365   3.917   1.859   4.867 -0.2084 -0.3672  0.2551
   13MOL   C702 9366   4.090   2.174   4.306 -0.0696 -0.3180 -0.6101
   13MOL   C703 9367   4.109   2.083   4.194 -0.1077  0.6891 -0.4425
   13MOL   H704 9368   3.791   2.076   4.071  0.2353  4.4068 -1.3295
   13MOL   H705 9369   3.751   2.219   4.273  0.5472  1.4370 -0.2055
   13MOL   H706 9370   3.763   2.357   4.419  0.4611 -1.7676 -0.0600
   13MOL   H707 9371   3.891   2.531   4.601  0.2486 -0.7160  0.0002
   13MOL   H708 9372   3.721   2.519   4.564 -1.3329 -0.8483  1.2324
   13MOL   H709 9373   3.753   2.439   4.809 -0.8324 -1.4138 -0.1133
   13MOL   H710 9374   3.885   2.338   4.752  0.7991  0.4498 -3.9751
   13MOL   H711 9375   3.584   2.317   4.713  1.3594  1.8391 -0.8285
   13MOL   H712 9376   3.679   2.222   4.608 -2.1836 -1.5492  0.4009
   13MOL   H713 9377   3.604   2.102   4.816 -0.7003  0.4282  2.0161
   13MOL   H714 9378   3.694   2.220   4.916 -2.0596 -1.4743  0.2094
   13MOL   H715 9379   3.901   2.128   4.797  0.2037 -0.7790  3.3157
   13MOL   H716 9380   3.781   2.040   4.696 -1.6562 -0.1982  0.5038
   13MOL   H717 9381   3.812   1.983   4.995 -1.0350 -1.9465  0.5957
   13MOL   H718 9382   3.724   1.885   4.884 -0.1395 -0.7548 -1.6160
   13MOL   H719 9383   3.961   1.819   4.948  1.7467 -0.9979 -1.0827
   13MOL   H720 9384   4.177   2.202   4.363  0.5662 -1.1929 -1.1432
   13MOL   H721 9385   4.208   2.052   4.163  0.3490  0.3724  1.2643
   13MOL   H722 9386   3.995   1.901   4.820 -0.9377  0.7936  0.0621
   14MOL     C1 9387   7.290   0.647   3.009  0.3968  0.1817 -0.3284
   14MOL     O2 9388   7.229   0.628   3.111  0.5565  0.9426 -0.1213
   14MOL     C3 9389   7.378   0.765   2.997 -0.1225  0.1003  0.8531
   14MOL     C4 9390   7.418   0.791   2.869 -0.4042  0.1632 -0.4438
   14MOL     C5 9391   7.482   0.907   2.845 -0.1548 -0.9358 -0.2107
   14MOL     C6 9392   7.522   0.999   2.948  0.1578  0.8405 -0.4118
   14MOL     C7 9393   7.606   1.119   2.917 -0.1931  0.2570 -0.0715
   14MOL     O8 9394   7.687   1.160   2.996 -0.5046 -0.2847 -0.2484
   14MOL     N9 9395   7.585   1.177   2.797  0.1614 -0.0587  0.4535
   14MOL    C10 9396   7.666   1.279   2.739 -0.5835  0.5668  0.3219
   14MOL    C11 9397   7.586   1.347   2.626  0.1886  0.0907  0.4522
   14MOL    C12 9398   7.676   1.451   2.555  0.0167 -0.0935  0.1300
   14MOL    C13 9399   7.718   1.564   2.642 -0.4196 -0.3098  0.8232
   14MOL    C14 9400   7.797   1.675   2.559  0.5869  0.3144 -0.1118
   14MOL    C15 9401   7.843   1.794   2.650 -0.0109 -0.3916 -0.7150
   14MOL    N16 9402   0.072   1.759   2.724 -0.2638  0.2718  0.1984
   14MOL    C17 9403   7.486   0.970   3.084  0.6855 -0.3693 -0.4660
   14MOL    C18 9404   7.414   0.852   3.111  0.0122  0.2647 -0.0176
   14MOL    H19 9405   7.399   0.735   2.778 -0.7557  0.3179 -0.4698
   14MOL    H20 9406   7.508   0.920   2.741  0.8238 -1.4099 -0.0268
   14MOL    H21 9407   7.528   1.138   2.724 -0.4825  2.1680 -0.2653
   14MOL    H22 9408   7.698   1.355   2.811 -1.1675  1.4446 -0.3198
   14MOL    H23 9409   7.752   1.232   2.694 -2.3493 -0.0619 -2.5221
   14MOL    H24 9410   7.504   1.388   2.685  0.2278 -1.6816  1.8057
   14MOL    H25 9411   7.550   1.271   2.556  1.9023 -0.2996 -0.0343
   14MOL    H26 9412   7.759   1.399   2.507  0.2495  0.1418  0.2767
   14MOL    H27 9413   7.630   1.509   2.475 -0.3475  0.8018  0.9784
   14MOL    H28 9414   7.776   1.523   2.724  0.3329 -0.7639  0.0627
   14MOL    H29 9415   7.626   1.613   2.675 -0.2541  1.1081 -0.7059
   14MOL    H30 9416   7.726   1.709   2.484 -0.7452 -1.1544  0.4652
   14MOL    H31 9417   7.880   1.630   2.505  0.9334  0.4100  0.3329
   14MOL    H32 9418   7.865   1.879   2.586  0.7993 -0.1587 -0.1339
   14MOL    H33 9419   7.766   1.832   2.717  0.4597 -1.2179  0.3037
   14MOL    H34 9420   0.113   1.672   2.695 -0.6547  0.5925 -1.3695
   14MOL    H35 9421   7.507   1.033   3.168  1.7369 -1.7732  0.3454
   14MOL    H36 9422   7.384   0.811   3.206  0.7887 -0.5616 -0.1232
   14MOL    H37 9423   7.283   0.585   2.919 -1.1696 -1.3051  0.7917
   14MOL    C38 9424   0.138   1.845   2.808 -0.3922 -0.1107  0.2999
   14MOL    O39 9425   0.090   1.956   2.846 -0.5636  0.4361  0.1133
   14MOL    C40 9426   0.271   1.803   2.861 -0.1914  0.0282 -0.0413
   14MOL    C41 9427   0.309   1.667   2.884 -0.0459  0.1587  0.2459
   14MOL    C42 9428   0.427   1.639   2.948 -0.2940 -0.6781 -0.5603
   14MOL    C43 9429   0.516   1.741   2.983  0.1858  0.1931  0.2456
   14MOL    C44 9430   0.648   1.712   3.050  0.7116 -0.2753  0.1849
   14MOL    O45 9431   0.747   1.782   3.031  0.0462  0.4761  0.1202
   14MOL    N46 9432   0.654   1.603   3.123 -0.3890 -0.1493  0.8948
   14MOL    C47 9433   0.761   1.544   3.197 -0.8668 -0.1568  0.2056
   14MOL    C48 9434   0.880   1.494   3.113 -0.1174 -0.0774  0.1835
   14MOL    C49 9435   0.974   1.399   3.194 -0.3869  0.4975 -0.1284
   14MOL    C50 9436   1.092   1.351   3.109  0.8816  0.5108  0.5164
   14MOL    C51 9437   1.171   1.227   3.177  0.0987  0.0060  0.0073
   14MOL    C52 9438   1.257   1.248   3.300 -0.6548 -0.0371  0.7148
   14MOL    N53 9439   1.326   1.126   3.340  0.4309  0.6652  0.4201
   14MOL    C54 9440   0.485   1.877   2.957  0.4591  0.5968 -0.1252
   14MOL    C55 9441   0.358   1.904   2.905  0.2107  0.7265 -0.6779
   14MOL    H56 9442   0.236   1.590   2.863 -1.0128  0.9669  0.5977
   14MOL    H57 9443   0.436   1.537   2.981 -0.7816 -0.3836  0.5013
   14MOL    H58 9444   0.563   1.567   3.148 -0.3380  0.7590  2.5078
   14MOL    H59 9445   0.799   1.614   3.272  0.7191  0.1134 -0.8151
   14MOL    H60 9446   0.721   1.464   3.259  1.2065 -2.5689 -1.4520
   14MOL    H61 9447   0.935   1.581   3.078 -2.7379  1.4110 -0.3578
   14MOL    H62 9448   0.858   1.449   3.017  1.7727 -0.0466 -0.2805
   14MOL    H63 9449   1.011   1.444   3.286 -1.1447 -0.4620  0.6651
   14MOL    H64 9450   0.902   1.320   3.214  0.3512 -0.2651 -0.4536
   14MOL    H65 9451   1.156   1.433   3.075 -1.4072  1.6738 -1.0524
   14MOL    H66 9452   1.043   1.307   3.023 -1.5830 -0.2354  2.2465
   14MOL    H67 9453   1.253   1.197   3.111  0.1541  0.5051 -0.1602
   14MOL    H68 9454   1.102   1.145   3.193  0.8054 -0.1417  2.4844
   14MOL    H69 9455   1.344   1.305   3.264 -0.3132  0.8915  2.9576
   14MOL    H70 9456   1.205   1.304   3.377 -2.1598  0.2580 -0.4954
   14MOL    H71 9457   1.364   1.074   3.261  0.2542 -2.0623  2.0502
   14MOL    H72 9458   0.547   1.962   2.982  1.4098  0.6029 -2.4083
   14MOL    H73 9459   0.331   2.008   2.913 -0.4953  0.3175  3.3101
   14MOL    C74 9460   1.319   1.057   3.455 -0.3516  0.5478 -0.4209
   14MOL    O75 9461   1.278   1.097   3.564 -0.2468 -0.3067 -0.0037
   14MOL    C76 9462   1.332   0.912   3.436 -0.2433  0.3654  0.1559
   14MOL    C77 9463   1.262   0.848   3.329  0.1601  0.2682  0.2996
   14MOL    C78 9464   1.273   0.710   3.321 -0.0465  0.3442 -0.0113
   14MOL    C79 9465   1.357   0.634   3.413 -0.3690  0.4664  0.1268
   14MOL    C80 9466   1.363   0.487   3.411  0.0170  0.3731  0.1826
   14MOL    O81 9467   1.291   0.423   3.330 -0.0599  0.3457 -0.0515
   14MOL    N82 9468   1.458   0.427   3.484 -0.3406 -0.0794  0.7086
   14MOL    C83 9469   1.481   0.278   3.479  0.0501  0.4406  0.8270
   14MOL    C84 9470   1.529   0.230   3.337 -0.5090  0.0739 -0.5927
   14MOL    C85 9471   1.596   0.089   3.326  0.2118  0.1648 -0.4657
   14MOL    C86 9472   1.506   7.860   3.374  0.7354  0.7073 -0.5986
   14MOL    C87 9473   1.359   7.863   3.331 -0.6845  0.4810  0.1921
   14MOL    C88 9474   1.268   7.739   3.360  0.0760  0.4974  0.2480
   14MOL    N89 9475   1.130   7.765   3.336  0.4075 -0.1229 -0.4674
   14MOL    C90 9476   1.423   0.698   3.517  0.1869 -0.2198  0.8146
   14MOL    C91 9477   1.408   0.840   3.528 -0.0652 -0.4522  0.0809
   14MOL    H92 9478   1.207   0.901   3.253  0.0472 -2.7291 -1.7825
   14MOL    H93 9479   1.237   0.666   3.230 -0.5469 -0.9413  0.7941
   14MOL    H94 9480   1.517   0.481   3.544 -1.4135 -2.0066  3.6327
   14MOL    H95 9481   1.538   0.240   3.564 -1.6291 -1.6663  1.0676
   14MOL    H96 9482   1.388   0.227   3.502 -0.3418  0.5502 -0.4807
   14MOL    H97 9483   1.596   0.313   3.315 -0.2395  0.0794  0.2265
   14MOL    H98 9484   1.449   0.234   3.263  1.1450  0.1732 -2.3998
   14MOL    H99 9485   1.644   0.060   3.232 -0.3363  0.6797 -0.9023
   14MOL   H100 9486   1.685   0.088   3.389  0.0708  0.8230 -0.2620
   14MOL   H101 9487   1.512   7.844   3.482 -0.1194  2.4294 -0.2747
   14MOL   H102 9488   1.564   7.775   3.340  0.1245  0.1655 -0.2975
   14MOL   H103 9489   1.353   7.870   3.223  0.2895 -2.0278 -0.0720
   14MOL   H104 9490   1.304   0.056   3.382 -0.2412  1.3339 -0.6439
   14MOL   H105 9491   1.291   7.649   3.303 -1.1909 -0.5348  1.3267
   14MOL   H106 9492   1.292   7.707   3.461 -0.5838 -1.0285 -0.0602
   14MOL   H107 9493   1.083   7.803   3.416  0.0050 -2.2188  0.3366
   14MOL   H108 9494   1.491   0.646   3.583  0.2968 -1.7530 -0.4935
   14MOL   H109 9495   1.458   0.894   3.607  0.1372  0.9570 -1.0037
   14MOL   C110 9496   1.056   7.738   3.235 -0.3650  0.2990 -0.0023
   14MOL   O111 9497   1.101   7.681   3.138 -0.2738 -0.0461 -0.4652
   14MOL   C112 9498   0.913   7.773   3.262  0.6157 -0.2619 -0.2609
   14MOL   C113 9499   0.808   7.676   3.247  0.0601 -0.0572  1.7812
   14MOL   C114 9500   0.671   7.718   3.269  0.0406 -0.2862 -0.0205
   14MOL   C115 9501   0.633   7.842   3.311 -0.9950  0.3847 -0.5737
   14MOL   C116 9502   0.489   7.876   3.324  0.1596 -1.2191  0.1440
   14MOL   O117 9503   0.444   0.098   3.284  0.1660 -0.5652  0.1168
   14MOL   N118 9504   0.413   7.788   3.385  0.0252 -0.9083 -0.1714
   14MOL   C119 9505   0.277   7.791   3.428 -1.2507  0.2270  0.0320
   14MOL   C120 9506   0.196   7.669   3.381  0.3177  0.7545  0.0678
   14MOL   C121 9507   0.249   7.539   3.440  0.3041  0.1857 -0.5232
   14MOL   C122 9508   0.166   7.417   3.384  0.6434 -0.0054 -0.0509
   14MOL   C123 9509   0.252   7.289   3.392 -0.1873 -0.4419 -0.1543
   14MOL   C124 9510   0.167   7.159   3.390  0.1779 -0.4777  0.2603
   14MOL   N125 9511   0.240   7.045   3.442 -0.3519  0.3362 -0.3879
   14MOL   C126 9512   0.739   0.050   3.323 -0.2328  0.8036  0.0037
   14MOL   C127 9513   0.875   0.014   3.302  0.3631 -0.5122 -0.7713
   14MOL   H128 9514   0.842   7.579   3.214  0.4686  1.8189 -3.6299
   14MOL   H129 9515   0.594   7.646   3.244 -0.6964  0.3342  0.4296
   14MOL   H130 9516   0.460   7.700   3.404  1.6977  0.0728  0.3683
   14MOL   H131 9517   0.271   7.809   3.536 -2.9796  2.0610 -0.3382
   14MOL   H132 9518   0.240   7.882   3.380  1.1313  1.2483  0.0652
   14MOL   H133 9519   0.203   7.657   3.273 -1.0683  0.6222 -0.0123
   14MOL   H134 9520   0.094   7.689   3.410  0.8136  1.9205  1.0254
   14MOL   H135 9521   0.351   7.513   3.412  0.9694  1.1434  0.9401
   14MOL   H136 9522   0.251   7.544   3.549 -1.2544  1.3384 -0.5370
   14MOL   H137 9523   0.131   7.443   3.283  4.1168 -0.8462 -1.5471
   14MOL   H138 9524   0.081   7.398   3.450 -0.0705  0.7911 -0.7221
   14MOL   H139 9525   0.306   7.298   3.487  0.6404  0.5416 -0.7061
   14MOL   H140 9526   0.325   7.286   3.311 -0.1849 -0.9669 -0.1306
   14MOL   H141 9527   0.082   7.178   3.455 -1.3299 -2.4095 -1.0647
   14MOL   H142 9528   0.121   7.143   3.292 -0.7974 -0.0513  0.6432
   14MOL   H143 9529   0.248   7.038   3.543  1.2465  0.1624 -0.5048
   14MOL   H144 9530   0.717   0.154   3.342 -1.2323  0.8947 -1.5951
   14MOL   H145 9531   0.945   0.096   3.299  0.8900 -0.8437  1.3808
   14MOL   C146 9532   0.321   6.965   3.381  0.0832  0.0068 -0.0768
   14MOL   O147 9533   0.306   6.936   3.262  0.1578 -0.1702  0.1534
   14MOL   C148 9534   0.423   6.892   3.465 -0.3017 -0.0703  0.9749
   14MOL   C149 9535   0.466   6.761   3.429 -0.0344  0.2039 -0.2698
   14MOL   C150 9536   0.547   6.689   3.521  0.0279 -0.0280  0.0900
   14MOL   C151 9537   0.602   6.750   3.635 -0.4314  0.4549  0.4275
   14MOL   C152 9538   0.691   6.670   3.722  0.0573 -0.4399  0.0839
   14MOL   O153 9539   0.676   6.547   3.728 -0.2728  0.0250  0.5293
   14MOL   N154 9540   0.788   6.733   3.797  0.2103 -0.1936 -0.2445
   14MOL   C155 9541   0.882   6.666   3.881 -0.2787  0.0825  0.8784
   14MOL   C156 9542   0.983   6.769   3.939 -0.3701 -0.2612  0.8888
   14MOL   C157 9543   1.112   6.710   3.986 -0.2633 -0.2860  0.0399
   14MOL   C158 9544   1.222   6.814   4.000 -0.2180 -0.4837 -0.8602
   14MOL   C159 9545   1.366   6.755   4.021  0.4953  0.4349  0.2551
   14MOL   C160 9546   1.484   6.856   4.018  1.2021 -0.4166  0.2448
   14MOL   N161 9547   1.602   6.784   3.984 -0.3928 -0.2754  0.1521
   14MOL   C162 9548   0.571   6.890   3.667  0.0462  0.6702 -0.2935
   14MOL   C163 9549   0.479   6.953   3.579  0.6717  0.2853  0.1066
   14MOL   H164 9550   0.419   6.722   3.339 -1.6035  0.9007  0.2203
   14MOL   H165 9551   0.563   6.586   3.492 -0.9954  0.4743 -2.3671
   14MOL   H166 9552   0.789   6.834   3.803  0.6814 -0.1995 -0.1785
   14MOL   H167 9553   0.837   6.606   3.960  1.8225 -0.1199  1.9603
   14MOL   H168 9554   0.942   6.592   3.828 -1.0628  0.1664 -0.1566
   14MOL   H169 9555   0.944   6.835   4.016 -0.7133 -0.2650  0.7161
   14MOL   H170 9556   1.010   6.845   3.866  1.8013 -0.9194  0.9437
   14MOL   H171 9557   1.096   6.657   4.080 -0.8845  1.5740  1.0148
   14MOL   H172 9558   1.144   6.634   3.916 -0.7923  0.8789 -1.4943
   14MOL   H173 9559   1.197   6.877   4.086  2.2708 -2.0957  1.0973
   14MOL   H174 9560   1.238   6.873   3.910  0.6461 -2.3391 -1.9461
   14MOL   H175 9561   1.374   6.681   3.941 -2.7299  0.4270 -0.1401
   14MOL   H176 9562   1.364   6.706   4.118 -0.3807  3.0819  1.6269
   14MOL   H177 9563   1.465   6.930   3.941  0.4574 -3.0774 -2.2054
   14MOL   H178 9564   1.503   6.908   4.112  1.4173 -0.0299 -0.0130
   14MOL   H179 9565   1.632   6.789   3.887 -0.5587 -0.6239  0.0794
   14MOL   H180 9566   0.613   6.929   3.759 -0.8377 -0.3062  0.5333
   14MOL   H181 9567   0.465   7.058   3.601 -1.0391  0.4102 -1.4860
   14MOL   C182 9568   1.704   6.749   4.070  0.7033 -0.2051 -0.5320
   14MOL   O183 9569   1.693   6.756   4.194 -0.4088  0.2742 -0.4864
   14MOL   C184 9570   1.829   6.689   4.002 -0.4639 -0.0700 -0.4276
   14MOL   C185 9571   1.820   6.657   3.862 -0.4304  0.1662  0.1108
   14MOL   C186 9572   1.923   6.585   3.808 -0.3936  0.2628  0.0882
   14MOL   C187 9573   2.036   6.553   3.888  0.1951 -0.3817 -0.5267
   14MOL   C188 9574   2.153   6.476   3.828  0.2266  0.5462 -0.4063
   14MOL   O189 9575   2.126   6.396   3.736 -0.3208 -0.0849  0.0855
   14MOL   N190 9576   2.275   6.503   3.879  0.3895 -0.1881  0.2070
   14MOL   C191 9577   2.396   6.443   3.825  0.2309 -0.3345 -0.2368
   14MOL   C192 9578   2.454   6.509   3.696  0.9037 -0.6251 -0.6068
   14MOL   C193 9579   2.574   6.421   3.654 -0.0046 -0.3682 -0.0159
   14MOL   C194 9580   2.653   6.466   3.532 -0.0024  0.0662 -0.0398
   14MOL   C195 9581   2.757   6.579   3.548 -0.3798  0.8500  0.1205
   14MOL   C196 9582   2.706   6.717   3.523  0.7557  0.2066 -0.8418
   14MOL   N197 9583   2.816   6.818   3.522  0.5300  0.2518 -0.1806
   14MOL   C198 9584   2.048   6.594   4.024  0.2848 -0.7255  0.1597
   14MOL   C199 9585   1.942   6.658   4.081 -0.1215 -0.4060 -0.1440
   14MOL   H200 9586   1.734   6.675   3.799 -1.5215  0.8462  1.7786
   14MOL   H201 9587   1.922   6.560   3.703 -0.2951  0.0533  0.1390
   14MOL   H202 9588   2.277   6.584   3.939  1.3572 -0.1834  0.1768
   14MOL   H203 9589   2.467   6.460   3.906  0.8329  1.8426 -1.1870
   14MOL   H204 9590   2.400   6.334   3.813  0.2507 -0.6184  2.0887
   14MOL   H205 9591   2.479   6.613   3.716  0.3273 -0.3705 -1.1933
   14MOL   H206 9592   2.382   6.514   3.615 -0.8698 -2.4489  0.8175
   14MOL   H207 9593   2.646   6.417   3.736 -0.8575  0.0671  0.7591
   14MOL   H208 9594   2.535   6.323   3.627  1.4513 -0.9797  0.0698
   14MOL   H209 9595   2.587   6.485   3.448  0.8761 -1.4441 -1.0865
   14MOL   H210 9596   2.720   6.389   3.496  1.5877 -0.4652  3.7735
   14MOL   H211 9597   2.832   6.556   3.473  0.0066 -1.5151  1.1933
   14MOL   H212 9598   2.810   6.579   3.643  0.4344 -2.3678 -0.2873
   14MOL   H213 9599   2.642   6.720   3.435  0.5190  3.9179 -0.6343
   14MOL   H214 9600   2.648   6.743   3.611  2.2036  1.9015 -0.3630
   14MOL   H215 9601   2.899   6.789   3.472  0.4386 -0.6023  0.1654
   14MOL   H216 9602   2.136   6.567   4.080  1.1327  2.1576  0.2971
   14MOL   H217 9603   1.937   6.682   4.186  0.2388 -0.7331 -0.0508
   14MOL   C218 9604   2.801   6.947   3.557  0.3278  0.5902  0.1699
   14MOL   O219 9605   2.692   6.986   3.603 -0.1924 -0.5291  0.1241
   14MOL   C220 9606   2.928   7.026   3.546  0.0270  0.1802 -0.8712
   14MOL   C221 9607   2.932   7.149   3.485 -0.4632 -0.0063 -0.2076
   14MOL   C222 9608   3.051   7.221   3.483  0.6765 -0.5568  0.2152
   14MOL   C223 9609   3.170   7.168   3.535 -0.2334 -0.4116 -0.3039
   14MOL   C224 9610   3.292   7.252   3.537  0.7504 -0.0825 -0.0690
   14MOL   O225 9611   3.406   7.210   3.556  0.3150 -0.1421 -0.3202
   14MOL   N226 9612   3.278   7.388   3.510  0.0837  0.6663 -0.1437
   14MOL   C227 9613   3.388   7.481   3.492  0.5725 -0.1449 -0.1151
   14MOL   C228 9614   3.381   7.569   3.367 -0.6846  0.0780  0.0038
   14MOL   C229 9615   3.319   7.494   3.243  0.3218 -0.4845  0.5703
   14MOL   C230 9616   3.325   7.586   3.120 -0.9268  0.2326 -0.0767
   14MOL   C231 9617   3.431   7.534   3.017  0.1050 -0.0350 -0.4644
   14MOL   C232 9618   3.368   7.416   2.935  0.2586  0.0586 -0.5724
   14MOL   N233 9619   3.460   7.373   2.835 -0.3252  0.0043  0.1640
   14MOL   C234 9620   3.162   7.043   3.602  0.5387 -0.2985  0.0727
   14MOL   C235 9621   3.043   6.978   3.607  0.3247  0.4491  0.2182
   14MOL   H236 9622   2.848   7.201   3.440  0.5594  1.7572 -0.1381
   14MOL   H237 9623   3.058   7.323   3.446  1.9155 -0.5185  0.5203
   14MOL   H238 9624   3.182   7.419   3.512 -1.4089 -3.5971 -0.1212
   14MOL   H239 9625   3.384   7.541   3.583 -1.4380 -2.5091  1.4052
   14MOL   H240 9626   3.482   7.425   3.501  1.2073  1.1304  1.3162
   14MOL   H241 9627   3.481   7.603   3.341 -0.9979  2.7153  2.0587
   14MOL   H242 9628   3.320   7.654   3.397  0.6736  0.6257  1.2223
   14MOL   H243 9629   3.390   7.412   3.230  0.3078 -0.6359  1.4167
   14MOL   H244 9630   3.216   7.462   3.259  0.7996 -2.4174 -0.1354
   14MOL   H245 9631   3.359   7.685   3.149  1.8613 -0.4685 -0.7620
   14MOL   H246 9632   3.228   7.596   3.072 -0.4060  0.8480 -0.9917
   14MOL   H247 9633   3.525   7.494   3.056 -0.7729  0.6698  2.4309
   14MOL   H248 9634   3.462   7.609   2.944  1.4666 -1.0039 -0.9097
   14MOL   H249 9635   3.342   7.340   3.009 -0.9233  0.5925 -0.4279
   14MOL   H250 9636   3.275   7.445   2.885 -0.5285 -0.5572  0.4982
   14MOL   H251 9637   3.521   7.294   2.852 -1.7074 -0.8984  1.0150
   14MOL   H252 9638   3.255   7.007   3.643  1.4317  2.3621  0.5418
   14MOL   H253 9639   3.040   6.883   3.658  0.1367  0.7264  0.7299
   14MOL   C254 9640   3.469   7.422   2.708  0.3317 -0.4611  0.1535
   14MOL   O255 9641   3.400   7.512   2.665 -0.7599 -0.1073  0.3169
   14MOL   C256 9642   3.565   7.349   2.608 -0.4182 -0.2880 -0.1148
   14MOL   C257 9643   3.684   7.412   2.564  0.8274  0.1973  0.1546
   14MOL   C258 9644   3.773   7.361   2.470 -0.3227  0.3387 -0.5680
   14MOL   C259 9645   3.757   7.227   2.424  0.2655  0.2272  0.3223
   14MOL   C260 9646   3.842   7.173   2.317 -0.0080 -0.5836  0.3595
   14MOL   O261 9647   3.791   7.105   2.227  0.4737  0.5911  0.0060
   14MOL   N262 9648   3.977   7.199   2.313  0.2370 -0.4905 -0.2524
   14MOL   C263 9649   4.078   7.175   2.216 -1.2010 -0.3166 -0.2489
   14MOL   C264 9650   4.176   7.291   2.207  0.2601  1.0349  0.4718
   14MOL   C265 9651   4.287   7.260   2.110 -0.0171 -0.6542 -0.1685
   14MOL   C266 9652   4.398   7.359   2.117 -1.0435 -0.1992 -1.0351
   14MOL   C267 9653   4.365   7.491   2.057  0.1515 -0.5316  0.7843
   14MOL   C268 9654   4.458   7.609   2.092  0.7249  0.1924  0.2991
   14MOL   N269 9655   4.469   7.640   2.236  0.1520  0.2914  0.2961
   14MOL   C270 9656   3.646   7.155   2.486  0.2323 -0.0319  0.7766
   14MOL   C271 9657   3.549   7.216   2.566 -0.4307  0.1120 -0.2669
   14MOL   H272 9658   3.697   7.513   2.599 -1.3777  0.1201  1.3123
   14MOL   H273 9659   3.851   7.425   2.431  0.9942 -1.0276 -0.2511
   14MOL   H274 9660   3.997   7.276   2.376  2.2017  0.1259 -1.5776
   14MOL   H275 9661   4.135   7.084   2.234 -0.7563 -0.0981 -0.5620
   14MOL   H276 9662   4.039   7.156   2.116  1.9472 -0.8523 -1.4289
   14MOL   H277 9663   4.211   7.320   2.306 -0.3541 -0.0226  1.0044
   14MOL   H278 9664   4.103   7.368   2.181  0.0685 -0.2433 -2.9711
   14MOL   H279 9665   4.346   7.169   2.122  2.2534  0.9326  1.0698
   14MOL   H280 9666   4.245   7.253   2.010 -3.9340  1.8576  1.1502
   14MOL   H281 9667   4.479   7.319   2.056 -0.6239  0.1150 -0.6808
   14MOL   H282 9668   4.429   7.365   2.221 -1.6367 -0.2433 -0.8500
   14MOL   H283 9669   4.270   7.524   2.099 -0.7950 -0.1711 -1.5690
   14MOL   H284 9670   4.342   7.480   1.951  0.2216 -0.7530  0.7931
   14MOL   H285 9671   4.554   7.597   2.042  0.1284  1.0956 -1.0923
   14MOL   H286 9672   4.407   7.693   2.045  0.1416 -0.8867 -1.0486
   14MOL   H287 9673   4.538   7.582   2.281 -0.8189  0.5566  2.1849
   14MOL   H288 9674   3.626   7.057   2.445 -0.4227 -0.3714  1.8797
   14MOL   H289 9675   3.464   7.153   2.587 -1.6888  1.3460 -1.5564
   14MOL   C290 9676   4.403   7.734   2.302 -0.5083 -0.2967 -0.7221
   14MOL   O291 9677   4.315   7.807   2.254  0.4176  0.7121 -0.3564
   14MOL   C292 9678   4.447   7.763   2.442 -0.3502 -0.7378  0.3207
   14MOL   C293 9679   4.574   7.731   2.498 -0.3881  0.7213  0.3093
   14MOL   C294 9680   4.616   7.771   2.629  0.0834 -0.3283 -0.2352
   14MOL   C295 9681   4.521   7.843   2.711 -0.1051 -0.6605 -0.5170
   14MOL   C296 9682   4.558   7.880   2.853  0.3389 -0.1620  0.2758
   14MOL   O297 9683   4.661   7.845   2.912 -0.0203  0.2826  0.0865
   14MOL   N298 9684   4.469   0.076   2.913  0.1211  0.3232 -0.0084
   14MOL   C299 9685   4.462   0.123   3.046 -0.7449  0.3079  0.4161
   14MOL   C300 9686   4.474   0.274   3.053  0.1909  0.1977  0.1564
   14MOL   C301 9687   4.541   0.325   3.182 -0.3148  0.2544  0.5298
   14MOL   C302 9688   4.517   0.479   3.196  0.6563  0.6094 -0.4287
   14MOL   C303 9689   4.635   0.530   3.287 -0.1401 -0.7804 -0.5420
   14MOL   C304 9690   4.618   0.681   3.310 -0.4467  0.1484 -0.0871
   14MOL   N305 9691   4.743   0.741   3.359  0.4559  0.1515  0.0574
   14MOL   C306 9692   4.390   7.867   2.659  0.7168  0.0745  0.1247
   14MOL   C307 9693   4.358   7.841   2.525 -0.9267 -0.5647 -0.4234
   14MOL   H308 9694   4.644   7.673   2.440  0.6199  2.5219 -0.3137
   14MOL   H309 9695   4.715   7.746   2.665  0.0888 -1.1493 -0.8194
   14MOL   H310 9696   4.392   0.107   2.856  0.7886 -1.4442 -1.9150
   14MOL   H311 9697   4.366   0.083   3.077  0.4138 -2.3507  0.6919
   14MOL   H312 9698   4.515   0.058   3.116 -1.2676 -0.1390  0.3960
   14MOL   H313 9699   4.371   0.308   3.045 -0.0111 -0.3900  0.2018
   14MOL   H314 9700   4.533   0.321   2.974  1.9170  2.2525  2.5804
   14MOL   H315 9701   4.499   0.261   3.260 -0.9503 -3.0138 -2.3663
   14MOL   H316 9702   4.647   0.299   3.180 -0.9302 -2.2999 -0.8455
   14MOL   H317 9703   4.421   0.513   3.234  1.3493  0.2892  1.6848
   14MOL   H318 9704   4.534   0.526   3.100 -2.4156  0.7964 -0.9088
   14MOL   H319 9705   4.729   0.519   3.234  0.0747  3.6945 -1.2808
   14MOL   H320 9706   4.632   0.492   3.390  1.8428  1.6709  0.4696
   14MOL   H321 9707   4.607   0.741   3.219 -0.8675  0.1084 -0.0618
   14MOL   H322 9708   4.536   0.694   3.381 -1.7581  1.8092 -1.8599
   14MOL   H323 9709   4.829   0.706   3.319  0.1197  0.8539 -1.3152
   14MOL   H324 9710   4.314   0.031   2.717  1.1548 -0.1029  0.8574
   14MOL   H325 9711   4.259   7.872   2.493 -0.4688  0.2696 -1.0475
   14MOL   C326 9712   4.756   0.842   3.443 -0.1691 -0.9100  0.4904
   14MOL   O327 9713   4.659   0.901   3.487  0.5954  0.5286  0.0214
   14MOL   C328 9714   4.897   0.877   3.477  0.2301  0.6969  0.6039
   14MOL   C329 9715   4.928   0.957   3.587 -0.2065  0.1307  0.1038
   14MOL   C330 9716   5.055   0.982   3.631 -0.1124 -0.0534  1.1606
   14MOL   C331 9717   5.168   0.934   3.556  0.1038 -0.2679  0.8517
   14MOL   C332 9718   5.305   0.946   3.606  0.0418 -0.3727  0.0853
   14MOL   O333 9719   5.322   1.010   3.716 -0.2290 -0.2395 -0.1121
   14MOL   N334 9720   5.402   0.867   3.561 -0.1164 -0.1592 -0.5493
   14MOL   C335 9721   5.507   0.805   3.633 -0.0263  0.3684 -0.6167
   14MOL   C336 9722   5.446   0.728   3.746  0.2402  0.0938  0.1628
   14MOL   C337 9723   5.534   0.609   3.791  0.3015 -0.2340 -0.6408
   14MOL   C338 9724   5.649   0.650   3.875  0.0914  0.0092  0.7579
   14MOL   C339 9725   5.613   0.724   4.007 -0.9726 -0.3217 -0.2297
   14MOL   C340 9726   5.740   0.738   4.094 -0.0085 -0.0651 -0.2817
   14MOL   N341 9727   5.740   0.852   4.189 -0.1180 -0.1071  0.6019
   14MOL   C342 9728   5.133   0.868   3.433 -0.5374  0.2198  0.2999
   14MOL   C343 9729   5.005   0.839   3.398  0.1895  0.3257  0.8193
   14MOL   H344 9730   4.846   0.988   3.651 -2.0712 -2.3846 -0.9685
   14MOL   H345 9731   5.067   1.030   3.728  0.8082  0.3620  0.8443
   14MOL   H346 9732   5.397   0.826   3.469  1.1687  1.2581 -1.2665
   14MOL   H347 9733   5.552   0.727   3.572  0.3288  0.6267 -0.6850
   14MOL   H348 9734   5.584   0.877   3.661 -1.1202  0.7197  1.6189
   14MOL   H349 9735   5.351   0.684   3.717 -0.4333  1.1066  0.8004
   14MOL   H350 9736   5.433   0.801   3.827  4.2415  1.2182 -0.0708
   14MOL   H351 9737   5.468   0.540   3.844 -0.3109  0.5885 -0.3340
   14MOL   H352 9738   5.567   0.548   3.707 -1.2096 -3.5853  1.1156
   14MOL   H353 9739   5.696   0.727   3.813 -1.2669  0.5581  0.3793
   14MOL   H354 9740   5.708   0.559   3.885  0.8988  0.3806 -0.5089
   14MOL   H355 9741   5.538   0.668   4.062 -0.1702 -1.5130 -0.3113
   14MOL   H356 9742   5.567   0.822   3.997 -1.9113 -0.7211  0.1576
   14MOL   H357 9743   5.776   0.643   4.134  0.3991  0.2045  0.0007
   14MOL   H358 9744   5.821   0.767   4.028  1.0182  0.3793  1.1376
   14MOL   H359 9745   5.806   0.926   4.170  0.3097 -0.6574 -0.0569
   14MOL   H360 9746   5.214   0.824   3.377  0.4317  1.7787  0.4550
   14MOL   H361 9747   4.991   0.790   3.303 -0.2994  1.0084  0.5348
   14MOL   C362 9748   5.665   0.854   4.300 -0.5139  0.2131 -0.2842
   14MOL   O363 9749   5.573   0.775   4.327  0.1977 -0.3667 -0.0740
   14MOL   C364 9750   5.701   0.964   4.390 -0.1860 -0.0673 -0.1716
   14MOL   C365 9751   5.830   1.021   4.401 -0.4520  0.6012 -0.3839
   14MOL   C366 9752   5.854   1.124   4.490  0.6905 -0.1972 -0.1322
   14MOL   C367 9753   5.740   1.183   4.551 -0.3267  0.1023  0.3108
   14MOL   C368 9754   5.755   1.322   4.606  0.0702  0.5174  0.1169
   14MOL   O369 9755   5.860   1.384   4.596 -0.2653 -0.5186 -1.0267
   14MOL   N370 9756   5.658   1.373   4.674  0.2554  0.0324 -0.6768
   14MOL   C371 9757   5.669   1.505   4.748  0.0234 -0.1823 -0.4566
   14MOL   C372 9758   5.595   1.614   4.667  0.1463  0.1365 -0.9511
   14MOL   C373 9759   5.441   1.609   4.692  0.1694 -0.5246 -0.0530
   14MOL   C374 9760   5.364   1.696   4.591 -0.3049  0.0479  0.2774
   14MOL   C375 9761   5.379   1.845   4.617  0.0752 -0.7530  0.5414
   14MOL   C376 9762   5.343   1.934   4.497  0.5803 -0.0682 -0.2333
   14MOL   N377 9763   5.322   2.073   4.543 -0.6060 -0.0288  0.3032
   14MOL   C378 9764   5.612   1.127   4.551  0.1049 -0.6315  0.1564
   14MOL   C379 9765   5.593   1.017   4.464 -0.5901 -0.3217 -0.5339
   14MOL   H380 9766   5.913   0.990   4.339 -0.0153  0.3162  0.3318
   14MOL   H381 9767   5.953   1.167   4.489  0.8451 -0.5540  0.0468
   14MOL   H382 9768   5.584   1.309   4.699  0.0518  0.4348 -0.2385
   14MOL   H383 9769   5.631   1.481   4.847  0.6388 -0.3025 -0.2462
   14MOL   H384 9770   5.771   1.539   4.767 -0.2727 -0.4303  1.7469
   14MOL   H385 9771   5.610   1.597   4.560 -1.0549  1.1916 -1.2892
   14MOL   H386 9772   5.641   1.709   4.693 -2.1407  0.7352  0.9754
   14MOL   H387 9773   5.409   1.507   4.674  0.2771 -0.7686  1.1190
   14MOL   H388 9774   5.414   1.628   4.795 -1.2424  0.0516 -0.5199
   14MOL   H389 9775   5.259   1.667   4.588 -0.2354 -0.2446  0.6774
   14MOL   H390 9776   5.402   1.672   4.492 -0.3066 -0.4595  0.3984
   14MOL   H391 9777   5.482   1.866   4.645  0.3271 -2.6757  1.1609
   14MOL   H392 9778   5.318   1.875   4.703  1.0320  0.8950  0.6499
   14MOL   H393 9779   5.423   1.926   4.423  0.8130 -0.6428  0.0739
   14MOL   H394 9780   5.255   1.895   4.445 -1.7022  3.2416  0.9682
   14MOL   H395 9781   5.399   2.124   4.584  1.2303  0.0906 -3.0993
   14MOL   H396 9782   5.520   1.162   4.594 -0.2700 -1.3313 -0.0560
   14MOL   H397 9783   5.493   0.979   4.451 -0.3020 -0.4648 -2.4445
   14MOL   C398 9784   5.201   2.126   4.567  0.4680 -0.1506 -0.1658
   14MOL   O399 9785   5.095   2.063   4.546  0.4517  0.5191 -0.4207
   14MOL   C400 9786   5.197   2.265   4.631  0.0526 -0.0446  0.2019
   14MOL   C401 9787   5.279   2.369   4.574  0.1408 -0.2290 -0.2751
   14MOL   C402 9788   5.263   2.503   4.621  0.7721 -1.0551  0.8466
   14MOL   C403 9789   5.156   2.532   4.709 -0.3965  0.1909  0.0280
   14MOL   C404 9790   5.110   2.671   4.745  0.2382 -0.5556  0.6815
   14MOL   O405 9791   5.043   2.691   4.843  0.5351  0.1148  0.2222
   14MOL   N406 9792   5.152   2.763   4.660 -0.2953 -0.0367  0.1972
   14MOL   C407 9793   5.153   2.913   4.685 -0.0252  0.5478  0.0787
   14MOL   C408 9794   5.030   2.986   4.625  0.4454  0.2569 -0.5631
   14MOL   C409 9795   4.885   2.946   4.685 -0.3272 -0.5549 -0.1226
   14MOL   C410 9796   4.778   3.033   4.623  0.2241 -0.3229  0.0326
   14MOL   C411 9797   4.640   2.974   4.629 -0.1649  0.2114  0.1742
   14MOL   C412 9798   4.540   3.049   4.541  0.9584  0.3598 -0.4940
   14MOL   N413 9799   4.569   3.195   4.530  0.4495 -0.1381 -0.1629
   14MOL   C414 9800   5.080   2.428   4.761 -0.8626 -0.1727 -0.2770
   14MOL   C415 9801   5.099   2.290   4.732 -0.1006  0.0219 -0.5948
   14MOL   H416 9802   5.340   2.344   4.488  1.7625  1.3010  0.4260
   14MOL   H417 9803   5.319   2.581   4.572  1.0262 -0.5201  1.9805
   14MOL   H418 9804   5.191   2.720   4.577  1.8150 -1.0423  1.6284
   14MOL   H419 9805   5.153   2.933   4.792 -1.4356  2.4643 -0.2435
   14MOL   H420 9806   5.244   2.956   4.642 -0.5747  1.3434 -0.3186
   14MOL   H421 9807   5.017   2.962   4.519  0.1156  0.8869 -0.6660
   14MOL   H422 9808   5.054   3.092   4.621 -1.9166  0.8454  0.0191
   14MOL   H423 9809   4.873   2.838   4.679 -0.9680 -0.4935  0.1239
   14MOL   H424 9810   4.888   2.968   4.792  1.2729 -0.3582 -0.1939
   14MOL   H425 9811   4.791   3.053   4.517  0.7388 -2.4168 -0.3206
   14MOL   H426 9812   4.778   3.131   4.669 -0.7405 -0.0755 -0.4796
   14MOL   H427 9813   4.609   2.966   4.733 -0.8914  0.7777  0.0049
   14MOL   H428 9814   4.647   2.880   4.574 -1.1043 -0.3584  1.0124
   14MOL   H429 9815   4.542   3.003   4.442  1.1552 -1.3651  0.2875
   14MOL   H430 9816   4.442   3.022   4.580  1.5989  0.8119  1.5452
   14MOL   H431 9817   4.636   3.234   4.595  0.8514 -0.7855 -0.1810
   14MOL   H432 9818   5.004   2.442   4.836 -2.5336 -2.0335 -1.5630
   14MOL   H433 9819   5.029   2.217   4.769  0.3553 -0.9659 -1.6406
   14MOL   C434 9820   4.540   3.283   4.438  0.2183  0.1596  0.3987
   14MOL   O435 9821   4.450   3.263   4.349  0.3672 -0.0860 -0.1587
   14MOL   C436 9822   4.597   3.418   4.464  0.0112  0.2337  0.2079
   14MOL   C437 9823   4.521   3.530   4.418 -0.2674  0.3810 -0.0131
   14MOL   C438 9824   4.567   3.655   4.453 -0.1759 -0.5416  0.7908
   14MOL   C439 9825   4.683   3.676   4.525 -0.1329  0.1710  0.9530
   14MOL   C440 9826   4.727   3.812   4.567 -0.3395 -0.2779  0.3138
   14MOL   O441 9827   4.849   3.837   4.597 -0.1874  0.3815 -0.1391
   14MOL   N442 9828   4.636   3.908   4.560 -0.3528  0.8692  0.3586
   14MOL   C443 9829   4.670   4.048   4.579  0.1344 -0.0867 -0.1180
   14MOL   C444 9830   4.577   4.119   4.677 -0.6979  0.6775  0.5333
   14MOL   C445 9831   4.614   4.269   4.696 -1.4400  0.2583  0.4675
   14MOL   C446 9832   4.745   4.300   4.761 -0.0942 -0.1930 -0.2518
   14MOL   C447 9833   4.789   4.218   4.882 -0.9749 -0.5762  0.0926
   14MOL   C448 9834   4.700   4.203   5.003 -0.0297  0.0684  1.4272
   14MOL   N449 9835   4.743   4.121   5.115  0.2038 -0.1983 -0.1520
   14MOL   C450 9836   4.778   3.569   4.545  0.2286 -0.0006  0.9849
   14MOL   C451 9837   4.723   3.439   4.533 -0.2752 -0.0781  0.2901
   14MOL   H452 9838   4.426   3.524   4.366 -0.0323  3.6256 -0.9206
   14MOL   H453 9839   4.507   3.741   4.427  1.4148  1.4274  3.3379
   14MOL   H454 9840   4.540   3.879   4.547 -0.3962  0.2644  1.8404
   14MOL   H455 9841   4.770   4.059   4.621  0.4106  1.3440 -1.0808
   14MOL   H456 9842   4.686   4.102   4.485 -0.1019  0.9834  0.4540
   14MOL   H457 9843   4.563   4.060   4.767 -2.0498  1.8676  1.1355
   14MOL   H458 9844   4.475   4.121   4.638 -0.3267 -1.8730 -0.6722
   14MOL   H459 9845   4.613   4.325   4.602 -0.5416  0.7948  0.7683
   14MOL   H460 9846   4.533   4.310   4.756 -0.7278  0.8295  1.0505
   14MOL   H461 9847   4.744   4.406   4.785  0.8395 -0.0514 -0.8123
   14MOL   H462 9848   4.825   4.278   4.690  1.0779 -1.6278  1.4736
   14MOL   H463 9849   4.877   4.273   4.914 -2.6208  0.7844  2.3440
   14MOL   H464 9850   4.826   4.122   4.843  0.1477  0.1468 -0.6852
   14MOL   H465 9851   4.689   4.308   5.031  1.0684  0.3269  0.9324
   14MOL   H466 9852   4.597   4.195   4.970  0.4936 -2.2045  0.2834
   14MOL   H467 9853   4.840   4.094   5.121  0.2727  0.2047  0.6266
   14MOL   H468 9854   4.880   3.586   4.576  0.3848  1.4584 -0.2951
   14MOL   H469 9855   4.783   3.352   4.553  0.8885  0.0036 -2.5730
   14MOL   C470 9856   4.665   4.095   5.225 -0.2907  0.8189  0.5977
   14MOL   O471 9857   4.559   4.148   5.249  0.0060  0.4422 -0.2916
   14MOL   C472 9858   4.737   3.991   5.311 -0.5991 -0.2421  0.3361
   14MOL   C473 9859   4.666   3.908   5.397  0.8393 -0.2815  0.6988
   14MOL   C474 9860   4.737   3.803   5.468 -0.7234  0.3229  0.3412
   14MOL   C475 9861   4.877   3.787   5.458  0.3328  0.1061 -0.0812
   14MOL   C476 9862   4.952   3.671   5.512  0.5059 -0.2066  0.3947
   14MOL   O477 9863   4.911   3.613   5.610 -0.4036  0.4072 -0.6273
   14MOL   N478 9864   5.058   3.626   5.442 -0.1546  0.7038 -0.2165
   14MOL   C479 9865   5.141   3.515   5.489  0.3115  0.2341  0.3354
   14MOL   C480 9866   5.285   3.532   5.431  0.1592 -0.0601 -0.5128
   14MOL   C481 9867   5.373   3.410   5.467 -0.3348  0.4711  0.8401
   14MOL   C482 9868   5.505   3.399   5.390  0.3519  0.0506 -0.1323
   14MOL   C483 9869   5.605   3.306   5.457  0.0708 -0.5107 -0.5939
   14MOL   C484 9870   5.735   3.289   5.389 -0.2966 -0.3847  0.2851
   14MOL   N485 9871   5.836   3.215   5.465 -0.0651  0.0076  0.1440
   14MOL   C486 9872   4.949   3.883   5.384 -0.3675 -0.0791  0.0480
   14MOL   C487 9873   4.877   3.982   5.310 -0.3988 -0.2927  0.1016
   14MOL   H488 9874   4.563   3.932   5.420  0.4755  1.7142 -2.6241
   14MOL   H489 9875   4.677   3.737   5.529 -2.8070  1.5634 -0.3138
   14MOL   H490 9876   5.087   3.688   5.368 -0.7969  2.4154  0.9588
   14MOL   H491 9877   5.142   3.500   5.597 -1.9779  2.3731  0.6825
   14MOL   H492 9878   5.099   3.420   5.455 -2.4402  1.8547 -0.9620
   14MOL   H493 9879   5.337   3.625   5.452 -0.1851  0.2555 -1.0661
   14MOL   H494 9880   5.276   3.540   5.323 -1.9078  2.1057 -0.2214
   14MOL   H495 9881   5.387   3.410   5.575  1.5007  2.4613  0.6490
   14MOL   H496 9882   5.325   3.317   5.439  0.5274 -0.2003  1.5915
   14MOL   H497 9883   5.556   3.494   5.375 -1.5604  1.0435 -0.6487
   14MOL   H498 9884   5.486   3.356   5.291  2.0667  0.1372 -0.5182
   14MOL   H499 9885   5.544   3.216   5.473  0.6880 -1.0344 -1.1366
   14MOL   H500 9886   5.620   3.350   5.555  3.6352  0.8074 -1.6840
   14MOL   H501 9887   5.715   3.247   5.291 -1.0349 -0.1656  0.3374
   14MOL   H502 9888   5.780   3.387   5.376 -2.4390  0.9059  2.1019
   14MOL   H503 9889   5.912   3.273   5.497 -0.6881  0.3909  0.9490
   14MOL   H504 9890   5.055   3.889   5.402 -0.2261 -0.5309 -0.6277
   14MOL   H505 9891   4.927   4.065   5.261 -2.1063  1.0168  0.5362
   14MOL   C506 9892   5.845   3.075   5.470 -0.1942  0.3994 -0.2964
   14MOL   O507 9893   5.768   2.998   5.419 -0.3172 -0.3161 -0.2906
   14MOL   C508 9894   5.966   3.021   5.539 -0.0844 -0.3485  0.0209
   14MOL   C509 9895   6.073   3.101   5.569  0.2527 -0.3195  0.7074
   14MOL   C510 9896   6.191   3.056   5.631  0.2454  0.1224 -0.4675
   14MOL   C511 9897   6.198   2.914   5.660 -0.1115  0.6163 -0.9188
   14MOL   C512 9898   6.328   2.849   5.719 -0.2976  0.2723  0.2350
   14MOL   O513 9899   6.346   2.729   5.703 -0.0843  0.1607  0.4741
   14MOL   N514 9900   6.416   2.931   5.771 -0.7257 -0.3988  0.5783
   14MOL   C515 9901   6.548   2.882   5.807  0.7067  0.6936  0.4045
   14MOL   C516 9902   6.658   2.965   5.741  0.1652 -0.2101 -0.6234
   14MOL   C517 9903   6.662   3.107   5.798 -0.2363 -0.0911 -0.1696
   14MOL   C518 9904   6.777   3.192   5.745  0.1802  0.1278  0.1902
   14MOL   C519 9905   6.770   3.332   5.820  0.6851  0.4338 -0.1858
   14MOL   C520 9906   6.913   3.389   5.822 -0.1023  0.3425 -0.0552
   14MOL   N521 9907   6.919   3.502   5.912  0.0833  0.9556  0.0151
   14MOL   C522 9908   6.087   2.829   5.632 -1.0061  1.1019  0.2694
   14MOL   C523 9909   5.970   2.886   5.571 -0.2669  0.4455 -0.1032
   14MOL   H524 9910   6.062   3.208   5.558  0.3154 -0.2509  1.2714
   14MOL   H525 9911   6.260   3.132   5.664  0.4739 -0.9959  1.7037
   14MOL   H526 9912   6.404   3.031   5.764 -2.6221 -0.7145 -1.4120
   14MOL   H527 9913   6.551   2.898   5.914  0.1399 -0.3282  0.5846
   14MOL   H528 9914   6.561   2.773   5.804 -1.7718  0.3730  0.2046
   14MOL   H529 9915   6.633   2.981   5.637 -2.7587 -1.6673 -0.1837
   14MOL   H530 9916   6.761   2.928   5.750  0.8778  2.4409  4.6552
   14MOL   H531 9917   6.568   3.156   5.774  0.0168  1.1626  1.2672
   14MOL   H532 9918   6.651   3.110   5.907  0.6086 -0.0642 -0.0851
   14MOL   H533 9919   6.759   3.221   5.641 -0.5268  0.1221  0.3078
   14MOL   H534 9920   6.869   3.135   5.755 -0.3373 -0.6617  0.5143
   14MOL   H535 9921   6.740   3.312   5.923 -1.6734 -2.3611 -1.3637
   14MOL   H536 9922   6.696   3.398   5.775  0.5574  1.2071  1.1423
   14MOL   H537 9923   6.985   3.313   5.854 -0.0865  1.2448  2.1057
   14MOL   H538 9924   6.938   3.417   5.720 -0.0289  0.0870 -0.1075
   14MOL   H539 9925   6.835   3.557   5.900 -1.7018 -1.6932  0.0022
   14MOL   H540 9926   6.094   2.726   5.663 -0.5688  0.9774 -0.2372
   14MOL   H541 9927   5.881   2.826   5.560  0.3524 -1.1231  3.0867
   14MOL   C542 9928   7.028   3.552   5.971  0.2005  0.1786 -0.0504
   14MOL   O543 9929   7.135   3.490   5.971  0.3104 -0.6474 -0.4077
   14MOL   C544 9930   7.019   3.682   6.041  0.1910 -0.0925 -1.0650
   14MOL   C545 9931   7.124   3.723   6.126  0.1082 -0.1169  0.0211
   14MOL   C546 9932   7.123   3.848   6.193 -0.1334  0.3793  0.0739
   14MOL   C547 9933   7.029   3.944   6.164 -0.4003  0.5981 -0.0985
   14MOL   C548 9934   7.033   4.073   6.236  0.4761  1.3023  0.2759
   14MOL   O549 9935   7.132   4.121   6.292  0.1054  0.1540  0.0683
   14MOL   N550 9936   6.913   4.135   6.242  0.2352 -0.2742 -0.5006
   14MOL   C551 9937   6.888   4.254   6.320  0.9645  0.6834  0.1925
   14MOL   C552 9938   6.793   4.340   6.246 -0.6137 -0.1989  0.3709
   14MOL   C553 9939   6.731   4.454   6.331 -0.0712  0.2627 -0.1865
   14MOL   C554 9940   6.620   4.535   6.253 -0.2131 -0.2309  0.1297
   14MOL   C555 9941   6.553   4.632   6.339  0.0872 -0.4434 -0.0958
   14MOL   C556 9942   6.451   4.715   6.270  0.1165 -0.0112 -0.0778
   14MOL   N557 9943   6.373   4.799   6.371 -0.1537  0.1761  0.3202
   14MOL   C558 9944   6.916   3.905   6.082 -0.2820 -0.8384  0.9261
   14MOL   C559 9945   6.914   3.774   6.023  0.2652  0.0046 -0.5457
   14MOL   H560 9946   7.207   3.655   6.144  2.0809  1.7947 -1.5620
   14MOL   H561 9947   7.188   3.869   6.277  1.1472 -1.2093 -0.4999
   14MOL   H562 9948   6.829   4.091   6.207  0.6454 -2.1726  0.8355
   14MOL   H563 9949   6.833   4.229   6.411  1.5094  2.3002  0.9862
   14MOL   H564 9950   6.981   4.297   6.357  1.4691  0.5231 -0.8719
   14MOL   H565 9951   6.710   4.279   6.209 -1.1893  0.7300  0.1127
   14MOL   H566 9952   6.841   4.382   6.158  0.6304 -0.0512  1.1002
   14MOL   H567 9953   6.690   4.410   6.422 -1.1973  0.4454 -0.6056
   14MOL   H568 9954   6.806   4.519   6.376 -0.2558  0.8170 -0.6773
   14MOL   H569 9955   6.542   4.471   6.212  1.1105 -1.7902  0.0139
   14MOL   H570 9956   6.670   4.584   6.170 -0.6000 -2.0477 -1.1986
   14MOL   H571 9957   6.631   4.699   6.374 -0.8913  2.1158 -2.6338
   14MOL   H572 9958   6.502   4.580   6.421  0.9501 -0.3769  0.4898
   14MOL   H573 9959   6.493   4.767   6.184  2.4592 -3.8466 -1.4188
   14MOL   H574 9960   6.371   4.656   6.224 -0.0977 -0.5723  0.9963
   14MOL   H575 9961   6.318   4.742   6.433 -2.1659  1.3062 -0.3724
   14MOL   H576 9962   6.839   3.979   6.069 -1.5593 -2.1683  0.7405
   14MOL   H577 9963   6.833   3.751   5.955  0.0197  0.1439 -0.3040
   14MOL   C578 9964   6.372   4.936   6.368  0.3819  0.6423 -0.4142
   14MOL   O579 9965   6.446   5.003   6.298 -0.4153 -0.0375  0.0355
   14MOL   C580 9966   6.275   5.000   6.466  0.0430  0.5100  0.6405
   14MOL   C581 9967   6.298   5.129   6.519  0.0477  0.4355  0.4689
   14MOL   C582 9968   6.218   5.188   6.622 -0.8882 -0.7393  0.4595
   14MOL   C583 9969   6.109   5.111   6.674  0.4836 -0.0288  0.2274
   14MOL   C584 9970   6.024   5.166   6.786 -0.3202 -0.2829 -0.3632
   14MOL   O585 9971   5.957   5.087   6.851 -0.6011  0.2826  0.0154
   14MOL   N586 9972   6.044   5.298   6.818  0.7510 -0.1070  0.0121
   14MOL   C587 9973   6.014   5.355   6.947 -0.4829  0.4260 -0.5261
   14MOL   C588 9974   6.127   5.442   7.007  0.2556 -0.4259  0.1038
   14MOL   C589 9975   6.118   5.480   7.156  0.3970  0.3097 -0.1321
   14MOL   C590 9976   6.217   5.592   7.207 -0.2043 -0.2431 -0.1889
   14MOL   C591 9977   6.361   5.538   7.189  0.5224  0.0550 -0.0178
   14MOL   C592 9978   6.461   5.628   7.257  0.3254 -0.5688 -0.5702
   14MOL   N593 9979   6.591   5.592   7.215 -0.5886 -0.9989  0.2419
   14MOL   C594 9980   6.073   4.990   6.611  0.1894 -0.4999 -0.7054
   14MOL   C595 9981   6.156   4.943   6.501 -0.0002  0.5438  0.1008
   14MOL   H596 9982   6.391   5.172   6.485  0.4557 -0.7082  0.1308
   14MOL   H597 9983   6.244   5.285   6.661 -0.5410  0.1815 -1.9268
   14MOL   H598 9984   6.088   5.348   6.743  1.9080  0.1327  0.8318
   14MOL   H599 9985   5.922   5.414   6.943 -0.7356  0.0679 -0.0568
   14MOL   H600 9986   5.991   5.274   7.015  2.0013  0.2955  0.2044
   14MOL   H601 9987   6.120   5.531   6.945  0.1848 -1.7561 -1.8719
   14MOL   H602 9988   6.225   5.395   6.999  1.5138  2.4486 -1.9517
   14MOL   H603 9989   6.016   5.511   7.175  0.7896  1.3610  0.3079
   14MOL   H604 9990   6.127   5.393   7.222  0.1735  1.1823  1.0553
   14MOL   H605 9991   6.197   5.613   7.312 -1.3365  0.7706 -0.5972
   14MOL   H606 9992   6.202   5.688   7.156 -0.8211  1.4964  3.1351
   14MOL   H607 9993   6.371   5.525   7.081 -0.2980  0.5177 -0.1546
   14MOL   H608 9994   6.381   5.439   7.229  0.8355  0.0877 -0.0927
   14MOL   H609 9995   6.451   5.732   7.225 -1.2396 -1.0531 -1.7121
   14MOL   H610 9996   6.448   5.629   7.365  0.6928  1.7337 -0.5135
   14MOL   H611 9997   6.611   5.499   7.182 -1.1056 -1.2312  0.5819
   14MOL   H612 9998   5.992   4.932   6.653 -1.0371  0.8016 -1.2417
   14MOL   H613 9999   6.119   4.848   6.466 -1.7680 -0.1627  3.6575
   14MOL   C61410000   6.689   5.678   7.195 -0.0720 -0.1336  0.3429
   14MOL   O61510001   6.687   5.791   7.237  0.0577  0.2415  0.1099
   14MOL   C61610002   6.808   5.623   7.122  0.2388  0.6748 -0.4222
   14MOL   C61710003   6.933   5.689   7.125  0.8209  0.7715  0.0748
   14MOL   C61810004   7.044   5.634   7.064  0.0168  0.8591  0.2596
   14MOL   C61910005   7.041   5.522   6.984  0.6706 -0.6984 -0.4132
   14MOL   C62010006   7.168   5.476   6.922  0.2910  0.3026  0.3930
   14MOL   O62110007   7.270   5.541   6.907 -0.9468  0.2294  0.0118
   14MOL   N62210008   7.167   5.341   6.902 -0.5335 -0.6600 -0.3877
   14MOL   C62310009   7.288   5.261   6.878  0.2749 -0.0331  0.3676
   14MOL   C62410010   7.305   5.233   6.730 -1.4445  0.3216  0.4728
   14MOL   C62510011   7.213   5.130   6.671  0.0224  0.0001 -0.5022
   14MOL   C62610012   7.231   5.121   6.517 -0.2149  0.1393  0.4929
   14MOL   C62710013   7.157   5.227   6.437  0.3934 -0.1211 -0.3943
   14MOL   C62810014   7.190   5.218   6.292 -0.5121 -0.1666 -0.3641
   14MOL   N62910015   7.106   5.305   6.215 -0.1894  0.2111 -0.4101
   14MOL   C63010016   6.913   5.458   6.969  0.2105 -1.0736  0.5832
   14MOL   C63110017   6.804   5.505   7.046  0.0205  0.1153  0.2149
   14MOL   H63210018   6.952   5.775   7.186 -1.6580  0.8332  0.7987
   14MOL   H63310019   7.140   5.679   7.084 -0.0254  1.4962 -0.9448
   14MOL   H63410020   7.076   5.301   6.918 -0.9228  0.3308 -0.0649
   14MOL   H63510021   7.382   5.299   6.920  0.4756 -1.4108  1.1638
   14MOL   H63610022   7.278   5.166   6.931  2.9028  1.0592  3.0235
   14MOL   H63710023   7.410   5.209   6.712 -1.4801 -0.7397  1.6465
   14MOL   H63810024   7.298   5.326   6.675 -2.0125 -1.0611 -1.8749
   14MOL   H63910025   7.218   5.030   6.715 -1.2873  0.5445  0.9044
   14MOL   H64010026   7.110   5.153   6.696  0.4339 -0.4436  1.7660
   14MOL   H64110027   7.210   5.022   6.477 -0.5614  1.2807 -2.2950
   14MOL   H64210028   7.335   5.128   6.489 -0.6884 -0.8561 -1.5914
   14MOL   H64310029   7.184   5.323   6.482 -2.9067  0.1617  1.0886
   14MOL   H64410030   7.049   5.220   6.451  0.4431 -1.9188 -0.8326
   14MOL   H64510031   7.293   5.248   6.272 -0.2312 -0.1609  1.1044
   14MOL   H64610032   7.178   5.118   6.251 -1.1822 -0.0128 -0.5655
   14MOL   H64710033   7.034   5.276   6.150 -1.0315  3.6103 -1.1319
   14MOL   H64810034   6.889   5.366   6.917 -1.2053 -1.3583  1.6803
   14MOL   H64910035   6.714   5.448   7.033  0.2009 -0.5516  1.8408
   14MOL   C65010036   7.109   5.438   6.228 -0.0154  0.2723 -0.0548
   14MOL   O65110037   7.187   5.500   6.300 -0.7505  0.0538 -0.0017
   14MOL   C65210038   6.996   5.511   6.158 -0.2009 -0.2345  0.3025
   14MOL   C65310039   6.972   5.492   6.022 -0.0441  0.2960 -0.1366
   14MOL   C65410040   6.865   5.564   5.966  0.1006 -0.2035 -0.3457
   14MOL   C65510041   6.793   5.660   6.033 -0.3352  0.5715  0.4164
   14MOL   C65610042   6.687   5.740   5.969 -0.6037 -0.0411  0.3723
   14MOL   O65710043   6.604   5.789   6.035  0.2896 -0.4926 -0.3718
   14MOL   N65810044   6.696   5.751   5.835  0.2453 -0.2696  0.1367
   14MOL   C65910045   6.592   5.815   5.754  0.1843  0.4371 -0.2797
   14MOL   C66010046   6.614   5.764   5.615 -0.4081  0.4896 -0.3691
   14MOL   C66110047   6.603   5.614   5.590 -0.3686  0.3319 -0.2894
   14MOL   C66210048   6.577   5.579   5.443 -0.0945 -0.5197  0.0171
   14MOL   C66310049   6.696   5.599   5.347 -0.6274 -0.6380  0.2204
   14MOL   C66410050   6.687   5.733   5.273  0.0870  0.7265 -0.0888
   14MOL   N66510051   6.817   5.768   5.211 -0.4751  0.4211  0.6107
   14MOL   C66610052   6.818   5.684   6.167 -0.4000  0.0974  0.0724
   14MOL   C66710053   6.919   5.609   6.229 -0.4830  0.2369  0.0525
   14MOL   H66810054   7.037   5.420   5.974 -0.6903 -1.8274  2.0550
   14MOL   H66910055   6.855   5.548   5.860  0.5944  0.9703 -0.5714
   14MOL   H67010056   6.771   5.707   5.784  0.4631  0.7319 -0.4191
   14MOL   H67110057   6.495   5.786   5.794  1.0770 -1.5920  0.5160
   14MOL   H67210058   6.608   5.923   5.753  1.8874  0.2194  0.1354
   14MOL   H67310059   6.716   5.793   5.587 -0.2712 -0.2760 -0.6724
   14MOL   H67410060   6.538   5.815   5.557 -1.4061 -3.8396 -3.1359
   14MOL   H67510061   6.691   5.575   5.640 -0.8487 -0.1599  0.1819
   14MOL   H67610062   6.528   5.573   5.659  1.2210 -4.5212 -1.2477
   14MOL   H67710063   6.492   5.636   5.405  0.0825 -0.5376 -0.4065
   14MOL   H67810064   6.552   5.473   5.444  0.0163 -0.5446  2.4234
   14MOL   H67910065   6.686   5.524   5.269 -2.5881 -0.8492  0.6446
   14MOL   H68010066   6.786   5.597   5.408 -0.5630 -0.7740  0.1210
   14MOL   H68110067   6.598   5.742   5.211  0.3353  0.1928 -0.5272
   14MOL   H68210068   6.687   5.808   5.352 -0.1277  0.4538  0.1700
   14MOL   H68310069   6.871   5.841   5.255  1.5333 -0.6317 -0.0513
   14MOL   H68410070   6.763   5.755   6.227 -0.8629 -2.0846  2.3494
   14MOL   H68510071   6.943   5.625   6.333  0.5503 -1.3387  0.0859
   14MOL   C68610072   6.871   5.698   5.108 -0.7473 -1.0633 -0.3055
   14MOL   O68710073   6.805   5.619   5.037 -0.0764  0.3932 -0.1908
   14MOL   C68810074   7.015   5.725   5.085  0.2215 -0.2454  0.3233
   14MOL   C68910075   7.078   5.681   4.963 -0.0889  0.3118 -0.0292
   14MOL   C69010076   7.208   5.723   4.931  0.0340 -0.0205 -0.4245
   14MOL   C69110077   7.283   5.808   5.020 -0.0724 -0.1302  0.2655
   14MOL   C69210078   7.416   5.863   4.970  0.8511  0.4731  0.6803
   14MOL   O69310079   7.433   5.884   4.848 -0.1098  0.3683  0.3903
   14MOL   N69410080   7.514   5.869   5.059  0.4170 -0.4780  0.6224
   14MOL   C69510081   7.652   5.896   5.026  0.3604  0.7408  0.8223
   14MOL   C69610082   7.735   5.817   5.124  0.2462 -0.7122 -0.6143
   14MOL   C69710083   7.877   5.781   5.086  0.0350  0.2344  0.3539
   14MOL   C69810084   0.058   5.708   5.200 -0.3891 -0.1777  0.2153
   14MOL   C69910085   0.206   5.691   5.182 -0.7275 -0.1190  0.2216
   14MOL   C70010086   0.278   5.598   5.287  1.3260  0.6147  0.4321
   14MOL   N70110087   0.275   5.661   5.411  0.2602 -0.0386 -0.3427
   14MOL   C70210088   7.226   5.845   5.146  0.3402 -0.0457 -0.3878
   14MOL   C70310089   7.094   5.800   5.179  0.3520 -0.4750  0.0356
   14MOL   H70410090   7.028   5.609   4.899  0.0560  0.4832 -0.3338
   14MOL   H70510091   7.255   5.682   4.843  0.3794  0.8072 -0.6315
   14MOL   H70610092   7.489   5.845   5.153 -0.3171  1.0679  0.8449
   14MOL   H70710093   7.668   5.864   4.923  0.1353 -1.2219  1.3717
   14MOL   H70810094   7.681   6.001   5.033  0.6076  0.8765 -1.6657
   14MOL   H70910095   7.685   5.724   5.151  2.3124 -1.3110  1.3444
   14MOL   H71010096   7.740   5.885   5.209  1.3227 -2.6856  0.9722
   14MOL   H71110097   7.886   5.723   4.994 -0.1077  2.2125 -0.9627
   14MOL   H71210098   0.058   5.864   5.063 -0.7110  1.5286  2.7140
   14MOL   H71310099   0.010   5.611   5.210 -0.1678 -0.3577 -0.4233
   14MOL   H71410100   0.040   5.754   5.297  1.3864  0.7030  0.1481
   14MOL   H71510101   0.251   5.790   5.177  1.8256 -1.3220 -1.6279
   14MOL   H71610102   0.215   5.653   5.080 -0.5953  0.4206  0.0358
   14MOL   H71710103   0.230   5.500   5.292  0.6037  0.9379 -0.0603
   14MOL   H71810104   0.378   5.565   5.261  1.1653 -0.1078  0.7115
   14MOL   H71910105   0.184   5.699   5.434  0.2623  1.1570 -2.2219
   14MOL   H72010106   7.278   5.911   5.213  0.5692  0.4352 -1.0411
   14MOL   H72110107   7.060   5.828   5.277  0.4371 -1.2941  0.3029
   14MOL   H72210108   0.342   5.736   5.421  0.4827 -0.4094  1.1668
   15MOL     C110109   4.305   0.961   0.305  0.3058  0.5828  0.2328
   15MOL     O210110   4.235   0.935   0.407 -0.0464  0.0458 -0.2361
   15MOL     C310111   4.452   0.964   0.295 -0.3877  0.4158 -0.1235
   15MOL     C410112   4.528   0.909   0.395  0.1194 -0.4397 -0.2720
   15MOL     C510113   4.669   0.905   0.382 -0.1604  0.3556 -0.2638
   15MOL     C610114   4.733   0.962   0.274 -0.1558 -0.6308 -0.0444
   15MOL     C710115   4.887   0.972   0.262 -0.0734  0.4883  0.5512
   15MOL     O810116   4.939   1.032   0.168 -0.1857  0.2486  0.6918
   15MOL     N910117   4.965   0.914   0.364  0.4668 -0.3744 -0.4371
   15MOL    C1010118   5.113   0.921   0.364 -0.2176  0.2536  0.5329
   15MOL    C1110119   5.167   1.051   0.434  0.0202  0.0554 -0.2806
   15MOL    C1210120   5.319   1.020   0.462  0.0457  0.4494 -0.0999
   15MOL    C1310121   5.403   1.045   0.337  0.4652 -0.2964  0.0838
   15MOL    C1410122   5.451   1.191   0.320  0.4492  0.0969 -0.5569
   15MOL    C1510123   5.554   1.203   0.202  0.5561  0.1857  0.1371
   15MOL    N1610124   5.613   1.337   0.202 -0.7243 -0.3337  0.6971
   15MOL    C1710125   4.658   1.016   0.171 -0.3137  0.2986 -0.5662
   15MOL    C1810126   4.516   1.011   0.182 -0.5546 -0.2283  0.3283
   15MOL    H1910127   4.482   0.865   0.483  1.9689  1.5977  1.7861
   15MOL    H2010128   4.730   0.867   0.462 -0.5197 -1.7738 -0.9871
   15MOL    H2110129   4.912   0.866   0.436  0.8198 -2.2155 -1.3592
   15MOL    H2210130   5.152   0.829   0.406 -1.2926  0.3599  1.8199
   15MOL    H2310131   5.141   0.914   0.259  1.8466 -1.7504  1.1908
   15MOL    H2410132   5.114   1.060   0.529  2.5141 -0.5769  1.2283
   15MOL    H2510133   5.146   1.143   0.380 -1.3664 -0.1956 -0.1759
   15MOL    H2610134   5.348   1.078   0.550 -0.6490  1.3768 -0.4728
   15MOL    H2710135   5.330   0.917   0.495 -0.3271  0.8900  1.4270
   15MOL    H2810136   5.352   1.014   0.246  0.2766 -1.3296  0.5360
   15MOL    H2910137   5.495   0.987   0.346  1.6235  1.2246 -1.4922
   15MOL    H3010138   5.493   1.239   0.409  0.6160 -0.3766 -0.3807
   15MOL    H3110139   5.364   1.243   0.279 -0.2685 -1.4064 -0.9655
   15MOL    H3210140   5.626   1.124   0.218 -1.3097 -1.2553  1.7385
   15MOL    H3310141   5.514   1.187   0.102 -1.2024 -1.6383  1.0831
   15MOL    H3410142   5.551   1.410   0.233 -3.3303 -1.2809 -2.1046
   15MOL    H3510143   4.704   1.075   0.093 -0.2115 -0.0191 -0.7490
   15MOL    H3610144   4.453   1.061   0.110  2.2501  0.5272 -1.6930
   15MOL    H3710145   4.244   0.990   0.219  2.0364  1.7575 -0.6274
   15MOL    C3810146   5.727   1.364   0.137 -0.0673 -0.3926  0.4353
   15MOL    O3910147   5.804   1.273   0.102  0.7609  0.5138  0.1673
   15MOL    C4010148   5.750   1.507   0.099  0.0999 -0.0617 -0.2344
   15MOL    C4110149   5.692   1.613   0.175  0.2372 -1.2204  0.4867
   15MOL    C4210150   5.718   1.750   0.142  0.5669  0.6583 -0.9727
   15MOL    C4310151   5.799   1.778   0.032 -0.2996  0.1534 -0.9602
   15MOL    C4410152   5.822   1.923   7.881  0.4278 -0.4198 -0.7250
   15MOL    O4510153   5.768   2.016   0.061  0.1267  0.8416 -0.1785
   15MOL    N4610154   5.894   1.948   7.769  0.4848 -0.0694  0.3630
   15MOL    C4710155   5.925   2.073   7.714  0.1208 -0.3418  1.0859
   15MOL    C4810156   6.073   2.113   7.741 -0.1595 -0.1890 -0.4252
   15MOL    C4910157   6.114   2.237   7.665 -0.1070  0.3352 -0.6929
   15MOL    C5010158   6.197   2.334   7.751  0.6033  0.1324  0.0985
   15MOL    C5110159   6.120   2.456   7.816 -0.4445  0.1218  0.3461
   15MOL    C5210160   6.026   2.427   0.043 -0.7529  0.6114  0.2072
   15MOL    N5310161   6.080   2.367   0.162  0.4109  0.2417  0.3578
   15MOL    C5410162   5.874   1.673   7.855 -0.5653  0.4887 -0.4133
   15MOL    C5510163   5.843   1.539   7.883  0.3047  0.4039 -0.1257
   15MOL    H5610164   5.630   1.588   0.260 -0.2958 -0.8131  0.2152
   15MOL    H5710165   5.684   1.828   0.208  1.4187 -1.6101  2.2516
   15MOL    H5810166   5.919   1.864   7.719 -2.6389 -0.4758 -0.6259
   15MOL    H5910167   5.897   2.069   7.609  0.5584 -1.1634  1.0004
   15MOL    H6010168   5.859   2.153   7.748 -1.8830 -0.9576 -1.3376
   15MOL    H6110169   6.145   2.039   7.705 -0.6029 -0.9212  0.1909
   15MOL    H6210170   6.098   2.129   7.845  2.2613 -3.6248 -0.3989
   15MOL    H6310171   6.174   2.211   7.579  2.4410  1.5272  0.6882
   15MOL    H6410172   6.027   2.286   7.621 -1.0240  0.3557  1.0803
   15MOL    H6510173   6.266   2.384   7.682 -0.5450 -1.4745 -2.3063
   15MOL    H6610174   6.269   2.286   7.817  2.2432 -0.7826 -2.2555
   15MOL    H6710175   6.075   2.510   7.733 -2.5175 -1.5870  0.3087
   15MOL    H6810176   6.207   2.516   7.843  0.2091  0.3295 -2.1406
   15MOL    H6910177   5.980   2.520   0.075  0.0069  0.7499  0.9186
   15MOL    H7010178   5.951   2.360   0.000 -0.6565  1.6232 -1.5965
   15MOL    H7110179   6.059   2.269   0.177 -0.3649  0.2200 -0.8097
   15MOL    H7210180   5.954   1.691   7.785 -0.6199  2.9184  0.0971
   15MOL    H7310181   5.893   1.463   7.825 -2.5771 -1.2599 -0.4689
   15MOL    C7410182   6.141   2.439   0.259 -0.4503 -0.3024  0.0191
   15MOL    O7510183   6.202   2.546   0.239 -0.4188 -0.3715  0.0969
   15MOL    C7610184   6.143   2.376   0.397 -0.6865  0.3346 -0.4658
   15MOL    C7710185   6.243   2.416   0.487  0.1046 -0.2977 -0.4666
   15MOL    C7810186   6.245   2.372   0.622  0.6677  0.5997 -0.3366
   15MOL    C7910187   6.164   2.264   0.660  0.5559  0.0549 -0.4965
   15MOL    C8010188   6.165   2.221   0.808  0.0140 -0.2730 -0.2730
   15MOL    O8110189   6.134   2.109   0.835  0.1740 -0.4542 -0.4332
   15MOL    N8210190   6.210   2.295   0.904 -0.1407 -0.0618 -0.0274
   15MOL    C8310191   6.233   2.262   1.044 -0.2644 -0.2044 -0.0321
   15MOL    C8410192   6.170   2.365   1.137  0.3261  0.9171 -0.2390
   15MOL    C8510193   6.236   2.499   1.112  0.2479 -0.3187 -0.1767
   15MOL    C8610194   6.232   2.608   1.219  0.2522  0.3216  0.1180
   15MOL    C8710195   6.309   2.555   1.339 -0.1002 -0.2788  0.0607
   15MOL    C8810196   6.456   2.517   1.326 -0.3433  0.1108  0.2658
   15MOL    N8910197   6.533   2.473   1.448  0.1773  0.0764 -0.5840
   15MOL    C9010198   6.066   2.215   0.566 -0.2015  1.2200 -0.6088
   15MOL    C9110199   6.053   2.275   0.439  0.0166 -0.5557 -0.9801
   15MOL    H9210200   6.316   2.485   0.446 -0.5206  0.8967  0.4291
   15MOL    H9310201   6.316   2.413   0.693  2.1368 -0.4838 -1.1701
   15MOL    H9410202   6.244   2.386   0.878 -0.3339 -0.9038 -3.5610
   15MOL    H9510203   6.190   2.172   1.088 -0.7675  0.4917  0.9394
   15MOL    H9610204   6.338   2.252   1.069 -0.9829 -1.6354  2.5966
   15MOL    H9710205   6.183   2.326   1.238 -0.7193  0.6252 -0.2176
   15MOL    H9810206   6.062   2.361   1.128  0.5191  1.3842 -3.4902
   15MOL    H9910207   6.341   2.489   1.083  0.3325  0.2243 -0.0669
   15MOL   H10010208   6.185   2.538   1.024 -2.1653 -1.1653  0.8228
   15MOL   H10110209   6.129   2.621   1.252  0.3967 -0.0795  0.7367
   15MOL   H10210210   6.280   2.702   1.192 -0.2894  0.9348  1.2655
   15MOL   H10310211   6.248   2.478   1.386 -2.7448  1.0971 -1.0135
   15MOL   H10410212   6.294   2.627   1.420  2.7838 -0.6798  1.0049
   15MOL   H10510213   6.467   2.443   1.247  0.0810  2.0380 -1.5478
   15MOL   H10610214   6.525   2.593   1.288  1.0527 -0.9918  0.5254
   15MOL   H10710215   6.575   2.547   1.503 -1.2553  0.6812 -0.2515
   15MOL   H10810216   6.003   2.132   0.592  1.1109  0.2840 -0.3609
   15MOL   H10910217   5.984   2.233   0.367  0.4815 -1.4407 -0.9040
   15MOL   C11010218   6.522   2.352   1.498  0.2017  0.2800  0.6694
   15MOL   O11110219   6.466   2.269   1.431 -0.2847 -0.4683 -0.1193
   15MOL   C11210220   6.577   2.327   1.637  0.0038  0.0826 -1.0652
   15MOL   C11310221   6.534   2.400   1.750 -0.0851  0.4842 -0.1534
   15MOL   C11410222   6.579   2.372   1.881 -0.1251 -0.3453 -0.0571
   15MOL   C11510223   6.661   2.265   1.903 -0.5481 -0.3308 -0.0088
   15MOL   C11610224   6.707   2.226   2.042  1.0392  0.5433  0.5760
   15MOL   O11710225   6.746   2.114   2.067 -0.4640 -0.0092 -0.4245
   15MOL   N11810226   6.699   2.327   2.129  0.4769  0.1303 -0.0147
   15MOL   C11910227   6.750   2.334   2.257 -0.2253  0.2088  0.3497
   15MOL   C12010228   6.758   2.484   2.302 -0.3318 -1.4261 -0.0357
   15MOL   C12110229   6.854   2.505   2.426 -0.4232  0.5296 -0.1760
   15MOL   C12210230   6.873   2.647   2.479 -0.4055 -0.2639  0.0618
   15MOL   C12310231   6.989   2.657   2.569  0.0354 -0.5811 -0.5835
   15MOL   C12410232   7.011   2.804   2.622  0.1377 -0.5044  0.5985
   15MOL   N12510233   6.895   2.840   2.699  0.3946 -0.3213 -0.0846
   15MOL   C12610234   6.706   2.190   1.794 -0.1022 -0.3986  0.2577
   15MOL   C12710235   6.663   2.219   1.662 -0.8037 -0.8501 -0.7188
   15MOL   H12810236   6.464   2.480   1.733  0.9387  1.1116 -1.4932
   15MOL   H12910237   6.534   2.434   1.958 -0.3647  1.9204 -1.9437
   15MOL   H13010238   6.673   2.418   2.092  2.1976  0.5273 -0.2588
   15MOL   H13110239   6.684   2.290   2.332 -0.2135 -0.0469  0.2092
   15MOL   H13210240   6.851   2.292   2.264  0.1664  1.3453  2.0408
   15MOL   H13310241   6.657   2.521   2.319  0.6070 -0.4200  3.8072
   15MOL   H13410242   6.798   2.531   2.212  2.1727  0.3113  1.9277
   15MOL   H13510243   6.831   2.434   2.505  0.3463  0.5355  0.0624
   15MOL   H13610244   6.949   2.467   2.389 -0.4587 -0.2172  0.4972
   15MOL   H13710245   6.786   2.682   2.535  1.1897 -0.0023  2.4277
   15MOL   H13810246   6.890   2.714   2.394 -2.8268 -0.5114 -0.6539
   15MOL   H13910247   7.079   2.632   2.513  0.6120 -3.9809  1.6990
   15MOL   H14010248   6.986   2.595   2.659 -0.2924 -0.7850 -0.7338
   15MOL   H14110249   7.102   2.821   2.678  0.5308  0.7389 -0.4025
   15MOL   H14210250   7.033   2.878   2.545 -1.9663 -1.1851 -0.7221
   15MOL   H14310251   6.827   2.768   2.719 -1.7059  1.5259 -0.2811
   15MOL   H14410252   6.780   2.111   1.800 -0.4511 -0.7276  0.2054
   15MOL   H14510253   6.705   2.167   1.577  0.5795  1.8603 -1.7428
   15MOL   C14610254   6.874   2.957   2.753  0.0888 -0.1120  0.8203
   15MOL   O14710255   6.964   3.041   2.751  0.3190 -0.0944 -0.6572
   15MOL   C14810256   6.740   2.978   2.815  0.3294  0.0151 -0.5230
   15MOL   C14910257   6.722   3.041   2.939 -0.2549 -0.3539 -0.0824
   15MOL   C15010258   6.594   3.052   2.997  0.3359 -0.0486  0.4394
   15MOL   C15110259   6.481   2.998   2.934  0.2966  0.4605  0.4355
   15MOL   C15210260   6.348   3.006   3.002 -0.0569 -0.0085  0.0166
   15MOL   O15310261   6.274   2.904   2.990  0.5425  0.5580 -0.2482
   15MOL   N15410262   6.322   3.118   3.071  0.3466  0.0900  0.0598
   15MOL   C15510263   6.221   3.132   3.176  0.6899 -0.5646 -0.6143
   15MOL   C15610264   6.287   3.144   3.313  0.1023  0.1795  0.2670
   15MOL   C15710265   6.315   3.010   3.376 -0.1458  0.1821  0.0338
   15MOL   C15810266   6.443   2.988   3.458 -1.1276 -0.3086 -0.0240
   15MOL   C15910267   6.570   2.995   3.379 -0.3228 -0.5260 -0.6585
   15MOL   C16010268   6.688   2.939   3.454 -0.3887  0.2211  0.4710
   15MOL   N16110269   6.808   2.948   3.377 -0.0694 -0.6850  0.6505
   15MOL   C16210270   6.495   2.932   2.811 -0.5158 -0.1598  0.2442
   15MOL   C16310271   6.624   2.929   2.755 -0.0817 -0.2406  0.2080
   15MOL   H16410272   6.804   3.089   2.990  0.4155 -1.4931 -0.0559
   15MOL   H16510273   6.596   3.087   3.098  1.3040 -0.3295  0.5248
   15MOL   H16610274   6.387   3.195   3.066 -0.6471  0.8506 -1.3603
   15MOL   H16710275   6.153   3.213   3.153  2.6833  0.9832 -1.2403
   15MOL   H16810276   6.152   3.048   3.176 -0.4111  0.3418 -1.4903
   15MOL   H16910277   6.226   3.199   3.385 -1.4394 -0.8560 -0.2315
   15MOL   H17010278   6.377   3.207   3.311  0.2897  0.0142  2.2415
   15MOL   H17110279   6.227   3.005   3.440  1.3234  0.2150  2.0966
   15MOL   H17210280   6.317   2.932   3.299  0.3084  0.3786 -0.1506
   15MOL   H17310281   6.440   2.890   3.505  2.2076 -0.6772 -0.4727
   15MOL   H17410282   6.434   3.060   3.540  0.1445  0.9388 -0.9440
   15MOL   H17510283   6.585   3.100   3.357  3.8648 -0.8318  0.4241
   15MOL   H17610284   6.558   2.953   3.279 -2.0325  0.3978 -0.8595
   15MOL   H17710285   6.698   2.998   3.545  0.8247  0.0733  0.4438
   15MOL   H17810286   6.664   2.836   3.481 -1.3075 -0.7837 -3.7993
   15MOL   H17910287   6.829   3.038   3.335 -0.2534 -0.9815 -0.0901
   15MOL   H18010288   6.411   2.893   2.755  0.8651  2.3236 -3.8503
   15MOL   H18110289   6.619   2.874   2.662 -0.9888  2.1092 -1.1619
   15MOL   C18210290   6.882   2.851   3.323  0.0497  0.7072 -0.5205
   15MOL   O18310291   6.869   2.730   3.341  0.2928  0.2653  0.0204
   15MOL   C18410292   6.981   2.905   3.222  0.1031  0.0363  0.3262
   15MOL   C18510293   6.994   2.833   3.103 -0.0446 -0.5303  0.3402
   15MOL   C18610294   7.098   2.864   3.011 -0.3341  0.3449 -0.1167
   15MOL   C18710295   7.174   2.981   3.033  0.5179  0.4744  0.3108
   15MOL   C18810296   7.289   3.024   2.948 -0.0800  0.4977 -0.4174
   15MOL   O18910297   7.397   3.048   2.987 -0.1054 -0.2105 -0.3819
   15MOL   N19010298   7.259   3.038   2.826  0.4173 -0.4622 -0.8300
   15MOL   C19110299   7.359   3.037   2.720 -0.2659  0.3379  0.9733
   15MOL   C19210300   7.302   3.078   2.580 -0.5124 -0.0912  0.4565
   15MOL   C19310301   7.237   3.215   2.580 -0.2743  0.1416 -0.1728
   15MOL   C19410302   7.338   3.333   2.593 -1.0464  0.8460 -0.1877
   15MOL   C19510303   7.262   3.462   2.634 -0.5058  0.6733 -0.3091
   15MOL   C19610304   7.175   3.518   2.528 -1.1303 -0.2523  0.1217
   15MOL   N19710305   7.097   3.634   2.579 -0.0896 -1.0436  0.4555
   15MOL   C19810306   7.150   3.057   3.153  0.2765 -0.2301  0.7319
   15MOL   C19910307   7.058   3.017   3.249 -0.4601  0.2163  0.1011
   15MOL   H20010308   6.926   2.752   3.080 -1.0999  0.5760 -0.5578
   15MOL   H20110309   7.116   2.799   2.928  0.8032 -1.3867  1.4591
   15MOL   H20210310   7.163   3.010   2.813  1.3507 -5.5053  2.0341
   15MOL   H20310311   7.445   3.102   2.735  1.2471 -1.1072 -1.0854
   15MOL   H20410312   7.391   2.934   2.704  0.4859  0.9539 -1.7769
   15MOL   H20510313   7.227   3.009   2.543 -1.2660  0.3469  1.1381
   15MOL   H20610314   7.390   3.074   2.517 -0.3198 -1.6037  0.8068
   15MOL   H20710315   7.182   3.223   2.486 -0.7302 -0.4626  0.0338
   15MOL   H20810316   7.161   3.210   2.658  2.1602 -0.7365  2.2278
   15MOL   H20910317   7.398   3.337   2.503 -0.9089 -0.2414 -0.1458
   15MOL   H21010318   7.401   3.307   2.678 -4.3723  1.2785  2.5565
   15MOL   H21110319   7.340   3.534   2.659 -0.3143  0.8461 -1.3938
   15MOL   H21210320   7.203   3.445   2.725  0.7516 -2.1846  0.0483
   15MOL   H21310321   7.231   3.565   2.447  0.8283 -0.5204  1.3115
   15MOL   H21410322   7.105   3.448   2.481  0.8524 -0.2887 -2.8996
   15MOL   H21510323   7.124   3.674   2.668 -1.7729  0.5201  0.2791
   15MOL   H21610324   7.219   3.136   3.179  0.3064 -0.0710  0.1932
   15MOL   H21710325   7.049   3.076   3.339  1.3384  0.2488  0.2725
   15MOL   C21810326   7.007   3.708   2.513  0.1005 -0.9377  0.1000
   15MOL   O21910327   6.968   3.685   2.396  0.0471 -0.0378 -0.0251
   15MOL   C22010328   6.959   3.823   2.583 -0.3533 -0.0639 -0.4416
   15MOL   C22110329   6.987   3.853   2.725 -0.4573  0.0347  0.2257
   15MOL   C22210330   6.924   3.968   2.780 -1.3866  0.0214  0.1201
   15MOL   C22310331   6.839   4.055   2.713  0.8698 -0.0707  0.4109
   15MOL   C22410332   6.778   4.169   2.784 -0.4740  0.2090 -0.0784
   15MOL   O22510333   6.752   4.164   2.905  0.2099 -0.3802 -0.7054
   15MOL   N22610334   6.747   4.279   2.714  0.1976 -0.4049 -0.2396
   15MOL   C22710335   6.674   4.391   2.761 -0.1281 -0.5322 -0.5004
   15MOL   C22810336   6.614   4.479   2.639  0.0110 -0.1023 -0.9607
   15MOL   C22910337   6.503   4.412   2.567 -0.2595  0.2552  0.2525
   15MOL   C23010338   6.471   4.484   2.433  0.1587 -0.5317  0.1745
   15MOL   C23110339   6.340   4.436   2.374 -0.0757 -0.4076  0.1668
   15MOL   C23210340   6.327   4.280   2.355 -0.0376  0.0011 -0.5874
   15MOL   N23310341   6.446   4.218   2.298  0.1535  0.2844  0.5784
   15MOL   C23410342   6.813   4.023   2.573  0.0590 -0.6563 -0.7292
   15MOL   C23510343   6.871   3.912   2.513  0.4433  0.1775 -0.1765
   15MOL   H23610344   7.053   3.799   2.792  1.3807  2.3299  0.3347
   15MOL   H23710345   6.927   3.979   2.887 -1.5502 -0.1617  0.1445
   15MOL   H23810346   6.761   4.277   2.614 -3.7573  3.2605 -1.0288
   15MOL   H23910347   6.594   4.369   2.831  1.8268 -0.2819  1.8853
   15MOL   H24010348   6.735   4.463   2.816  0.5286 -0.3695 -1.4170
   15MOL   H24110349   6.682   4.506   2.558 -0.5987  2.7699 -0.5467
   15MOL   H24210350   6.575   4.571   2.681 -1.0618 -0.7427 -0.5408
   15MOL   H24310351   6.539   4.311   2.551 -0.5232  0.2057 -0.0373
   15MOL   H24410352   6.413   4.408   2.628 -0.2399  1.5742  0.3910
   15MOL   H24510353   6.553   4.470   2.362 -2.1057 -3.7973 -1.9341
   15MOL   H24610354   6.459   4.590   2.455  2.1716 -0.3532  0.5561
   15MOL   H24710355   6.331   4.483   2.277 -3.4863  1.1133  1.1413
   15MOL   H24810356   6.258   4.465   2.440 -0.4601 -0.1917 -0.4027
   15MOL   H24910357   6.313   4.234   2.454 -0.9402  1.7061  0.0973
   15MOL   H25010358   6.237   4.253   2.301 -1.2592  2.1066  0.3396
   15MOL   H25110359   6.514   4.284   2.262  2.0072 -1.9201 -0.0750
   15MOL   H25210360   6.731   4.073   2.523  0.3330 -0.3498 -0.8742
   15MOL   H25310361   6.854   3.894   2.407 -1.3351  2.2461 -0.2800
   15MOL   C25410362   6.471   4.087   2.281 -0.8370  0.7080 -0.7132
   15MOL   O25510363   6.385   4.001   2.316  0.1702 -0.6998  0.1931
   15MOL   C25610364   6.603   4.044   2.217 -0.5970 -0.2030  0.9179
   15MOL   C25710365   6.631   3.909   2.191  0.3656  0.0639  0.0025
   15MOL   C25810366   6.753   3.867   2.123  0.6770 -0.2187 -0.3028
   15MOL   C25910367   6.853   3.964   2.099  0.3515  0.0545 -0.5990
   15MOL   C26010368   6.988   3.927   2.035 -0.1101 -0.5787 -0.1666
   15MOL   O26110369   7.049   4.002   1.961 -0.2446  0.4823 -0.5781
   15MOL   N26210370   7.026   3.808   2.088  0.2855 -0.1730  0.8980
   15MOL   C26310371   7.159   3.753   2.068 -0.2670  0.0478 -0.8841
   15MOL   C26410372   7.174   3.602   2.094 -0.0265 -0.1135  0.2363
   15MOL   C26510373   7.309   3.541   2.043 -0.1233  0.5186 -0.6498
   15MOL   C26610374   7.330   3.397   2.071 -0.2229 -0.1170 -0.1520
   15MOL   C26710375   7.232   3.307   1.987 -0.3024  0.6054  0.0804
   15MOL   C26810376   7.275   3.163   1.997 -0.1151  0.0617 -0.3668
   15MOL   N26910377   7.168   3.098   1.928  0.4886  0.0319 -0.2888
   15MOL   C27010378   6.836   4.100   2.141  0.2391  0.5387 -0.5926
   15MOL   C27110379   6.708   4.141   2.191  0.2458 -0.1868 -0.2726
   15MOL   H27210380   6.558   3.835   2.222  2.1575 -1.8391 -0.2374
   15MOL   H27310381   6.774   3.762   2.112  2.3726  0.2172 -1.2961
   15MOL   H27410382   6.972   3.768   2.163 -2.2818  1.2005 -0.1522
   15MOL   H27510383   7.206   3.780   1.974 -0.7109  1.4436 -0.7046
   15MOL   H27610384   7.223   3.807   2.137 -1.6950  2.3173 -1.3056
   15MOL   H27710385   7.087   3.555   2.050 -0.6804 -1.0594  2.4951
   15MOL   H27810386   7.164   3.589   2.202  1.5966  0.8250  0.5226
   15MOL   H27910387   7.313   3.558   1.936 -2.3957 -0.0694 -0.8594
   15MOL   H28010388   7.383   3.610   2.084 -0.8768  1.2231 -0.4457
   15MOL   H28110389   7.332   3.386   2.180  1.2454  1.8624  0.0345
   15MOL   H28210390   7.432   3.370   2.047  0.1027  0.2551  0.7758
   15MOL   H28310391   7.235   3.331   1.880 -0.9860  1.7107  0.3090
   15MOL   H28410392   7.129   3.322   2.017 -0.2080 -1.0478  1.3156
   15MOL   H28510393   7.374   3.149   1.952 -1.3075 -0.7753 -2.7994
   15MOL   H28610394   7.268   3.146   2.104  0.7449  1.6150 -0.0394
   15MOL   H28710395   7.152   3.137   1.837  1.0936  1.6345  0.2746
   15MOL   H28810396   6.914   4.168   2.111  2.4203 -2.1988 -1.3093
   15MOL   H28910397   6.689   4.242   2.223 -0.2801 -0.5897  0.7000
   15MOL   C29010398   7.096   2.986   1.965  0.3648 -0.2864  0.4503
   15MOL   O29110399   7.118   2.929   2.065  0.9646  0.2422  0.2419
   15MOL   C29210400   6.985   2.941   1.878  0.4198  0.5700  0.1868
   15MOL   C29310401   6.921   2.813   1.878 -0.3451 -0.1475  0.6543
   15MOL   C29410402   6.827   2.777   1.779 -0.3787 -0.1523  0.6450
   15MOL   C29510403   6.784   2.872   1.683  0.3707 -0.1654  0.5727
   15MOL   C29610404   6.684   2.837   1.580 -0.5911 -0.1568  0.1149
   15MOL   O29710405   6.641   2.722   1.572 -0.7136  0.1539  0.2946
   15MOL   N29810406   6.630   2.939   1.516 -0.0271 -0.0071  0.0797
   15MOL   C29910407   6.527   2.922   1.414  0.3848 -0.0193  0.1540
   15MOL   C30010408   6.483   3.062   1.365  0.0192  0.2863  0.0161
   15MOL   C30110409   6.367   3.054   1.265 -0.3027  0.4746  0.0419
   15MOL   C30210410   6.304   3.194   1.235  0.0057 -0.5752  0.6892
   15MOL   C30310411   6.203   3.241   1.342  0.9696  0.3699  0.0808
   15MOL   C30410412   6.078   3.151   1.345  0.1175  0.0368 -0.1148
   15MOL   N30510413   6.002   3.148   1.468  0.5601  0.1819  0.0019
   15MOL   C30610414   6.832   3.004   1.696 -0.0976  0.0138  0.4614
   15MOL   C30710415   6.927   3.039   1.791 -0.3457 -0.2866 -0.7639
   15MOL   H30810416   6.950   2.737   1.950  0.9265  1.0744  1.4576
   15MOL   H30910417   6.783   2.678   1.775 -0.9981  0.1297  0.3907
   15MOL   H31010418   6.675   3.028   1.524 -1.8575  0.8895  0.6906
   15MOL   H31110419   6.570   2.867   1.330 -2.2347  0.6602 -1.7162
   15MOL   H31210420   6.444   2.872   1.465  0.8023  0.3499  1.1977
   15MOL   H31310421   6.570   3.117   1.332 -1.1868  1.3256 -1.4950
   15MOL   H31410422   6.436   3.112   1.450 -0.8769  0.2702 -0.4539
   15MOL   H31510423   6.391   3.001   1.173 -0.4745  0.6029 -0.0769
   15MOL   H31610424   6.293   2.987   1.311 -0.4572  0.4419 -0.2531
   15MOL   H31710425   6.273   3.188   1.131 -1.7201 -0.0836  1.1635
   15MOL   H31810426   6.384   3.268   1.243 -0.0780 -0.7361  3.7331
   15MOL   H31910427   6.172   3.343   1.321 -0.5789  0.4786  2.6977
   15MOL   H32010428   6.251   3.236   1.440 -1.4917 -0.4276  1.2929
   15MOL   H32110429   6.008   3.181   1.268 -1.0008  0.7948  1.1606
   15MOL   H32210430   6.107   3.050   1.318 -1.7144 -1.0300  1.7685
   15MOL   H32310431   6.018   3.067   1.527  0.5103  1.0498  1.2379
   15MOL   H32410432   6.801   3.089   1.638  0.9117  0.2007  0.1901
   15MOL   H32510433   6.967   3.139   1.786  1.6328 -1.0411 -0.7055
   15MOL   C32610434   5.921   3.246   1.506 -0.1644  0.0309 -0.2174
   15MOL   O32710435   5.906   3.340   1.431 -0.7811 -0.0282  0.6210
   15MOL   C32810436   5.837   3.225   1.629 -0.0962  0.1626 -0.5987
   15MOL   C32910437   5.737   3.323   1.655  0.1676  0.4438  0.6696
   15MOL   C33010438   5.675   3.324   1.782  0.2966  0.8095  0.0413
   15MOL   C33110439   5.707   3.231   1.882 -0.2028  0.1035 -0.4808
   15MOL   C33210440   5.631   3.234   2.013 -0.2352 -0.0180 -0.1707
   15MOL   O33310441   5.592   3.135   2.072 -0.5872 -0.0948  0.3342
   15MOL   N33410442   5.618   3.364   2.056 -0.5253  0.1738  0.0513
   15MOL   C33510443   5.550   3.401   2.184  0.1516 -0.5724 -0.2346
   15MOL   C33610444   5.404   3.433   2.159 -0.6069  0.0145  0.2605
   15MOL   C33710445   5.315   3.323   2.106  0.2673  0.2654  0.2390
   15MOL   C33810446   5.274   3.351   1.955  0.4354  0.2504 -0.5877
   15MOL   C33910447   5.191   3.241   1.898  0.1653 -0.0321  0.3188
   15MOL   C34010448   5.040   3.271   1.911  0.2653 -0.5279 -0.8135
   15MOL   N34110449   4.965   3.145   1.887  0.0462 -0.0675  0.1362
   15MOL   C34210450   5.807   3.135   1.850  0.0232  0.2304  0.4460
   15MOL   C34310451   5.873   3.128   1.726  0.0276 -0.4393 -0.0628
   15MOL   H34410452   5.714   3.398   1.581 -0.3082  0.4566  0.8333
   15MOL   H34510453   5.596   3.396   1.791  1.5786  2.1752  0.6992
   15MOL   H34610454   5.660   3.439   2.003  0.9407 -0.7108 -0.0592
   15MOL   H34710455   5.571   3.331   2.264  0.8627 -0.3282 -0.1991
   15MOL   H34810456   5.605   3.489   2.219 -0.4524 -0.8777  1.5231
   15MOL   H34910457   5.407   3.524   2.099 -0.6053 -0.5143 -0.5550
   15MOL   H35010458   5.356   3.452   2.255  0.4885  1.8748  0.4687
   15MOL   H35110459   5.370   3.230   2.114  0.3983  0.1781 -1.5289
   15MOL   H35210460   5.222   3.329   2.163 -0.5670 -1.0512 -0.9590
   15MOL   H35310461   5.361   3.368   1.891  1.0305  0.5421  0.2937
   15MOL   H35410462   5.214   3.441   1.946  0.2061  0.1183 -0.3878
   15MOL   H35510463   5.210   3.137   1.924 -0.8821  0.3188  2.5817
   15MOL   H35610464   5.195   3.234   1.789  0.0472 -2.2748  0.4459
   15MOL   H35710465   5.013   3.298   2.013 -0.2232 -0.9675 -0.8179
   15MOL   H35810466   5.005   3.349   1.844 -0.2717  1.1690  1.3944
   15MOL   H35910467   4.982   3.072   1.956 -2.4739 -0.0205  0.8403
   15MOL   H36010468   5.844   3.072   1.929 -1.8993 -1.3766  0.0729
   15MOL   H36110469   5.955   3.061   1.712  1.9200  2.3525 -3.0803
   15MOL   C36210470   4.915   3.112   1.767 -0.3005  0.1318 -0.6183
   15MOL   O36310471   4.919   3.186   1.665 -0.4737 -0.5285  0.2589
   15MOL   C36410472   4.843   2.981   1.757 -0.2753  0.3995 -0.1947
   15MOL   C36510473   4.883   2.866   1.830 -0.4721  0.4364  0.4598
   15MOL   C36610474   4.814   2.745   1.816 -0.7914  0.3105 -0.1284
   15MOL   C36710475   4.707   2.734   1.721 -0.2921  1.2558  0.4150
   15MOL   C36810476   4.643   2.596   1.700 -0.6734  0.4718  0.1322
   15MOL   O36910477   4.675   2.503   1.772 -0.5443  0.0513  0.1864
   15MOL   N37010478   4.554   2.589   1.601  0.2201  0.1873 -0.0712
   15MOL   C37110479   4.494   2.465   1.559  0.2743 -0.3849 -0.1261
   15MOL   C37210480   4.433   2.484   1.414  0.3192  0.4989 -0.6581
   15MOL   C37310481   4.305   2.559   1.401  0.1402  0.5306  0.3356
   15MOL   C37410482   4.268   2.570   1.249  0.2008 -0.5494  0.0508
   15MOL   C37510483   4.120   2.594   1.220 -0.0809  0.1370 -0.6859
   15MOL   C37610484   4.070   2.593   1.071 -0.7858  0.3823  0.0623
   15MOL   N37710485   3.932   2.548   1.074 -0.6919 -0.0118 -0.4002
   15MOL   C37810486   4.673   2.843   1.641 -1.1243 -0.3373  0.0660
   15MOL   C37910487   4.739   2.961   1.660 -0.6937 -0.3677 -0.0999
   15MOL   H38010488   4.967   2.859   1.897 -0.9101  1.2408  1.0920
   15MOL   H38110489   4.844   2.660   1.875 -0.3254 -0.9258 -2.0862
   15MOL   H38210490   4.525   2.673   1.551  2.0649 -0.6020 -2.5870
   15MOL   H38310491   4.565   2.383   1.564  1.4579  0.5719 -0.9826
   15MOL   H38410492   4.424   2.417   1.628  0.7771  1.5768  1.8084
   15MOL   H38510493   4.411   2.382   1.382 -0.0253  0.2664  0.3174
   15MOL   H38610494   4.515   2.525   1.354  2.2418 -1.0601  0.8262
   15MOL   H38710495   4.214   2.524   1.449  1.3022 -0.2140  2.0433
   15MOL   H38810496   4.323   2.658   1.444 -1.9655  0.9552  0.3005
   15MOL   H38910497   4.294   2.475   1.203 -0.7908 -0.5705 -0.4856
   15MOL   H39010498   4.330   2.646   1.203  3.5637 -2.4829  1.1607
   15MOL   H39110499   4.086   2.682   1.275  0.5799  0.3971 -0.6888
   15MOL   H39210500   4.054   2.518   1.261  0.0875  0.6532  0.5711
   15MOL   H39310501   4.094   2.689   1.024  0.5042  0.2888  0.5072
   15MOL   H39410502   4.118   2.517   1.010 -1.2711  0.0304  0.1251
   15MOL   H39510503   3.909   2.461   1.028  1.6224  0.5059 -2.6936
   15MOL   H39610504   4.604   2.835   1.559  1.6079  1.4833 -2.5464
   15MOL   H39710505   4.704   3.042   1.597  0.8757  1.4720  1.3213
   15MOL   C39810506   3.823   2.611   1.113  0.1911  0.2613  0.0459
   15MOL   O39910507   3.812   2.734   1.112 -0.0223 -0.4201  0.0793
   15MOL   C40010508   3.704   2.529   1.153  0.2125 -0.3857  0.5563
   15MOL   C40110509   3.713   2.424   1.243 -0.1349 -0.6425 -0.8590
   15MOL   C40210510   3.596   2.353   1.279 -0.2425  0.2459  0.2368
   15MOL   C40310511   3.468   2.380   1.224  0.4070 -0.0462  0.2778
   15MOL   C40410512   3.347   2.304   1.258 -0.1044 -0.1041  0.1582
   15MOL   O40510513   3.232   2.340   1.211  0.1315  0.5698  0.2113
   15MOL   N40610514   3.364   2.204   1.343 -0.3220  0.3416 -0.2705
   15MOL   C40710515   3.251   2.126   1.391  0.1674  0.0669 -1.2046
   15MOL   C40810516   3.172   2.193   1.503 -0.0256 -0.1576 -0.2103
   15MOL   C40910517   3.245   2.257   1.620 -0.4186 -0.0632  0.7408
   15MOL   C41010518   3.166   2.338   1.717 -0.0544 -0.1255  0.6019
   15MOL   C41110519   3.264   2.402   1.818 -0.6750 -0.2339 -1.2213
   15MOL   C41210520   3.187   2.488   1.911 -0.1238 -0.1669 -0.2714
   15MOL   N41310521   3.259   2.546   2.023 -0.0284  0.1893  0.5789
   15MOL   C41410522   3.463   2.486   1.126 -0.3113  0.6286  0.2065
   15MOL   C41510523   3.576   2.563   1.100 -0.3181 -0.3301 -0.4942
   15MOL   H41610524   3.804   2.398   1.295 -0.0442  1.8786  0.3117
   15MOL   H41710525   3.613   2.278   1.354 -1.3173 -0.0611  0.1819
   15MOL   H41810526   3.452   2.185   1.390 -1.0663 -0.3029  0.8829
   15MOL   H41910527   3.182   2.096   1.312 -1.5992 -0.3987  0.4742
   15MOL   H42010528   3.292   2.031   1.427  0.0828 -0.7830 -3.2635
   15MOL   H42110529   3.117   2.110   1.547  1.3746 -1.1445 -0.2872
   15MOL   H42210530   3.102   2.262   1.455  0.3303 -0.5653 -1.3328
   15MOL   H42310531   3.316   2.188   1.665 -0.5557  1.0881  2.7612
   15MOL   H42410532   3.305   2.333   1.571 -1.0742  0.3943  0.6475
   15MOL   H42510533   3.087   2.282   1.767  2.2021 -1.7894  2.4424
   15MOL   H42610534   3.118   2.410   1.651  0.2823 -0.8501 -0.4604
   15MOL   H42710535   3.348   2.452   1.771 -1.3947 -0.2867 -2.5773
   15MOL   H42810536   3.314   2.324   1.875 -1.8797 -0.9758 -1.1692
   15MOL   H42910537   3.136   2.563   1.850  0.8852  0.4974 -0.3033
   15MOL   H43010538   3.096   2.438   1.946 -0.5211 -0.0271 -1.0926
   15MOL   H43110539   3.260   2.646   2.035  0.4495  0.4424 -1.4029
   15MOL   H43210540   3.369   2.516   1.083 -0.4630 -0.8715 -0.5186
   15MOL   H43310541   3.571   2.646   1.032  1.3762  0.7712  0.6940
   15MOL   C43410542   3.309   2.489   2.134 -0.2435 -0.5557 -0.0112
   15MOL   O43510543   3.341   2.368   2.134  0.5033 -0.1856  0.0999
   15MOL   C43610544   3.323   2.578   2.254 -0.4375  0.3601  0.8657
   15MOL   C43710545   3.306   2.530   2.378 -0.3609 -0.4190 -0.2790
   15MOL   C43810546   3.318   2.612   2.491 -0.1731  0.5639  0.5002
   15MOL   C43910547   3.338   2.754   2.476 -0.2076  0.3006  0.5428
   15MOL   C44010548   3.329   2.847   2.590  0.8230 -0.1890  0.5803
   15MOL   O44110549   3.290   2.962   2.572 -0.1347  0.2171  0.6278
   15MOL   N44210550   3.375   2.805   2.708  0.4202  0.7173 -0.3083
   15MOL   C44310551   3.399   2.895   2.821  0.3624  0.0566 -0.0692
   15MOL   C44410552   3.513   2.989   2.781 -0.7999 -0.0145 -0.9018
   15MOL   C44510553   3.531   3.101   2.883  0.3793  0.3775  0.1213
   15MOL   C44610554   3.637   3.204   2.837  1.0981 -0.0143 -0.5229
   15MOL   C44710555   3.782   3.144   2.818  0.1766  0.7889  0.4729
   15MOL   C44810556   3.880   3.253   2.774 -0.4084 -0.4351 -0.8713
   15MOL   N44910557   3.994   3.192   2.705 -0.7125  0.4893 -0.1374
   15MOL   C45010558   3.361   2.803   2.345  0.1138  0.0963  0.8960
   15MOL   C45110559   3.354   2.713   2.232  0.0158 -0.4058 -0.1083
   15MOL   H45210560   3.290   2.424   2.395  3.5574 -1.0451  0.0112
   15MOL   H45310561   3.304   2.570   2.590  1.6789  0.1975  0.6224
   15MOL   H45410562   3.416   2.714   2.718  1.9858  1.4294 -0.0867
   15MOL   H45510563   3.301   2.940   2.837  0.7453  0.4999  1.0132
   15MOL   H45610564   3.429   2.836   2.907  2.2701 -1.3473 -1.6458
   15MOL   H45710565   3.501   3.036   2.683 -1.4093  0.9104 -0.3863
   15MOL   H45810566   3.600   2.927   2.758 -1.2793 -1.6894  1.7003
   15MOL   H45910567   3.435   3.145   2.910 -0.6520 -1.8738  0.2611
   15MOL   H46010568   3.557   3.066   2.983  0.8462  0.6585  0.0937
   15MOL   H46110569   3.633   3.282   2.913 -0.8876  0.1892 -0.8150
   15MOL   H46210570   3.598   3.250   2.746 -0.7287 -2.1586 -0.8666
   15MOL   H46310571   3.782   3.062   2.747 -1.4688  1.4695 -0.3437
   15MOL   H46410572   3.831   3.099   2.904  3.4656  0.4069 -1.5258
   15MOL   H46510573   3.832   3.322   2.704 -0.1051 -0.2522 -0.8984
   15MOL   H46610574   3.901   3.319   2.858  0.9646 -2.9990  0.8514
   15MOL   H46710575   3.996   3.092   2.690  3.7967  0.4888  0.0336
   15MOL   H46810576   3.373   2.910   2.335 -0.3509  0.0687 -0.0003
   15MOL   H46910577   3.378   2.752   2.134  0.4560 -0.0666  0.1301
   15MOL   C47010578   4.104   3.248   2.659 -0.1364  0.4678  0.7503
   15MOL   O47110579   4.135   3.367   2.681  0.7972  0.0514 -0.8168
   15MOL   C47210580   4.189   3.155   2.578 -0.1670 -0.1966 -1.1191
   15MOL   C47310581   4.316   3.202   2.538  0.1561 -0.2049 -0.1383
   15MOL   C47410582   4.410   3.122   2.472 -0.1414 -0.1170 -0.6152
   15MOL   C47510583   4.377   2.989   2.440  0.4026  0.3441 -0.2300
   15MOL   C47610584   4.469   2.897   2.369  0.1617  0.0229 -0.6734
   15MOL   O47710585   4.479   2.781   2.405 -0.7659 -0.1251  0.0322
   15MOL   N47810586   4.524   2.954   2.259  1.0916 -0.0662  0.4994
   15MOL   C47910587   4.561   2.875   2.146 -0.3617 -0.1460 -0.6355
   15MOL   C48010588   4.429   2.835   2.075  0.0306  0.0762  1.0506
   15MOL   C48110589   4.440   2.813   1.920 -0.4516  0.9188  0.1800
   15MOL   C48210590   4.312   2.768   1.844  0.0997 -0.6984  0.2682
   15MOL   C48310591   4.270   2.624   1.889 -0.0724  0.1008 -0.6384
   15MOL   C48410592   4.138   2.575   1.824  0.7340 -0.5634 -0.2864
   15MOL   N48510593   4.090   2.449   1.877  0.4027  0.6192  0.7509
   15MOL   C48610594   4.248   2.944   2.470 -0.0514  0.2062  0.8242
   15MOL   C48710595   4.155   3.027   2.538  0.3378  0.5694  0.0579
   15MOL   H48810596   4.362   3.295   2.566  0.4658 -0.4467  0.1770
   15MOL   H48910597   4.505   3.166   2.448 -0.8097  1.4251 -0.5085
   15MOL   H49010598   4.500   3.051   2.251 -0.5795 -0.6233 -1.4910
   15MOL   H49110599   4.628   2.928   2.077  0.8847 -0.5938  0.2145
   15MOL   H49210600   4.616   2.788   2.182  2.6635  1.6988 -0.6106
   15MOL   H49310601   4.355   2.913   2.092  2.1780  2.4888 -0.3513
   15MOL   H49410602   4.394   2.744   2.125 -0.4027 -0.4376 -0.1741
   15MOL   H49510603   4.484   2.903   1.878  0.9532  0.3730  0.4358
   15MOL   H49610604   4.512   2.732   1.909 -0.8430  0.4465  1.0996
   15MOL   H49710605   4.324   2.785   1.737  1.8440 -2.8329  0.0795
   15MOL   H49810606   4.228   2.828   1.878  0.8187 -0.0455  0.9094
   15MOL   H49910607   4.247   2.631   1.996 -0.2949  0.1009 -0.6865
   15MOL   H50010608   4.356   2.559   1.872 -0.4958 -0.6501  0.0665
   15MOL   H50110609   4.063   2.654   1.828  0.7450 -0.3575 -3.0078
   15MOL   H50210610   4.150   2.562   1.717  1.2987  0.0921 -0.3072
   15MOL   H50310611   4.118   2.420   1.970  0.9065  0.3255  0.5137
   15MOL   H50410612   4.227   2.846   2.429 -0.9227  1.0239 -0.7254
   15MOL   H50510613   4.052   2.995   2.537 -0.1481  2.0882 -0.6784
   15MOL   C50610614   4.012   2.363   1.805 -0.1471  0.5403 -0.5269
   15MOL   O50710615   3.975   2.377   1.691 -0.1840  0.1314  0.0781
   15MOL   C50810616   3.966   2.239   1.873 -0.1807 -0.1267 -0.2961
   15MOL   C50910617   3.923   2.253   2.006  0.2024  0.8323 -0.6230
   15MOL   C51010618   3.870   2.149   2.078 -0.7127  0.3047  1.1340
   15MOL   C51110619   3.850   2.028   2.016 -0.2279 -0.0597  0.0332
   15MOL   C51210620   3.797   1.909   2.088  0.3569  0.1940 -0.2223
   15MOL   O51310621   3.703   1.846   2.054 -1.0913 -0.4476 -0.3470
   15MOL   N51410622   3.870   1.875   2.195  1.1259 -0.8236 -0.1690
   15MOL   C51510623   3.869   1.753   2.272  0.0827 -0.6652  0.8625
   15MOL   C51610624   3.797   1.765   2.407  0.4193 -0.6389  0.0511
   15MOL   C51710625   3.859   1.880   2.492 -0.1728  0.7156  0.1329
   15MOL   C51810626   3.810   1.877   2.636  0.9874  0.5987  0.0008
   15MOL   C51910627   3.892   1.966   2.725 -0.3061  0.6233 -0.4438
   15MOL   C52010628   3.910   2.108   2.677 -0.2180 -0.5400  0.3647
   15MOL   N52110629   3.966   2.194   2.782  0.2318  0.9840  0.2741
   15MOL   C52210630   3.883   2.011   1.876  0.0785 -0.3665 -0.4474
   15MOL   C52310631   3.942   2.116   1.804 -0.7227 -0.9108  0.5349
   15MOL   H52410632   3.941   2.344   2.061 -0.6740  0.5657  0.1195
   15MOL   H52510633   3.839   2.182   2.177 -0.4185  1.6661  0.7920
   15MOL   H52610634   3.942   1.944   2.211  1.4634 -1.7456  2.4972
   15MOL   H52710635   3.814   1.673   2.223  0.6582  0.6972 -2.1513
   15MOL   H52810636   3.971   1.718   2.291  0.8293  1.8340  1.5688
   15MOL   H52910637   3.801   1.669   2.457  0.7000  0.5142  2.3285
   15MOL   H53010638   3.692   1.793   2.398  0.0800 -1.8339  0.2638
   15MOL   H53110639   3.965   1.864   2.477 -0.5099 -0.0735 -1.5278
   15MOL   H53210640   3.841   1.972   2.436 -0.9272 -0.0056 -0.8346
   15MOL   H53310641   3.824   1.776   2.672  0.2100 -0.4433 -2.5130
   15MOL   H53410642   3.706   1.910   2.647  0.6343 -0.8303  1.0078
   15MOL   H53510643   3.990   1.926   2.752 -1.4113 -1.9295 -0.0435
   15MOL   H53610644   3.841   1.978   2.821 -1.3002 -0.8738 -0.7737
   15MOL   H53710645   3.969   2.089   2.587 -0.1780 -0.8732  0.4614
   15MOL   H53810646   3.819   2.152   2.636  0.2780  0.8008  0.7029
   15MOL   H53910647   3.910   2.276   2.798 -2.5998 -0.5957 -1.0225
   15MOL   H54010648   3.853   1.918   1.830 -3.0993  0.4139 -0.0765
   15MOL   H54110649   3.955   2.111   1.697  0.5223 -1.8312  0.7218
   15MOL   C54210650   4.082   2.187   2.853  0.1243  0.3897 -0.7387
   15MOL   O54310651   4.163   2.094   2.839  0.9624 -0.0143 -0.8521
   15MOL   C54410652   4.100   2.291   2.954 -0.2413 -0.3064 -0.5886
   15MOL   C54510653   4.004   2.314   3.054  0.2704 -0.7636 -0.0418
   15MOL   C54610654   4.022   2.412   3.158  0.3493 -0.5672  0.1691
   15MOL   C54710655   4.135   2.491   3.167  0.4771  0.3831 -0.2638
   15MOL   C54810656   4.147   2.607   3.266  0.0423  0.4178  0.3939
   15MOL   O54910657   4.048   2.676   3.295  0.7459  0.0494  0.9174
   15MOL   N55010658   4.267   2.629   3.325  0.8328  0.6822  0.1762
   15MOL   C55110659   4.285   2.710   3.446 -0.0418 -0.5456 -0.4122
   15MOL   C55210660   4.406   2.802   3.427  0.6529  0.0317  0.2355
   15MOL   C55310661   4.422   2.884   3.550  0.3097 -1.0774  0.4163
   15MOL   C55410662   4.548   2.980   3.536  0.9369 -0.5289 -0.2613
   15MOL   C55510663   4.543   3.073   3.418  0.7673  0.2820 -0.4261
   15MOL   C55610664   4.656   3.172   3.431 -0.0886  0.3364 -0.3876
   15MOL   N55710665   4.657   3.277   3.325  0.6763 -0.2543  0.4259
   15MOL   C55810666   4.242   2.462   3.078 -1.1997 -0.9467  1.3074
   15MOL   C55910667   4.219   2.367   2.975  0.1804  0.6762  0.2924
   15MOL   H56010668   3.916   2.252   3.043 -0.8857  0.7746  0.4199
   15MOL   H56110669   3.947   2.425   3.235  0.1152 -3.0160  0.4197
   15MOL   H56210670   4.350   2.579   3.297  0.8014 -0.9763  2.8374
   15MOL   H56310671   4.192   2.765   3.461  0.7855  0.9940 -0.8446
   15MOL   H56410672   4.283   2.649   3.536 -0.0588  0.9707  0.6220
   15MOL   H56510673   4.378   2.862   3.341 -1.9270 -1.2861  0.1060
   15MOL   H56610674   4.489   2.733   3.408 -0.1077 -1.1040  0.9716
   15MOL   H56710675   4.331   2.940   3.574 -0.2226 -0.1895 -3.4572
   15MOL   H56810676   4.436   2.829   3.644  2.2450 -0.7060  0.3627
   15MOL   H56910677   4.642   2.925   3.538  2.2596  1.6235 -0.5448
   15MOL   H57010678   4.541   3.039   3.628 -1.0367  0.3169 -0.9324
   15MOL   H57110679   4.447   3.124   3.414 -1.4157 -3.6869 -1.6194
   15MOL   H57210680   4.547   3.020   3.322  0.8995  1.9003 -1.3392
   15MOL   H57310681   4.648   3.223   3.528  0.3560 -1.2883  0.5128
   15MOL   H57410682   4.747   3.112   3.432 -0.1687  0.2161  0.3003
   15MOL   H57510683   4.576   3.275   3.265 -0.4006  1.1433  1.7729
   15MOL   H57610684   4.339   2.509   3.088 -1.0689 -1.1467  1.0071
   15MOL   H57710685   4.308   2.344   2.918  0.5405 -0.2305  1.2123
   15MOL   C57810686   4.758   3.365   3.305  0.0166 -1.0767  0.0777
   15MOL   O57910687   4.855   3.377   3.385  0.2758  0.2275 -0.0074
   15MOL   C58010688   4.752   3.448   3.181  0.5652  0.0941 -0.0370
   15MOL   C58110689   4.859   3.512   3.131 -0.1869 -1.0865  0.0385
   15MOL   C58210690   4.858   3.605   3.019  0.1743 -0.0678 -0.2753
   15MOL   C58310691   4.730   3.642   2.967  0.6968  0.1454 -0.3510
   15MOL   C58410692   4.711   3.724   2.839  0.3035 -0.6348 -0.0989
   15MOL   O58510693   4.608   3.777   2.816  0.8129 -0.3894 -0.0278
   15MOL   N58610694   4.815   3.732   2.754  0.5337 -0.3383 -0.1177
   15MOL   C58710695   4.816   3.804   2.624 -0.1436  0.2367  0.1241
   15MOL   C58810696   4.952   3.837   2.551  0.7172  0.2645  0.0172
   15MOL   C58910697   5.033   3.931   2.640  0.0615 -1.3199 -0.6326
   15MOL   C59010698   5.169   3.970   2.576 -0.1372 -0.2346  0.9421
   15MOL   C59110699   5.277   4.012   2.682 -0.0553 -0.1076 -1.2747
   15MOL   C59210700   5.395   4.084   2.615  0.5757  0.1812  0.0701
   15MOL   N59310701   5.450   4.022   2.491 -0.0823  0.6621 -0.2544
   15MOL   C59410702   4.612   3.591   3.029 -0.0746  0.1269  0.0405
   15MOL   C59510703   4.627   3.490   3.132 -0.1293  0.3797  0.6053
   15MOL   H59610704   4.957   3.494   3.174  0.6531  0.5079 -1.1765
   15MOL   H59710705   4.951   3.638   2.975 -0.4344  1.0793 -0.7219
   15MOL   H59810706   4.898   3.684   2.786  1.2899  1.2836  0.4419
   15MOL   H59910707   4.753   3.740   2.562 -1.4800  1.6814 -0.0446
   15MOL   H60010708   4.759   3.897   2.632 -0.2560  0.3021 -1.2686
   15MOL   H60110709   4.931   3.879   2.453 -0.7684  1.1446  0.6893
   15MOL   H60210710   5.009   3.747   2.528  0.9849  0.2815  0.6176
   15MOL   H60310711   4.986   4.022   2.677 -1.7915 -1.6896 -2.0262
   15MOL   H60410712   5.043   3.876   2.734 -0.1697  0.3141  0.3715
   15MOL   H60510713   5.162   4.052   2.504 -0.7776 -1.0611  0.0619
   15MOL   H60610714   5.210   3.884   2.523  0.3562  1.5115 -1.5901
   15MOL   H60710715   5.304   3.922   2.736  1.9300  1.7144  0.9082
   15MOL   H60810716   5.236   4.081   2.756 -0.6366 -0.6041 -1.1301
   15MOL   H60910717   5.352   4.177   2.580  0.6520  1.2608  2.7348
   15MOL   H61010718   5.465   4.112   2.693 -0.5292 -1.5488  1.7599
   15MOL   H61110719   5.421   3.932   2.456  0.1919 -0.0028  1.1757
   15MOL   H61210720   4.517   3.623   2.989 -0.9529  0.2397  2.1528
   15MOL   H61310721   4.532   3.461   3.174  0.1424 -2.2593 -0.5361
   15MOL   C61410722   5.537   4.085   2.416 -0.5499  0.1119 -0.1699
   15MOL   O61510723   5.567   4.206   2.433 -0.2874 -0.1406 -0.0120
   15MOL   C61610724   5.588   4.003   2.298  0.2514 -0.5541 -0.3881
   15MOL   C61710725   5.610   4.064   2.169  0.2465  1.1198 -0.1339
   15MOL   C61810726   5.652   3.987   2.056  0.0019 -0.0045 -0.3866
   15MOL   C61910727   5.689   3.855   2.071  0.0217  0.2034  0.5766
   15MOL   C62010728   5.719   3.771   1.955 -0.1022  0.1730 -0.1648
   15MOL   O62110729   5.703   3.645   1.951 -0.0885  0.0347 -0.2483
   15MOL   N62210730   5.781   3.837   1.859  0.3153 -0.4578  0.3474
   15MOL   C62310731   5.823   3.777   1.733  0.0477 -0.0952 -0.7088
   15MOL   C62410732   5.711   3.768   1.632  0.0983 -0.4040 -0.1603
   15MOL   C62510733   5.757   3.734   1.486  0.1987  0.0984 -0.1927
   15MOL   C62610734   5.631   3.729   1.398  0.7131 -0.2732  0.3339
   15MOL   C62710735   5.660   3.673   1.254 -0.3374  0.0780 -0.3828
   15MOL   C62810736   5.538   3.693   1.156 -0.8720 -0.1569 -0.0682
   15MOL   N62910737   5.545   3.619   1.033  0.5067 -0.0187  0.1674
   15MOL   C63010738   5.671   3.796   2.200  0.6749 -0.1657 -0.0362
   15MOL   C63110739   5.616   3.865   2.308 -0.2071 -0.0503 -0.6026
   15MOL   H63210740   5.589   4.170   2.159 -3.1023  0.6649  1.6234
   15MOL   H63310741   5.646   4.028   1.956 -2.0745 -2.4282 -1.3251
   15MOL   H63410742   5.803   3.934   1.877 -0.4378  0.0069 -1.1381
   15MOL   H63510743   5.899   3.849   1.702  0.8672  0.4140  2.2994
   15MOL   H63610744   5.879   3.685   1.747 -0.5878 -0.1931  1.4158
   15MOL   H63710745   5.659   3.864   1.640  1.3393  0.0107  3.5678
   15MOL   H63810746   5.642   3.695   1.675 -0.8061  0.2514 -0.4751
   15MOL   H63910747   5.818   3.812   1.441  0.9977 -1.8683 -2.6008
   15MOL   H64010748   5.819   3.645   1.481 -0.4926 -0.2644 -4.4447
   15MOL   H64110749   5.567   3.817   1.402 -0.1276 -0.8549 -0.0597
   15MOL   H64210750   5.573   3.650   1.446 -1.2046 -0.4136 -2.1054
   15MOL   H64310751   5.681   3.566   1.261  0.0865  0.1575 -0.4146
   15MOL   H64410752   5.752   3.724   1.225  0.4759 -0.0059  1.9943
   15MOL   H64510753   5.438   3.674   1.197 -1.2612 -2.0633 -1.7890
   15MOL   H64610754   5.531   3.799   1.132 -1.5900  0.4475  2.7410
   15MOL   H64710755   5.486   3.538   1.018  0.0399 -0.3842  3.7010
   15MOL   H64810756   5.707   3.694   2.204  1.9277  0.2714 -0.0871
   15MOL   H64910757   5.610   3.822   2.407  1.0040  3.5706  1.1195
   15MOL   C65010758   5.612   3.662   0.931  0.0719  0.5375  0.1365
   15MOL   O65110759   5.689   3.758   0.939  0.2644  0.3910 -0.6100
   15MOL   C65210760   5.598   3.579   0.809 -0.3400  0.3438 -0.0058
   15MOL   C65310761   5.470   3.546   0.758 -0.5804 -0.7293  0.0087
   15MOL   C65410762   5.460   3.466   0.646 -0.3148  0.3627 -0.0451
   15MOL   C65510763   5.569   3.412   0.579 -0.4255  0.9085  0.9065
   15MOL   C65610764   5.545   3.340   0.452 -0.1744 -0.0883 -0.5190
   15MOL   O65710765   5.435   3.294   0.426 -0.8363  0.6139  0.2464
   15MOL   N65810766   5.662   3.321   0.383 -0.3042  0.3706  0.0659
   15MOL   C65910767   5.674   3.250   0.256  0.0693  0.0294  0.0379
   15MOL   C66010768   5.805   3.253   0.189 -0.2726  0.2757 -0.0545
   15MOL   C66110769   5.818   3.179   0.060 -0.8625  0.0327  0.1505
   15MOL   C66210770   5.935   3.248   7.874  0.5172  0.1676  0.2648
   15MOL   C66310771   5.987   3.175   7.750 -0.1118  0.7557  0.0914
   15MOL   C66410772   6.086   3.260   7.676  0.1702  0.1520 -0.0712
   15MOL   N66510773   6.110   3.201   7.548  0.9894  0.0402 -0.1753
   15MOL   C66610774   5.698   3.437   0.633  0.4318 -0.6598  0.0203
   15MOL   C66710775   5.710   3.527   0.746 -0.3853  0.7161  0.6792
   15MOL   H66810776   5.385   3.594   0.803 -1.3047 -2.3566  0.4247
   15MOL   H66910777   5.359   3.458   0.608 -0.6998  1.4724  0.7345
   15MOL   H67010778   5.744   3.379   0.400 -0.4600  0.3480  0.9190
   15MOL   H67110779   5.647   3.147   0.280 -0.9367  1.1217  3.9632
   15MOL   H67210780   5.601   3.295   0.190  1.4751 -0.2986 -1.7829
   15MOL   H67310781   5.890   3.219   0.248 -0.7252 -2.9768 -1.1694
   15MOL   H67410782   5.820   3.359   0.170  0.1725  0.1075 -0.6566
   15MOL   H67510783   5.831   3.073   0.081 -1.0992  0.3628  2.0754
   15MOL   H67610784   5.731   3.184   7.881  0.3023  1.5720 -1.2994
   15MOL   H67710785   6.027   3.255   0.047  1.2781 -0.7632 -0.7868
   15MOL   H67810786   5.917   3.350   7.838  0.7766 -0.5183 -1.8666
   15MOL   H67910787   5.897   3.162   7.690 -1.1221  0.6540  1.5852
   15MOL   H68010788   6.033   3.080   7.779 -0.8693  0.8371  1.6058
   15MOL   H68110789   6.049   3.359   7.648  0.5520 -0.4726 -2.8876
   15MOL   H68210790   6.180   3.279   7.727 -0.2271  0.2035  0.6463
   15MOL   H68310791   6.078   3.255   7.469  0.0760 -2.3482 -1.4717
   15MOL   H68410792   5.791   3.405   0.590  1.0393 -0.5338  1.2307
   15MOL   H68510793   5.809   3.546   0.787 -1.0485  2.0316  1.7228
   15MOL   C68610794   6.184   3.093   7.515 -0.3456 -0.1415 -0.2226
   15MOL   O68710795   6.231   3.011   7.593 -0.1255  0.0728 -0.0532
   15MOL   C68810796   6.192   3.073   7.370 -0.0167  0.6255  0.0041
   15MOL   C68910797   6.173   2.945   7.311 -0.3670 -0.7701  0.8165
   15MOL   C69010798   6.198   2.917   7.175  0.1154 -0.3553 -0.2763
   15MOL   C69110799   6.235   3.022   7.087  0.2384 -0.8559  0.3659
   15MOL   C69210800   6.266   2.994   6.943 -0.0611  0.3445 -0.8336
   15MOL   O69310801   6.268   3.082   6.865  0.1132 -0.0984 -0.1046
   15MOL   N69410802   6.310   2.873   6.909 -0.0745  0.2974  0.0119
   15MOL   C69510803   6.348   2.831   6.770  0.1697  0.3913  0.0782
   15MOL   C69610804   6.373   2.676   6.752 -0.2226  0.1895 -0.2727
   15MOL   C69710805   6.241   2.604   6.798 -0.3032  0.6236 -0.9607
   15MOL   C69810806   6.254   2.450   6.779  0.3202  0.3412 -0.3669
   15MOL   C69910807   6.126   2.375   6.816  0.4307  0.2295  0.1119
   15MOL   C70010808   6.125   2.222   6.768 -0.3553 -0.5312  0.1542
   15MOL   N70110809   6.007   2.155   6.818 -0.3297 -0.2341  0.7579
   15MOL   C70210810   6.249   3.154   7.145 -0.7494 -0.6924  0.3305
   15MOL   C70310811   6.233   3.177   7.282 -0.3278  0.0949  0.4076
   15MOL   H70410812   6.143   2.858   7.367 -0.5582 -0.5612  1.0384
   15MOL   H70510813   6.170   2.819   7.138 -1.3565  0.0265 -0.2225
   15MOL   H70610814   6.321   2.801   6.979 -2.3596 -0.0400  0.0552
   15MOL   H70710815   6.269   2.868   6.704  0.4241  2.3962  0.8481
   15MOL   H70810816   6.436   2.885   6.735 -0.5252  1.6713  0.2826
   15MOL   H70910817   6.465   2.651   6.805  0.8242  2.2034 -1.1019
   15MOL   H71010818   6.389   2.650   6.648  2.4804 -2.0060  0.6271
   15MOL   H71110819   6.220   2.627   6.903 -0.0595 -0.7912 -0.5908
   15MOL   H71210820   6.155   2.645   6.745 -1.4271 -1.4938 -0.8293
   15MOL   H71310821   6.333   2.405   6.839 -0.3087  0.6547  0.7020
   15MOL   H71410822   6.289   2.444   6.676  0.4585  2.6735 -0.4851
   15MOL   H71510823   6.034   2.414   6.772 -1.6610 -1.0410  3.1828
   15MOL   H71610824   6.104   2.382   6.922 -2.7381  0.9674 -0.5267
   15MOL   H71710825   6.149   2.214   6.662 -1.2088 -0.1772 -0.0679
   15MOL   H71810826   6.213   2.174   6.811 -0.3321 -0.9210 -0.3285
   15MOL   H71910827   5.922   2.206   6.796  0.7619  0.2535 -2.6277
   15MOL   H72010828   6.278   3.241   7.088 -2.5469  0.0303  0.4818
   15MOL   H72110829   6.239   3.276   7.324 -0.3095 -0.1615  1.0069
   15MOL   H72210830   6.006   2.067   6.768  3.8622  1.0137 -1.7742
   16MOL     C110831   5.736   4.180   1.560 -0.4174  0.5660 -0.2313
   16MOL     O210832   5.836   4.113   1.587  0.3443  0.1375 -0.1766
   16MOL     C310833   5.659   4.183   1.432  0.3120 -0.3667 -0.0604
   16MOL     C410834   5.714   4.096   1.333  0.0842  0.2619  0.3401
   16MOL     C510835   5.640   4.065   1.218  0.3771  0.3887  0.0049
   16MOL     C610836   5.517   4.127   1.193  0.3232 -0.0966 -0.3475
   16MOL     C710837   5.431   4.092   1.073 -0.0864  0.0461 -0.4479
   16MOL     O810838   5.315   4.091   1.093  0.3406  0.2575 -0.0873
   16MOL     N910839   5.498   4.049   0.962  0.1940  0.1106 -0.5937
   16MOL    C1010840   5.440   4.004   0.839 -0.3313 -0.0949 -0.6355
   16MOL    C1110841   5.556   4.003   0.733  0.2427 -1.2018 -0.0503
   16MOL    C1210842   5.532   3.941   0.599 -0.0688  0.3223  0.5627
   16MOL    C1310843   5.659   3.926   0.511  0.0993 -0.2486  0.6911
   16MOL    C1410844   5.754   3.811   0.552 -0.3178  0.3081 -0.0401
   16MOL    C1510845   5.875   3.780   0.453  0.0403  0.4325 -0.2471
   16MOL    N1610846   5.967   3.685   0.513  0.2483 -1.0379  0.1738
   16MOL    C1710847   5.470   4.231   1.288 -0.3067 -0.1475  0.0276
   16MOL    C1810848   5.545   4.261   1.407  0.1695 -0.2678  0.0756
   16MOL    H1910849   5.812   4.053   1.352  0.2574  0.8790  0.8513
   16MOL    H2010850   5.682   3.989   1.153  1.1843  0.1231  0.8190
   16MOL    H2110851   5.597   4.040   0.980 -0.3811 -3.4993  1.1887
   16MOL    H2210852   5.405   3.903   0.860 -0.1593 -0.4912 -2.1619
   16MOL    H2310853   5.360   4.063   0.795  1.0974  2.9337  0.7366
   16MOL    H2410854   5.640   3.951   0.778 -0.2326 -0.0379  2.2383
   16MOL    H2510855   5.588   4.107   0.723  0.6987 -1.1941  1.4644
   16MOL    H2610856   5.491   3.844   0.629  1.5507 -0.8142 -0.7760
   16MOL    H2710857   5.447   3.979   0.544 -1.0325  1.1885  2.5990
   16MOL    H2810858   5.703   4.024   0.495 -0.1608 -0.2201  0.1371
   16MOL    H2910859   5.608   3.893   0.420 -1.7546 -1.9495  2.2745
   16MOL    H3010860   5.693   3.723   0.571 -0.2623  0.3637  0.3974
   16MOL    H3110861   5.794   3.848   0.646 -0.8526  0.5310  0.1010
   16MOL    H3210862   5.835   3.731   0.364 -0.5800 -2.4102  1.5267
   16MOL    H3310863   5.930   3.869   0.424  1.8692  0.1237  2.0768
   16MOL    H3410864   6.033   3.721   0.581 -0.0274  2.0175 -1.0816
   16MOL    H3510865   5.382   4.288   1.263 -0.3888 -0.0206  0.6130
   16MOL    H3610866   5.504   4.335   1.474  1.9777 -0.9415  1.9676
   16MOL    H3710867   5.683   4.248   1.626 -1.2695  0.0288 -0.3625
   16MOL    C3810868   5.992   3.567   0.463 -0.4642  0.4089 -0.2423
   16MOL    O3910869   5.933   3.506   0.376 -0.0279  0.6195  0.2547
   16MOL    C4010870   6.100   3.483   0.536  0.1959  0.6948 -0.2899
   16MOL    C4110871   6.118   3.487   0.675  0.8847 -0.1764 -0.4317
   16MOL    C4210872   6.218   3.404   0.735 -0.1676  0.2180  0.0758
   16MOL    C4310873   6.305   3.324   0.658  0.3521 -0.2157  0.4066
   16MOL    C4410874   6.401   3.235   0.730 -0.7414  0.6874 -0.1643
   16MOL    O4510875   6.423   3.118   0.685  0.5384 -0.2575 -0.1706
   16MOL    N4610876   6.447   3.282   0.846 -0.1328 -0.0360 -0.1819
   16MOL    C4710877   6.531   3.207   0.939  0.8650  0.1758  0.9379
   16MOL    C4810878   6.609   3.300   1.021  0.0729 -0.3783 -0.3752
   16MOL    C4910879   6.714   3.222   1.109  0.5740  0.7787 -0.6208
   16MOL    C5010880   6.789   3.323   1.205 -0.0407  0.8331 -0.0644
   16MOL    C5110881   6.883   3.249   1.300 -0.2250  0.1871  0.4301
   16MOL    C5210882   7.002   3.178   1.237  0.7286 -0.4856  0.3107
   16MOL    N5310883   7.111   3.157   1.331 -0.0249  0.0308  0.0396
   16MOL    C5410884   6.284   3.315   0.521 -0.5893 -0.1606  0.6314
   16MOL    C5510885   6.181   3.393   0.462 -0.3236  0.1093 -0.6913
   16MOL    H5610886   6.054   3.551   0.735 -1.8304 -2.4623 -0.7678
   16MOL    H5710887   6.224   3.393   0.843  1.9777  0.9032  0.0560
   16MOL    H5810888   6.420   3.377   0.867  1.3421  0.3347  0.1473
   16MOL    H5910889   6.474   3.132   0.994  0.5061  1.0470  1.7665
   16MOL    H6010890   6.598   3.146   0.877  1.7618  2.4027 -0.3627
   16MOL    H6110891   6.539   3.356   1.083  0.9522  0.3347 -0.0098
   16MOL    H6210892   6.661   3.371   0.955 -0.4041 -0.4397 -0.8232
   16MOL    H6310893   6.658   3.138   1.152  1.1237 -0.0858 -1.5565
   16MOL    H6410894   6.791   3.166   1.055  0.8651  1.4670 -0.9185
   16MOL    H6510895   6.707   3.359   1.268 -0.9556 -1.4607  0.0817
   16MOL    H6610896   6.838   3.401   1.147 -0.0580 -0.0655 -1.2995
   16MOL    H6710897   6.818   3.194   1.369 -2.9611  0.9129 -1.4957
   16MOL    H6810898   6.922   3.332   1.359  1.0023  0.8697 -1.2938
   16MOL    H6910899   6.968   3.083   1.196 -0.2312  0.5558 -1.3563
   16MOL    H7010900   7.043   3.240   1.157  0.8996 -1.9556 -0.7673
   16MOL    H7110901   7.181   3.228   1.345 -2.6692  2.5500  0.9042
   16MOL    H7210902   6.352   3.257   0.460 -0.3674  1.1530 -0.3870
   16MOL    H7310903   6.176   3.386   0.355 -0.2946  0.7909 -0.7448
   16MOL    C7410904   7.119   3.044   1.405  0.5248 -0.6769 -0.3221
   16MOL    O7510905   7.036   2.950   1.400  0.2356  0.1170  0.1023
   16MOL    C7610906   7.244   3.034   1.492  0.3928  0.0300  0.5318
   16MOL    C7710907   7.370   3.092   1.445  0.1097 -0.2201 -0.3242
   16MOL    C7810908   7.486   3.088   1.528 -0.1705 -0.1231  0.1894
   16MOL    C7910909   7.481   3.018   1.653 -0.3057  0.3089  0.3982
   16MOL    C8010910   7.604   3.003   1.738  0.7912 -0.5378  0.0657
   16MOL    O8110911   7.634   2.894   1.782  0.3123 -0.0466 -0.7348
   16MOL    N8210912   7.672   3.116   1.757  0.4560  0.7141 -0.2199
   16MOL    C8310913   7.800   3.132   1.822 -0.7439  0.0475 -0.1852
   16MOL    C8410914   7.845   3.282   1.834  0.0778  0.6019 -0.4144
   16MOL    C8510915   7.854   3.352   1.690  0.2586  0.1665 -0.5743
   16MOL    C8610916   7.744   3.449   1.667 -0.4933 -0.2581 -0.5090
   16MOL    C8710917   7.741   3.486   1.514 -0.4387  0.0850 -0.5108
   16MOL    C8810918   7.650   3.609   1.492 -0.0727 -0.3820 -0.2610
   16MOL    N8910919   7.506   3.591   1.529 -0.5989 -0.3543  0.4645
   16MOL    C9010920   7.361   2.955   1.695  0.1840 -0.6775  0.2425
   16MOL    C9110921   7.239   2.965   1.616  0.4842 -0.3458  0.3745
   16MOL    H9210922   7.371   3.134   1.346 -0.9588  1.8580  0.5101
   16MOL    H9310923   7.582   3.115   1.487 -0.9605  0.3967 -1.3708
   16MOL    H9410924   7.631   3.205   1.733 -3.6029 -0.6261  1.2955
   16MOL    H9510925   7.803   3.082   1.919  3.7589  1.7899  0.7237
   16MOL    H9610926   7.863   3.067   1.761 -1.4492 -0.4920 -0.3443
   16MOL    H9710927   0.055   3.273   1.884 -0.5607 -1.5578  0.4871
   16MOL    H9810928   7.795   3.359   1.892  1.9999 -0.2689  2.4707
   16MOL    H9910929   0.070   3.390   1.682  1.2331 -2.3699 -0.7368
   16MOL   H10010930   7.838   3.271   1.618  1.2250 -1.2064  0.7055
   16MOL   H10110931   7.744   3.536   1.733  1.9419  1.0845 -2.1876
   16MOL   H10210932   7.647   3.407   1.691 -1.9553  1.6490 -2.7480
   16MOL   H10310933   7.704   3.399   1.458  0.5668 -0.6174 -0.0959
   16MOL   H10410934   7.841   3.514   1.482 -0.3834 -1.0113 -1.3267
   16MOL   H10510935   7.691   3.701   1.533 -0.1361 -1.4643  2.3096
   16MOL   H10610936   7.644   3.635   1.386  0.6412  0.6380 -0.0590
   16MOL   H10710937   7.467   3.498   1.532  1.2160 -1.1562  0.1384
   16MOL   H10810938   7.362   2.903   1.789  0.0372 -0.5570  0.3101
   16MOL   H10910939   7.143   2.929   1.651  0.6962 -1.7515 -0.4439
   16MOL   C11010940   7.418   3.689   1.547  0.1916  0.2349 -0.2196
   16MOL   O11110941   7.441   3.806   1.531  0.1885 -0.3883 -0.0080
   16MOL   C11210942   7.289   3.642   1.597  0.3726 -0.3247  0.4571
   16MOL   C11310943   7.207   3.740   1.671  0.1276 -0.2473  0.0404
   16MOL   C11410944   7.087   3.698   1.737  0.4138  0.5122  0.0393
   16MOL   C11510945   7.051   3.561   1.726 -0.0766 -0.2420 -0.1926
   16MOL   C11610946   6.926   3.498   1.798  0.6284 -0.0862  0.6304
   16MOL   O11710947   6.917   3.383   1.837  0.4882  0.0451 -0.8857
   16MOL   N11810948   6.816   3.577   1.812 -0.1197 -0.4127 -0.0235
   16MOL   C11910949   6.697   3.536   1.889 -0.6830 -0.6314  0.4835
   16MOL   C12010950   6.581   3.629   1.859 -0.4701 -0.2939  0.0266
   16MOL   C12110951   6.482   3.619   1.976  0.6745 -0.4206  0.6273
   16MOL   C12210952   6.347   3.698   1.943 -0.8329  0.5893  0.3839
   16MOL   C12310953   6.321   3.802   2.051  1.2157 -0.8621 -0.0350
   16MOL   C12410954   6.201   3.881   2.000  1.1722  0.1684  0.0424
   16MOL   N12510955   6.146   3.959   2.111 -0.3519  0.6096 -0.3818
   16MOL   C12610956   7.132   3.468   1.650 -0.0778 -0.2507 -0.8623
   16MOL   C12710957   7.246   3.504   1.579 -0.8916 -1.6066  0.3283
   16MOL   H12810958   7.239   3.843   1.671 -0.8541  0.1212 -2.9675
   16MOL   H12910959   7.008   3.754   1.784 -2.3812 -1.2852 -2.3184
   16MOL   H13010960   6.817   3.675   1.790 -2.8947 -0.1911  0.6782
   16MOL   H13110961   6.667   3.432   1.885 -3.3967  0.0704  1.6925
   16MOL   H13210962   6.735   3.555   1.990  0.0122  1.5375 -0.1583
   16MOL   H13310963   6.530   3.598   1.768 -1.5168 -4.5367  1.9314
   16MOL   H13410964   6.603   3.736   1.863  1.5252 -0.6731 -0.5126
   16MOL   H13510965   6.465   3.513   1.992  0.7623 -0.5513 -0.1300
   16MOL   H13610966   6.531   3.650   2.068 -0.1000 -1.7532  1.5028
   16MOL   H13710967   6.269   3.623   1.954 -0.7770  0.4787  0.0548
   16MOL   H13810968   6.341   3.727   1.838 -0.8490  1.6466  0.6675
   16MOL   H13910969   6.403   3.873   2.055  0.9379 -0.6130  1.2721
   16MOL   H14010970   6.325   3.774   2.156 -2.4882 -0.5014  0.2943
   16MOL   H14110971   6.236   3.948   1.922 -0.7635 -0.6708 -1.5768
   16MOL   H14210972   6.122   3.818   1.960  0.0041  0.1055  2.3537
   16MOL   H14310973   6.196   3.942   2.197  2.0392  0.0839 -1.8295
   16MOL   H14410974   7.093   3.369   1.634 -2.5614  0.5408  0.0575
   16MOL   H14510975   7.300   3.429   1.524 -1.1175 -0.1995 -1.8788
   16MOL   C14610976   6.045   4.047   2.102 -0.7228 -0.6956  0.1640
   16MOL   O14710977   5.993   4.069   1.995 -0.4449 -0.2633  0.1627
   16MOL   C14810978   5.998   4.119   2.225 -1.2544  0.1132 -0.0420
   16MOL   C14910979   6.044   4.072   2.351 -0.4610 -0.7797  0.4279
   16MOL   C15010980   6.001   4.135   2.467  0.1534  0.5018 -0.2454
   16MOL   C15110981   5.913   4.243   2.458 -0.4784  1.0968  0.5653
   16MOL   C15210982   5.871   4.326   2.573  0.1395  0.1750  0.2608
   16MOL   O15310983   5.954   4.340   2.664  0.5874 -0.5317 -0.3102
   16MOL   N15410984   5.751   4.381   2.566  0.3074 -0.1860 -0.7136
   16MOL   C15510985   5.680   4.482   2.643  0.4087 -0.7006  0.1002
   16MOL   C15610986   5.582   4.407   2.739 -0.4838  0.2074  0.0049
   16MOL   C15710987   5.492   4.501   2.821 -1.1169  0.0058  0.5337
   16MOL   C15810988   5.429   4.422   2.942 -0.2884 -0.5332 -0.4056
   16MOL   C15910989   5.335   4.508   3.028 -0.0085 -0.7153 -0.4297
   16MOL   C16010990   5.189   4.522   2.976 -1.1435  0.1476 -0.1317
   16MOL   N16110991   5.122   4.607   3.068  0.0620  0.4250 -0.6518
   16MOL   C16210992   5.867   4.285   2.331 -0.3752 -0.0356  0.2471
   16MOL   C16310993   5.916   4.229   2.213 -0.6130 -0.9102  0.0059
   16MOL   H16410994   6.115   3.993   2.371  2.3060  2.2380  3.0014
   16MOL   H16510995   6.039   4.111   2.566 -1.2446  3.0911  0.9560
   16MOL   H16610996   5.702   4.349   2.484 -0.6320  0.3514 -0.3713
   16MOL   H16710997   5.746   4.545   2.702  0.8742 -1.1488  0.0602
   16MOL   H16810998   5.618   4.539   2.573 -0.0907 -1.0025  0.2882
   16MOL   H16910999   5.638   4.340   2.804  1.2790 -0.6997 -2.3714
   16MOL   H17011000   5.526   4.332   2.682 -0.9374 -1.2083  2.2539
   16MOL   H17111001   5.551   4.589   2.849  0.3018 -0.8683  0.3651
   16MOL   H17211002   5.418   4.536   2.749 -1.0718 -0.3305  0.3197
   16MOL   H17311003   5.513   4.407   3.010 -1.1553  1.0122  1.0392
   16MOL   H17411004   5.389   4.324   2.914  1.9152 -1.3737 -0.7459
   16MOL   H17511005   5.380   4.604   3.054  2.5921 -1.5523 -1.6627
   16MOL   H17611006   5.313   4.448   3.116 -0.7253 -0.3488 -0.3587
   16MOL   H17711007   5.192   4.572   2.878 -0.6511 -0.1138 -0.2538
   16MOL   H17811008   5.143   4.423   2.973  0.7153 -0.7088 -1.3754
   16MOL   H17911009   5.176   4.677   3.117 -2.3774  0.9707  1.3375
   16MOL   H18011010   5.807   4.373   2.309 -1.2617 -0.8703 -0.7787
   16MOL   H18111011   5.892   4.259   2.112  0.0722 -0.7884 -0.1188
   16MOL   C18211012   4.988   4.602   3.106 -0.4408  1.0166 -0.2217
   16MOL   O18311013   4.909   4.523   3.052 -0.0575 -0.4189 -0.7726
   16MOL   C18411014   4.951   4.692   3.219  0.3788 -0.3937 -1.0855
   16MOL   C18511015   4.816   4.725   3.244  0.0733  0.3780  0.4395
   16MOL   C18611016   4.785   4.806   3.350  0.4303 -0.3606 -0.5507
   16MOL   C18711017   4.888   4.852   3.440 -0.2409 -0.1979  0.2784
   16MOL   C18811018   4.849   4.912   3.571  0.4858  0.0164  0.3991
   16MOL   O18911019   4.894   4.866   3.677  0.1533 -0.0791  0.6043
   16MOL   N19011020   4.772   5.022   3.556 -0.4121  0.0489 -0.1646
   16MOL   C19111021   4.725   5.105   3.665 -0.7731 -0.0568 -0.4945
   16MOL   C19211022   4.609   5.189   3.625 -0.6697 -0.2615 -0.2817
   16MOL   C19311023   4.590   5.309   3.721 -0.4853 -0.1672 -0.3650
   16MOL   C19411024   4.701   5.411   3.717 -0.1456  0.5938 -0.2088
   16MOL   C19511025   4.657   5.526   3.801  0.0005  0.3806  0.3161
   16MOL   C19611026   4.760   5.644   3.795  0.0336  0.0610  0.1081
   16MOL   N19711027   4.709   5.747   3.884  0.0988  0.2038  0.0324
   16MOL   C19811028   5.021   4.832   3.407  0.1849  0.4989 -0.6288
   16MOL   C19911029   5.053   4.758   3.293  0.5934  0.5781  0.4398
   16MOL   H20011030   4.739   4.675   3.187 -1.3984  2.2089  0.7592
   16MOL   H20111031   4.680   4.829   3.366  0.4116  0.2723 -1.5412
   16MOL   H20211032   4.755   5.069   3.469 -2.5956 -0.2072  0.1043
   16MOL   H20311033   4.688   5.042   3.746 -3.3327 -0.6945 -2.1202
   16MOL   H20411034   4.812   5.152   3.712 -2.2861  1.3064  1.0417
   16MOL   H20511035   4.525   5.121   3.619 -0.6089 -0.2020 -2.0225
   16MOL   H20611036   4.633   5.223   3.525 -0.7413  1.8651  0.3997
   16MOL   H20711037   4.497   5.359   3.693 -2.3292 -2.8907  0.6686
   16MOL   H20811038   4.577   5.273   3.823  2.9906 -0.1473  0.1417
   16MOL   H20911039   4.708   5.441   3.612  1.6701 -0.0541 -0.2742
   16MOL   H21011040   4.800   5.376   3.745 -0.7603 -0.3207  0.8480
   16MOL   H21111041   4.650   5.498   3.907  3.2437  1.7532  0.9455
   16MOL   H21211042   4.556   5.554   3.770  0.3910  2.5957  0.9571
   16MOL   H21311043   4.856   5.612   3.836  1.4622  1.8983 -1.7102
   16MOL   H21411044   4.779   5.685   3.696  0.6772  1.1644  0.6872
   16MOL   H21511045   4.644   5.708   3.951 -1.0420  2.8782  0.5381
   16MOL   H21611046   5.103   4.857   3.472  0.7931 -0.5453 -0.9805
   16MOL   H21711047   5.157   4.736   3.275  0.4801 -0.0353  0.5214
   16MOL   C21811048   4.736   5.876   3.885  0.5691 -0.2478  0.2175
   16MOL   O21911049   4.812   5.923   3.804 -0.2387 -0.6154  0.5646
   16MOL   C22011050   4.660   5.964   3.983  0.3976  0.3586  0.1086
   16MOL   C22111051   4.643   5.922   4.116  0.0670 -0.0121  1.0259
   16MOL   C22211052   4.563   6.005   4.205  0.0867  0.2442  0.4849
   16MOL   C22311053   4.496   6.119   4.158 -0.1182 -0.1464 -0.6429
   16MOL   C22411054   4.400   6.194   4.242  0.0706 -0.5356  0.4039
   16MOL   O22511055   4.363   6.308   4.220 -0.1813 -0.0379  0.0450
   16MOL   N22611056   4.346   6.122   4.345 -0.5431 -0.0014 -0.1994
   16MOL   C22711057   4.272   6.178   4.452  0.3807 -0.2813 -0.8148
   16MOL   C22811058   4.286   6.089   4.577 -1.1715 -0.7714 -0.7692
   16MOL   C22911059   4.168   6.106   4.676 -0.0296  0.0433  0.4391
   16MOL   C23011060   4.169   6.243   4.742 -0.2003  0.2389  0.0440
   16MOL   C23111061   4.053   6.267   4.842 -0.2496 -0.8313 -0.9268
   16MOL   C23211062   4.024   6.413   4.875 -0.0350  0.6343  1.2819
   16MOL   N23311063   3.975   6.480   4.752 -0.8143 -0.1727 -0.2047
   16MOL   C23411064   4.535   6.167   4.031 -0.0553 -0.0047 -0.9750
   16MOL   C23511065   4.609   6.088   3.944  0.4183  0.3951  0.8093
   16MOL   H23611066   4.678   5.827   4.153 -1.7410 -1.7009 -1.4067
   16MOL   H23711067   4.551   5.967   4.306  1.5831  0.1405  0.6428
   16MOL   H23811068   4.360   6.022   4.339 -0.8874 -0.0985  0.5421
   16MOL   H23911069   4.301   6.281   4.476 -2.9699  0.7743 -0.9639
   16MOL   H24011070   4.166   6.177   4.423 -0.0433  0.4893  0.6483
   16MOL   H24111071   4.384   6.092   4.624 -2.0678  1.0660  1.0283
   16MOL   H24211072   4.279   5.988   4.538 -0.7406 -1.8081  1.7578
   16MOL   H24311073   4.074   6.094   4.622  0.1493 -0.0836  0.1528
   16MOL   H24411074   4.176   6.035   4.758  0.9221  0.5629  0.8179
   16MOL   H24511075   4.161   6.311   4.657 -1.2538 -0.0241 -0.0805
   16MOL   H24611076   4.265   6.262   4.789 -0.4015 -1.2629  1.0978
   16MOL   H24711077   4.091   6.210   4.927  0.6748 -0.6276 -1.1969
   16MOL   H24811078   3.963   6.221   4.804 -0.7153 -2.0387  1.5005
   16MOL   H24911079   3.946   6.423   4.951  0.3212 -0.0859  1.7533
   16MOL   H25011080   4.119   6.446   4.919  0.5549  1.5168 -0.6237
   16MOL   H25111081   4.039   6.528   4.691 -2.0768  3.1950  1.0414
   16MOL   H25211082   4.480   6.253   3.997  0.9510  0.8470 -0.4777
   16MOL   H25311083   4.628   6.128   3.845 -0.3819 -1.9781 -0.3308
   16MOL   C25411084   3.858   6.465   4.695  0.1520 -0.6577 -0.4604
   16MOL   O25511085   3.758   6.412   4.744 -0.5825  0.8471 -0.2419
   16MOL   C25611086   3.846   6.515   4.553 -0.3183 -0.3234 -0.5942
   16MOL   C25711087   3.725   6.564   4.503  0.3223  0.5647  0.1663
   16MOL   C25811088   3.711   6.611   4.370  0.2749 -0.0034  0.2152
   16MOL   C25911089   3.829   6.619   4.293  0.0699  0.2264 -0.1231
   16MOL   C26011090   3.830   6.692   4.163  0.2421  0.2017 -0.2620
   16MOL   O26111091   3.736   6.770   4.132  0.4834  0.3739  0.1867
   16MOL   N26211092   3.918   6.654   4.071 -0.1772 -1.2489  0.5910
   16MOL   C26311093   3.918   6.706   3.935 -0.0422 -0.0129  0.2808
   16MOL   C26411094   4.009   6.630   3.839  0.1655 -0.7686 -0.1743
   16MOL   C26511095   4.156   6.624   3.874  0.3638  0.2964 -0.2602
   16MOL   C26611096   4.257   6.571   3.764  0.2911  1.1325  0.0446
   16MOL   C26711097   4.241   6.421   3.744  0.6815  0.0222 -0.7854
   16MOL   C26811098   4.318   6.362   3.632 -0.3388  0.0468 -0.5702
   16MOL   N26911099   4.316   6.217   3.635 -0.6695 -0.2838  0.1790
   16MOL   C27011100   3.944   6.553   4.338  0.0442 -0.0834  0.2280
   16MOL   C27111101   3.957   6.502   4.466  0.3312  0.8829  0.0589
   16MOL   H27211102   3.640   6.551   4.569 -2.6979  0.5547 -3.5411
   16MOL   H27311103   3.616   6.651   4.339 -0.4542 -0.9454  1.2028
   16MOL   H27411104   3.997   6.594   4.092  1.2378  0.7611  1.1798
   16MOL   H27511105   3.817   6.713   3.896 -0.8709 -2.4881  1.9216
   16MOL   H27611106   3.958   6.807   3.946 -1.6117  0.3857  2.4473
   16MOL   H27711107   4.015   6.688   3.747  0.4305  0.6143  0.7067
   16MOL   H27811108   3.967   6.534   3.808 -0.8729 -0.2272 -0.4503
   16MOL   H27911109   4.207   6.718   3.892 -0.8828  0.7435  0.9994
   16MOL   H28011110   4.175   6.571   3.968 -0.1870  0.2853 -0.1542
   16MOL   H28111111   4.361   6.599   3.779  1.0778 -1.4052 -0.4165
   16MOL   H28211112   4.234   6.623   3.671  0.3178 -1.9458 -1.7670
   16MOL   H28311113   4.136   6.393   3.737 -0.0878  2.1482  1.4658
   16MOL   H28411114   4.282   6.375   3.834  0.3302 -0.8497 -1.0690
   16MOL   H28511115   4.286   6.401   3.535 -2.8171 -0.1115  0.1506
   16MOL   H28611116   4.418   6.401   3.649 -0.2352  0.0725 -1.2174
   16MOL   H28711117   4.230   6.164   3.640 -1.4523  0.8578 -1.1057
   16MOL   H28811118   4.032   6.550   4.276  1.4798  0.4177  2.1865
   16MOL   H28911119   4.051   6.457   4.496  0.6945  0.4337 -1.6863
   16MOL   C29011120   4.426   6.142   3.617 -0.1434  0.4200  0.5966
   16MOL   O29111121   4.536   6.188   3.623 -0.4388 -0.0408  0.1783
   16MOL   C29211122   4.403   5.994   3.602  0.4786  0.2644 -0.6288
   16MOL   C29311123   4.271   5.947   3.570  0.5841 -0.4397 -0.1458
   16MOL   C29411124   4.255   5.812   3.541 -0.2896  0.5721  0.8367
   16MOL   C29511125   4.360   5.720   3.553  0.3527 -0.2202 -0.0601
   16MOL   C29611126   4.341   5.579   3.520 -0.8511 -0.6909 -0.0624
   16MOL   O29711127   4.265   5.508   3.586 -0.5596 -0.1258 -0.2659
   16MOL   N29811128   4.419   5.542   3.414 -0.2525 -0.5673  0.4279
   16MOL   C29911129   4.431   5.413   3.365 -0.3178  0.4644  0.2745
   16MOL   C30011130   4.369   5.402   3.224 -0.3517 -0.4878 -0.8205
   16MOL   C30111131   4.338   5.259   3.187 -0.0227 -0.0529  0.4508
   16MOL   C30211132   4.464   5.182   3.136  0.4113  0.1872  0.1718
   16MOL   C30311133   4.496   5.212   2.990 -0.2959  0.3370 -0.6396
   16MOL   C30411134   4.380   5.196   2.894 -0.2330  0.4692 -0.4506
   16MOL   N30511135   4.424   5.202   2.752 -0.3435 -0.0092 -0.4825
   16MOL   C30611136   4.484   5.763   3.601  0.4933 -0.5401 -0.2167
   16MOL   C30711137   4.511   5.901   3.622  0.3333  0.4958 -0.0794
   16MOL   H30811138   4.191   6.018   3.554  0.4874 -0.4217  0.4265
   16MOL   H30911139   4.171   5.775   3.483  1.7243  0.7624 -2.3246
   16MOL   H31011140   4.471   5.615   3.367 -1.2003  0.7782  1.4300
   16MOL   H31111141   4.532   5.375   3.352 -0.2894  0.7953 -0.4518
   16MOL   H31211142   4.369   5.344   3.423 -0.4121  0.5730  0.3006
   16MOL   H31311143   4.421   5.460   3.148  0.3753  1.2790  0.9668
   16MOL   H31411144   4.268   5.444   3.221 -0.6420 -0.9929  1.2657
   16MOL   H31511145   4.309   5.213   3.282 -1.3936  3.4828  1.7981
   16MOL   H31611146   4.249   5.262   3.125 -0.7312  2.5494  1.5228
   16MOL   H31711147   4.439   5.076   3.145  0.4250  0.0383 -1.3921
   16MOL   H31811148   4.551   5.193   3.201 -0.2853 -0.8503  1.3120
   16MOL   H31911149   4.582   5.151   2.960  0.8023  0.4904  2.0195
   16MOL   H32011150   4.537   5.314   2.984  0.9288 -0.0168  1.2142
   16MOL   H32111151   4.328   5.103   2.915  1.1508 -0.2477 -0.1768
   16MOL   H32211152   4.319   5.285   2.909 -1.9196 -0.4931 -1.3477
   16MOL   H32311153   4.390   5.276   2.692  0.7125  0.4166 -0.5752
   16MOL   H32411154   4.571   5.699   3.596  0.6898 -0.5309  2.1955
   16MOL   H32511155   4.614   5.930   3.638  0.0950  1.4113 -0.1473
   16MOL   C32611156   4.497   5.108   2.693  0.2810  0.0877  0.4616
   16MOL   O32711157   4.542   5.008   2.748  0.7696  0.1888  0.5084
   16MOL   C32811158   4.536   5.130   2.546 -0.4646 -0.0996 -0.3472
   16MOL   C32911159   4.557   5.264   2.496  0.7000 -0.3466  1.1336
   16MOL   C33011160   4.609   5.280   2.363 -0.3301 -0.3660 -0.3644
   16MOL   C33111161   4.647   5.168   2.286  0.4413  0.5630  0.1787
   16MOL   C33211162   4.676   5.188   2.137 -0.2945 -0.3927 -0.3722
   16MOL   O33311163   4.599   5.249   2.062  0.2311  0.3262  0.4919
   16MOL   N33411164   4.790   5.131   2.092  0.5032 -0.0966  0.5177
   16MOL   C33511165   4.851   5.145   1.954  0.2226  0.4723 -0.6880
   16MOL   C33611166   4.983   5.084   1.949 -0.4456  0.4032 -0.5636
   16MOL   C33711167   4.982   4.936   1.955 -0.9613 -0.4096 -0.4493
   16MOL   C33811168   5.121   4.878   1.930 -0.3109  0.1191 -0.4373
   16MOL   C33911169   5.126   4.725   1.916  0.6023 -0.0067 -0.6115
   16MOL   C34011170   5.083   4.644   2.035  0.4540 -0.1263  0.4171
   16MOL   N34111171   5.173   4.664   2.146  0.2801 -0.7568  0.3809
   16MOL   C34211172   4.634   5.040   2.337  0.2262  0.2585 -0.3558
   16MOL   C34311173   4.576   5.023   2.464 -0.4709  0.4082 -0.0856
   16MOL   H34411174   4.539   5.347   2.562  1.9026 -0.8666  2.1475
   16MOL   H34511175   4.612   5.377   2.315 -1.8348  0.4328  1.0791
   16MOL   H34611176   4.843   5.075   2.158  1.1435  1.8568  1.6944
   16MOL   H34711177   4.781   5.101   1.884 -1.7228 -1.1032  2.1637
   16MOL   H34811178   4.851   5.251   1.931 -2.1485  1.1377  2.1168
   16MOL   H34911179   5.049   5.126   2.025 -1.4454  0.2458  0.3950
   16MOL   H35011180   5.030   5.105   1.853  0.7484 -0.3658 -0.1621
   16MOL   H35111181   4.945   4.905   2.053  2.5327 -2.4797  0.3159
   16MOL   H35211182   4.900   4.910   1.888 -1.4333 -0.3491  0.1018
   16MOL   H35311183   5.181   4.901   2.018  0.5390 -0.7938 -0.7549
   16MOL   H35411184   5.169   4.924   1.843  1.7259 -0.7475  0.1813
   16MOL   H35511185   5.231   4.700   1.899  0.3876 -0.3013 -1.5535
   16MOL   H35611186   5.070   4.715   1.823 -0.2670  0.4891 -0.1413
   16MOL   H35711187   4.980   4.661   2.067  0.4617  0.4648  0.1269
   16MOL   H35811188   5.085   4.538   2.010  0.3352  0.1385 -0.7425
   16MOL   H35911189   5.267   4.629   2.134  0.3443 -0.0614 -1.2177
   16MOL   H36011190   4.659   4.952   2.278 -3.2274 -0.7206 -0.4465
   16MOL   H36111191   4.584   4.927   2.513  3.9958  0.9235  0.3735
   16MOL   C36211192   5.158   4.722   2.269 -0.6665  0.3867 -0.0878
   16MOL   O36311193   5.045   4.750   2.317 -0.2001  0.3957  0.0577
   16MOL   C36411194   5.280   4.741   2.357  0.0546  0.1022 -0.0477
   16MOL   C36511195   5.410   4.757   2.301  0.3321 -0.2803 -0.3301
   16MOL   C36611196   5.518   4.809   2.370  0.7368  0.3568 -0.3006
   16MOL   C36711197   5.505   4.841   2.506  0.2965 -0.4456 -0.5408
   16MOL   C36811198   5.623   4.888   2.588  0.4870 -0.9328 -0.3372
   16MOL   O36911199   5.714   4.952   2.535 -0.2744 -0.5008  0.6463
   16MOL   N37011200   5.610   4.853   2.715  0.2235 -0.4553  0.1503
   16MOL   C37111201   5.701   4.880   2.825 -0.5231 -0.1951  0.5697
   16MOL   C37211202   5.639   4.874   2.962  0.5197 -0.0389  0.2225
   16MOL   C37311203   5.490   4.881   2.965 -0.0693  0.1636 -0.2412
   16MOL   C37411204   5.427   4.893   3.107  0.1704  0.2068 -0.4142
   16MOL   C37511205   5.446   5.032   3.175  0.3594 -0.5880  0.3440
   16MOL   C37611206   5.406   5.026   3.322  0.1121 -0.6280 -0.7348
   16MOL   N37711207   5.384   5.155   3.387  0.1149  0.0422 -0.1847
   16MOL   C37811208   5.375   4.822   2.567  0.3667 -0.1780  0.5174
   16MOL   C37911209   5.266   4.766   2.494  0.6080 -0.0463  0.1311
   16MOL   H38011210   5.425   4.748   2.195 -0.9365  4.6551 -1.0298
   16MOL   H38111211   5.608   4.834   2.315 -0.4192  0.1595 -2.3432
   16MOL   H38211212   5.530   4.793   2.727 -0.4889  0.6791  1.1547
   16MOL   H38311213   5.787   4.814   2.830 -0.8322 -0.5490  1.2590
   16MOL   H38411214   5.750   4.975   2.799  1.3883 -1.6529 -1.3486
   16MOL   H38511215   5.683   4.957   3.018 -2.5551  0.7780  1.5363
   16MOL   H38611216   5.676   4.777   2.993  0.2855 -0.2111 -0.0365
   16MOL   H38711217   5.443   4.961   2.908  1.7903  2.2612  1.0332
   16MOL   H38811218   5.439   4.796   2.921  1.0530 -1.2466  1.1310
   16MOL   H38911219   5.461   4.824   3.185 -2.4944 -1.6576 -0.8407
   16MOL   H39011220   5.323   4.862   3.105  0.3040 -0.1675 -2.8013
   16MOL   H39111221   5.377   5.101   3.126 -0.3167  0.0327  2.1199
   16MOL   H39211222   5.548   5.068   3.162 -0.0844  0.7115  0.3381
   16MOL   H39311223   5.322   4.959   3.341 -0.8982  1.0364  0.8610
   16MOL   H39411224   5.483   4.965   3.370  0.0124 -0.6832 -0.6441
   16MOL   H39511225   5.462   5.215   3.408  0.4720 -0.4874 -0.0123
   16MOL   H39611226   5.365   4.850   2.671 -0.4712  2.2304 -0.1956
   16MOL   H39711227   5.167   4.765   2.538 -0.0235  1.0018 -1.2156
   16MOL   C39811228   5.272   5.184   3.455  0.2320 -0.0893  0.4708
   16MOL   O39911229   5.171   5.117   3.454  0.6994  0.2484  0.0251
   16MOL   C40011230   5.283   5.306   3.542 -0.6198 -0.6229 -0.2881
   16MOL   C40111231   5.199   5.314   3.653  0.1943 -0.0608 -0.2188
   16MOL   C40211232   5.218   5.424   3.745 -0.1676 -0.7112  0.2143
   16MOL   C40311233   5.328   5.517   3.734 -0.0680  0.2114 -0.1692
   16MOL   C40411234   5.357   5.613   3.843 -0.4339 -0.4692 -0.1683
   16MOL   O40511235   5.278   5.654   3.930 -0.5448 -0.5546 -0.1372
   16MOL   N40611236   5.491   5.633   3.855  0.0668  1.2574  0.6951
   16MOL   C40711237   5.554   5.683   3.975  0.2547  0.4989 -0.4613
   16MOL   C40811238   5.707   5.665   3.971 -0.3885  0.3174  0.0101
   16MOL   C40911239   5.760   5.539   3.905 -0.3163 -0.0105 -0.6797
   16MOL   C41011240   5.708   5.409   3.961  0.7837 -0.2711 -0.3260
   16MOL   C41111241   5.765   5.287   3.876 -0.5410  0.5431  0.2805
   16MOL   C41211242   5.702   5.266   3.743 -0.3308 -0.6563 -0.8150
   16MOL   N41311243   5.739   5.143   3.678 -0.5714 -0.1443  0.2152
   16MOL   C41411244   5.412   5.506   3.621  0.2914 -0.8087  0.5478
   16MOL   C41511245   5.385   5.404   3.530 -0.3419  0.4467  0.4167
   16MOL   H41611246   5.126   5.236   3.666 -0.8666  0.7778 -1.0935
   16MOL   H41711247   5.150   5.425   3.829  0.1224  1.4977  0.4720
   16MOL   H41811248   5.561   5.615   3.784  0.8164  0.6188  1.5716
   16MOL   H41911249   5.519   5.785   3.988  1.1260  0.6370  0.8790
   16MOL   H42011250   5.511   5.628   4.058  3.0185 -3.3667 -1.4374
   16MOL   H42111251   5.750   5.682   4.069 -0.5781  1.2784 -0.0626
   16MOL   H42211252   5.733   5.752   3.911  0.0001 -0.5951 -1.1636
   16MOL   H42311253   5.738   5.539   3.798  1.7538  2.6517 -1.1603
   16MOL   H42411254   5.869   5.536   3.904 -0.3427 -1.0442 -1.8783
   16MOL   H42511255   5.599   5.410   3.956  0.7864  1.9510 -0.4196
   16MOL   H42611256   5.742   5.396   4.063 -2.8942  0.3828  1.0356
   16MOL   H42711257   5.748   5.207   3.948 -1.3191  1.2124  0.8469
   16MOL   H42811258   5.871   5.299   3.855 -0.8091  0.1231 -1.3837
   16MOL   H42911259   5.594   5.281   3.753  0.0158  2.8776 -1.7474
   16MOL   H43011260   5.724   5.350   3.677 -0.9929  0.9196  0.9260
   16MOL   H43111261   5.794   5.079   3.733  2.5531  1.6553 -0.6694
   16MOL   H43211262   5.478   5.587   3.596 -1.4803 -0.2412 -2.6075
   16MOL   H43311263   5.450   5.410   3.444  1.2907  1.5530  1.6846
   16MOL   C43411264   5.704   5.115   3.549 -0.2074 -0.3507  0.3376
   16MOL   O43511265   5.629   5.186   3.485  0.1058  0.0569  0.2036
   16MOL   C43611266   5.771   4.994   3.490 -0.2360 -0.5096 -0.6862
   16MOL   C43711267   5.814   4.987   3.353  0.5069 -0.1421 -0.8460
   16MOL   C43811268   5.857   4.869   3.296 -0.0310 -0.0904 -0.6421
   16MOL   C43911269   5.844   4.751   3.365  0.7101 -0.2709  0.6235
   16MOL   C44011270   5.853   4.618   3.296  0.9199 -0.0696  0.3164
   16MOL   O44111271   5.933   4.598   3.205  0.1255 -0.4887 -0.0218
   16MOL   N44211272   5.744   4.536   3.319 -0.0300  0.2478  0.0359
   16MOL   C44311273   5.707   4.425   3.240 -0.4582 -0.0713 -0.6369
   16MOL   C44411274   5.806   4.304   3.267 -0.4825  0.6672  0.2825
   16MOL   C44511275   5.755   4.172   3.206  0.5385 -0.0189  0.1353
   16MOL   C44611276   5.779   4.162   3.055  0.3644 -0.2276  0.3765
   16MOL   C44711277   5.774   4.020   2.988 -0.1434 -0.2150 -0.5102
   16MOL   C44811278   5.790   4.035   2.835 -0.4746  0.3472 -0.3223
   16MOL   N44911279   5.810   3.911   2.770  0.5519  0.1758 -0.2071
   16MOL   C45011280   5.809   4.754   3.503 -0.0078  0.3150  0.1255
   16MOL   C45111281   5.775   4.875   3.564 -0.6882 -0.8880  0.4717
   16MOL   H45211282   5.812   5.068   3.280  0.4606  0.5061 -0.1312
   16MOL   H45311283   5.892   4.867   3.193 -1.4036 -1.3455 -1.1067
   16MOL   H45411284   5.671   4.571   3.379 -1.8283 -1.7696 -0.9248
   16MOL   H45511285   5.603   4.397   3.258 -0.1330 -1.3694 -0.7108
   16MOL   H45611286   5.714   4.466   3.139 -1.2864 -2.0248 -1.5079
   16MOL   H45711287   5.813   4.291   3.375  3.3254  3.5328  0.4772
   16MOL   H45811288   5.911   4.313   3.238 -0.9823  2.8105 -0.9284
   16MOL   H45911289   5.803   4.080   3.239 -0.9127 -0.4563  1.0351
   16MOL   H46011290   5.650   4.167   3.232  0.3526 -0.0808 -0.6089
   16MOL   H46111291   5.869   4.220   3.035  0.4351  0.2343  1.9282
   16MOL   H46211292   5.701   4.231   3.021 -0.5375 -2.3299 -1.9502
   16MOL   H46311293   5.680   3.967   3.004 -0.4205  0.2400 -0.5986
   16MOL   H46411294   5.845   3.943   3.018 -0.3654 -0.0101  0.5881
   16MOL   H46511295   5.710   4.093   2.787  0.0688 -0.9847 -2.9064
   16MOL   H46611296   5.881   4.093   2.819 -0.3765 -0.0175 -1.0762
   16MOL   H46711297   5.904   3.876   2.776  0.0133 -1.3402 -0.5184
   16MOL   H46811298   5.799   4.668   3.567 -2.4503  0.6670  0.2738
   16MOL   H46911299   5.745   4.871   3.667  1.6430  0.3061  1.2381
   16MOL   C47011300   5.719   3.843   2.706 -0.2441  0.0481 -0.3849
   16MOL   O47111301   5.598   3.871   2.702  0.3634 -0.0467 -0.0530
   16MOL   C47211302   5.778   3.736   2.618 -0.1428 -0.0154 -0.1984
   16MOL   C47311303   5.894   3.762   2.541  1.3070  0.1065 -0.3507
   16MOL   C47411304   5.935   3.662   2.450  0.4470 -0.5250  0.5000
   16MOL   C47511305   5.868   3.539   2.437 -0.1758  0.5537 -0.3998
   16MOL   C47611306   5.899   3.437   2.328 -0.7346 -0.3368 -0.0078
   16MOL   O47711307   5.844   3.325   2.326 -0.5338 -0.1941  0.0129
   16MOL   N47811308   5.998   3.458   2.241 -1.0788 -0.1662  0.3393
   16MOL   C47911309   6.049   3.369   2.144 -0.2681 -0.1279  0.4436
   16MOL   C48011310   6.010   3.423   2.005 -0.1605  0.0253  0.4751
   16MOL   C48111311   6.076   3.334   1.901  0.2562  0.1693 -0.0583
   16MOL   C48211312   6.231   3.349   1.879  0.1393 -0.0928  0.2599
   16MOL   C48311313   6.288   3.228   1.801 -0.6334 -0.0390  0.4219
   16MOL   C48411314   6.430   3.240   1.766  0.2747 -0.3024 -0.2696
   16MOL   N48511315   6.458   3.358   1.685  0.4232  0.5643 -0.1761
   16MOL   C48611316   5.757   3.510   2.522  0.9303  0.0023 -0.2973
   16MOL   C48711317   5.714   3.609   2.612  0.1321 -0.7520 -0.1672
   16MOL   H48811318   5.949   3.854   2.560  0.4301  0.5589  0.0455
   16MOL   H48911319   6.027   3.678   2.394 -0.4865 -0.1582 -0.9663
   16MOL   H49011320   6.049   3.544   2.256 -0.6928 -0.3030 -0.1757
   16MOL   H49111321   6.156   3.377   2.164  0.2640 -0.8387 -1.9490
   16MOL   H49211322   6.020   3.264   2.151 -0.6967 -0.0656 -0.3677
   16MOL   H49311323   6.052   3.524   1.999 -0.7756  0.3094  0.8763
   16MOL   H49411324   5.905   3.437   1.981  0.2103 -0.1045 -1.2423
   16MOL   H49511325   6.045   3.232   1.920  2.5221 -0.6605 -0.6855
   16MOL   H49611326   6.021   3.347   1.807 -0.9750  2.1241  0.8916
   16MOL   H49711327   6.283   3.354   1.974 -1.5277 -2.9020  1.3638
   16MOL   H49811328   6.248   3.435   1.814  0.7926 -0.1599  0.3456
   16MOL   H49911329   6.229   3.218   1.710  1.0342 -0.3612 -0.6644
   16MOL   H50011330   6.279   3.139   1.864  3.2604  0.1063  1.3077
   16MOL   H50111331   6.493   3.243   1.855 -0.7140  0.3235  0.4167
   16MOL   H50211332   6.459   3.148   1.715  0.1002 -0.3882 -0.2113
   16MOL   H50311333   6.403   3.443   1.686 -0.4908 -0.0020 -0.9169
   16MOL   H50411334   5.706   3.415   2.519 -0.7084  0.8737 -0.5501
   16MOL   H50511335   5.631   3.594   2.679  1.7117 -0.2329  1.9665
   16MOL   C50611336   6.541   3.364   1.580  0.0010  0.1809  0.1952
   16MOL   O50711337   6.619   3.268   1.549 -0.1251  0.3242 -0.2911
   16MOL   C50811338   6.544   3.489   1.508  0.2211 -0.4720  0.8248
   16MOL   C50911339   6.423   3.544   1.456 -0.2679 -0.1412  0.1272
   16MOL   C51011340   6.432   3.666   1.384 -0.0510 -0.0025  0.1851
   16MOL   C51111341   6.550   3.737   1.369  0.6858  0.5403 -0.1608
   16MOL   C51211342   6.555   3.870   1.293  0.4830 -0.1486 -0.0928
   16MOL   O51311343   6.547   3.885   1.171  0.0656  0.1683  0.3712
   16MOL   N51411344   6.561   3.977   1.373 -0.3580  0.0751 -0.0067
   16MOL   C51511345   6.569   4.113   1.326  0.2829  0.1180  0.3449
   16MOL   C51611346   6.579   4.207   1.446 -0.0239 -0.4156  0.0568
   16MOL   C51711347   6.467   4.205   1.550 -0.1828 -0.4124  0.7937
   16MOL   C51811348   6.334   4.237   1.487 -0.1690 -0.2812 -0.9636
   16MOL   C51911349   6.228   4.286   1.577  0.4659  0.0021 -0.9774
   16MOL   C52011350   6.170   4.167   1.664 -0.7263  0.1661 -0.1949
   16MOL   N52111351   6.128   4.056   1.582  0.1277 -0.0667  0.5724
   16MOL   C52211352   6.672   3.688   1.426 -0.1147  0.1167  0.5605
   16MOL   C52311353   6.667   3.558   1.491  0.0690 -0.3812  0.9336
   16MOL   H52411354   6.335   3.482   1.462 -0.1350 -0.6823 -2.6213
   16MOL   H52511355   6.340   3.700   1.338  0.4875  0.0844 -0.8523
   16MOL   H52611356   6.582   3.960   1.470 -0.1653 -0.7647 -0.1866
   16MOL   H52711357   6.654   4.129   1.260  1.1208 -2.6714  0.6882
   16MOL   H52811358   6.489   4.137   1.256  1.8203 -1.1922 -1.9214
   16MOL   H52911359   6.586   4.310   1.412 -1.5639  0.3152  1.8748
   16MOL   H53011360   6.674   4.185   1.495  0.3764 -0.9665 -0.9561
   16MOL   H53111361   6.463   4.105   1.591 -2.2124 -1.2344 -1.3023
   16MOL   H53211362   6.492   4.265   1.637  0.2226  1.2744 -0.4446
   16MOL   H53311363   6.292   4.167   1.415 -1.1603  0.3908 -1.0490
   16MOL   H53411364   6.341   4.328   1.427  1.0940 -0.4180 -1.0449
   16MOL   H53511365   6.145   4.335   1.527 -0.3623 -0.0057  0.3471
   16MOL   H53611366   6.280   4.357   1.642  0.8063 -1.1546  0.0285
   16MOL   H53711367   6.232   4.146   1.751 -0.3899  0.3789 -0.3791
   16MOL   H53811368   6.083   4.186   1.726 -0.8098  0.5647 -0.4335
   16MOL   H53911369   6.056   4.080   1.516 -0.0996 -0.3326  0.7202
   16MOL   H54011370   6.765   3.741   1.416  0.6383 -1.0036  1.4902
   16MOL   H54111371   6.758   3.524   1.537  1.0849  0.5626 -0.3396
   16MOL   C54211372   6.174   3.930   1.594  0.2484 -0.9589  0.4347
   16MOL   O54311373   6.242   3.884   1.683 -0.5529  0.0777 -0.0837
   16MOL   C54411374   6.141   3.842   1.482 -0.7771  0.3974  0.1010
   16MOL   C54511375   6.108   3.707   1.504  0.0562 -0.5297  0.2057
   16MOL   C54611376   6.082   3.624   1.394  0.8364  0.0345  0.7085
   16MOL   C54711377   6.067   3.673   1.261 -0.0753  0.6924 -0.8648
   16MOL   C54811378   6.025   3.580   1.145 -0.4052  0.3377  0.2428
   16MOL   O54911379   6.039   3.622   1.027  0.0053  0.1855 -0.3436
   16MOL   N55011380   5.976   3.461   1.177 -0.0234 -0.0119  0.6618
   16MOL   C55111381   5.897   3.393   1.077  0.7494  0.9856  0.3287
   16MOL   C55211382   5.989   3.317   0.979  0.3960 -0.4419 -0.7066
   16MOL   C55311383   5.904   3.214   0.904 -0.1678 -0.5690  0.3929
   16MOL   C55411384   5.973   3.146   0.786  1.0234 -0.0476  0.1320
   16MOL   C55511385   5.886   3.033   0.727  0.1278  0.0789  0.1125
   16MOL   C55611386   5.756   3.070   0.676 -0.6850 -0.1603  0.1947
   16MOL   N55711387   5.699   2.963   0.588  0.9230 -0.0532 -0.0550
   16MOL   C55811388   6.090   3.806   1.239 -0.1272  0.5629  0.7481
   16MOL   C55911389   6.132   3.887   1.348  0.0194 -0.1075  0.7744
   16MOL   H56011390   6.106   3.662   1.603 -1.2323 -1.9686 -0.4396
   16MOL   H56111391   6.064   3.521   1.421  1.8443 -0.6217 -1.0429
   16MOL   H56211392   5.962   3.443   1.275 -0.4169  1.8219  0.9596
   16MOL   H56311393   5.837   3.322   1.134 -0.6061  0.4329 -1.7543
   16MOL   H56411394   5.823   3.451   1.022 -2.1208  0.5923  3.5924
   16MOL   H56511395   6.087   3.287   1.017 -0.1380 -0.2348  0.9055
   16MOL   H56611396   6.011   3.396   0.908 -1.7653  0.4721 -0.4166
   16MOL   H56711397   5.876   3.141   0.979  1.5488 -0.6906  0.9336
   16MOL   H56811398   5.818   3.273   0.872  0.8912  0.1988 -1.1060
   16MOL   H56911399   6.059   3.103   0.836 -0.0204 -1.0709  1.0757
   16MOL   H57011400   6.006   3.215   0.708  1.1748 -0.3533 -0.0740
   16MOL   H57111401   5.861   2.971   0.813  2.3178  0.1615  0.8249
   16MOL   H57211402   5.961   2.974   0.674  0.7068  0.0787  0.9330
   16MOL   H57311403   5.690   3.106   0.754  0.2890 -1.1602  1.4979
   16MOL   H57411404   5.764   3.160   0.615 -2.5801  1.8969  2.8445
   16MOL   H57511405   5.721   2.981   0.491  2.0114 -1.3416 -0.0681
   16MOL   H57611406   6.075   3.843   1.139 -2.3461 -0.4266  0.6816
   16MOL   H57711407   6.151   3.989   1.319 -0.8800  0.1692  1.1355
   16MOL   C57811408   5.623   2.868   0.638  0.9370  0.1935 -0.0602
   16MOL   O57911409   5.607   2.849   0.753  0.2629 -0.5208 -0.3532
   16MOL   C58011410   5.543   2.791   0.530  0.4722  0.5339 -0.0952
   16MOL   C58111411   5.527   2.648   0.541  0.0573  0.3702  0.4635
   16MOL   C58211412   5.462   2.573   0.446 -0.0794 -0.0975  0.4763
   16MOL   C58311413   5.422   2.638   0.325  0.6323 -0.9809 -0.9216
   16MOL   C58411414   5.372   2.553   0.215  0.0726 -0.1443  0.3332
   16MOL   O58511415   5.341   2.432   0.226  0.0408  0.0676  0.4762
   16MOL   N58611416   5.371   2.610   0.093  0.8778 -0.0608 -0.5523
   16MOL   C58711417   5.312   2.547   7.861  0.3279 -0.1142  0.2096
   16MOL   C58811418   5.381   2.612   7.742 -0.2635  0.1319  0.9100
   16MOL   C58911419   5.332   2.547   7.605 -0.4865 -0.8027 -0.7291
   16MOL   C59011420   5.406   2.608   7.486 -0.5935  0.2526  0.2573
   16MOL   C59111421   5.366   2.559   7.344  0.2357 -0.9080 -0.1260
   16MOL   C59211422   5.215   2.562   7.328 -0.4664  0.6755 -0.0721
   16MOL   N59311423   5.168   2.518   7.199 -0.3175 -0.7629 -0.0642
   16MOL   C59411424   5.430   2.780   0.317 -0.3229  0.1065 -0.0641
   16MOL   C59511425   5.497   2.853   0.411 -0.5326 -0.1316  0.3252
   16MOL   H59611426   5.567   2.600   0.629  2.2656 -0.8936 -1.1866
   16MOL   H59711427   5.466   2.465   0.451  2.5833 -0.0804 -0.3989
   16MOL   H59811428   5.410   2.703   0.090  2.1283 -0.5452  0.0328
   16MOL   H59911429   5.334   2.440   7.867  0.7311  0.0436  1.4797
   16MOL   H60011430   5.206   2.555   7.883  0.7788 -0.8477  2.8303
   16MOL   H60111431   5.482   2.576   7.760 -0.5112 -0.6703  0.7305
   16MOL   H60211432   5.380   2.721   7.741 -0.8133  0.1278  0.6363
   16MOL   H60311433   5.347   2.439   7.611 -0.1774 -0.6663  0.9142
   16MOL   H60411434   5.225   2.559   7.590 -0.4421  0.3655 -0.1296
   16MOL   H60511435   5.513   2.590   7.493 -0.6963 -1.3925 -2.1246
   16MOL   H60611436   5.396   2.717   7.484  0.2023  0.3073 -1.3732
   16MOL   H60711437   5.411   2.469   7.304  1.0600  0.1005 -1.5291
   16MOL   H60811438   5.410   2.629   7.274  1.4392 -1.0771  0.4483
   16MOL   H60911439   5.170   2.491   7.397 -0.7571 -0.0460 -0.9980
   16MOL   H61011440   5.163   2.656   7.350 -0.1848  0.7468  0.2859
   16MOL   H61111441   5.146   2.421   7.186 -2.9463  0.1572 -2.8421
   16MOL   H61211442   5.393   2.832   0.230 -0.6353  2.5670  1.5134
   16MOL   H61311443   5.508   2.960   0.401  4.7526 -0.5956 -0.1705
   16MOL   C61411444   5.149   2.603   7.096 -0.3726 -0.0103  0.1911
   16MOL   O61511445   5.195   2.717   7.092  0.2624  0.1146  0.0714
   16MOL   C61611446   5.079   2.546   6.972  0.0644  0.3258 -0.2757
   16MOL   C61711447   5.103   2.603   6.844 -0.2496 -0.4583  0.7092
   16MOL   C61811448   5.050   2.543   6.730 -0.1306  0.3341  0.1733
   16MOL   C61911449   4.970   2.426   6.738 -0.3501 -0.0336 -0.5037
   16MOL   C62011450   4.938   2.350   6.614  0.4812 -0.2631  0.6054
   16MOL   O62111451   4.900   2.230   6.612  0.3755 -0.0566  0.4972
   16MOL   N62211452   4.939   2.419   6.496  0.1544 -0.1928 -0.2089
   16MOL   C62311453   4.908   2.364   6.360  0.2268  1.4759  0.6135
   16MOL   C62411454   4.827   2.461   6.278  0.1038 -0.7379  0.4786
   16MOL   C62511455   4.776   2.408   6.148 -0.0442  0.0617  0.5725
   16MOL   C62611456   4.772   2.513   6.028  0.6654 -0.4803 -0.3309
   16MOL   C62711457   4.772   2.455   5.890 -0.3362 -0.0960  0.0717
   16MOL   C62811458   4.904   2.457   5.813  0.2976  0.3864  0.4698
   16MOL   N62911459   4.997   2.370   5.881 -0.3093  0.3114 -0.0510
   16MOL   C63011460   4.934   2.379   6.864  0.0857 -0.6102 -0.6363
   16MOL   C63111461   4.985   2.440   6.980 -0.0088  0.5470  0.5556
   16MOL   H63211462   5.185   2.673   6.838  0.9135 -1.9227 -0.7016
   16MOL   H63311463   5.091   2.572   6.635  2.0656 -0.0395  0.9591
   16MOL   H63411464   4.974   2.514   6.496 -1.0053  0.2517  1.0337
   16MOL   H63511465   4.997   2.335   6.304  0.0559 -0.2629  1.1958
   16MOL   H63611466   4.848   2.274   6.373 -0.1603  1.6042 -0.1944
   16MOL   H63711467   4.896   2.545   6.267 -1.1020  0.3067  0.7309
   16MOL   H63811468   4.745   2.508   6.334 -1.6128 -2.0324 -0.8952
   16MOL   H63911469   4.846   2.327   6.130  0.4947  0.3225  1.4310
   16MOL   H64011470   4.676   2.367   6.159 -0.1298 -0.1867 -1.1280
   16MOL   H64111471   4.849   2.590   6.034 -1.1145  1.3970 -1.3944
   16MOL   H64211472   4.677   2.565   6.038  0.7465  0.2973 -3.1328
   16MOL   H64311473   4.702   2.504   5.822 -0.6017  0.2279  0.5788
   16MOL   H64411474   4.733   2.353   5.895  0.5732 -0.4087  0.8672
   16MOL   H64511475   4.899   2.415   5.713 -3.0910  0.6299  0.5028
   16MOL   H64611476   4.939   2.560   5.811  1.5394 -0.0415 -1.4039
   16MOL   H64711477   4.955   2.281   5.905 -2.1396  1.0998 -0.2316
   16MOL   H64811478   4.868   2.295   6.883  1.0988 -1.4053 -0.6164
   16MOL   H64911479   4.965   2.393   7.075  0.4298 -0.1270  0.3123
   16MOL   C65011480   5.122   2.394   5.924 -0.6594 -0.2556 -0.7875
   16MOL   O65111481   5.179   2.503   5.936 -0.3690 -0.2699  0.1657
   16MOL   C65211482   5.195   2.271   5.966 -0.3812 -0.5113  0.1017
   16MOL   C65311483   5.186   2.151   5.889 -0.1895  0.3420  0.8997
   16MOL   C65411484   5.265   2.039   5.921 -0.3193 -0.1315 -0.3790
   16MOL   C65511485   5.334   2.037   6.044  0.0095  0.5223 -0.5093
   16MOL   C65611486   5.406   1.910   6.087 -0.5232 -0.3841  0.0224
   16MOL   O65711487   5.359   1.802   6.063  0.0817  0.9014 -0.5856
   16MOL   N65811488   5.527   1.935   6.144 -0.9461  0.8458 -0.6450
   16MOL   C65911489   5.620   1.838   6.194  0.3743 -0.0353  0.0072
   16MOL   C66011490   5.764   1.868   6.158 -0.4242  0.4285  0.0594
   16MOL   C66111491   5.793   1.843   6.008  0.3170  0.1609  0.0945
   16MOL   C66211492   5.937   1.858   5.974 -0.3377  0.2560 -0.5068
   16MOL   C66311493   6.006   1.984   6.026 -0.2909 -0.9203 -0.0439
   16MOL   C66411494   6.155   1.993   5.982 -0.0760 -0.4151  0.2392
   16MOL   N66511495   6.216   2.111   6.035 -0.7896 -0.3364  0.0700
   16MOL   C66611496   5.340   2.155   6.126  0.2601  0.0557 -0.4106
   16MOL   C66711497   5.275   2.269   6.083  0.4559 -1.0876  0.9986
   16MOL   H66811498   5.133   2.151   5.795  1.9683 -1.4527 -0.3630
   16MOL   H66911499   5.248   1.950   5.861 -0.4079 -0.0654 -0.4505
   16MOL   H67011500   5.547   2.030   6.172  1.0378  0.2778 -0.0678
   16MOL   H67111501   5.619   1.823   6.302  0.9359  1.2249  0.1921
   16MOL   H67211502   5.595   1.733   6.175  0.0084 -0.4383  2.6123
   16MOL   H67311503   5.827   1.802   6.218 -1.4263  0.4011  1.0919
   16MOL   H67411504   5.791   1.971   6.180 -2.4429  0.8170  0.8276
   16MOL   H67511505   5.761   1.747   5.967  1.2693  0.1086 -0.5446
   16MOL   H67611506   5.731   1.919   5.962  1.7875  0.9085 -0.6927
   16MOL   H67711507   5.932   1.870   5.866  2.1554  1.4115 -0.5275
   16MOL   H67811508   6.002   1.772   5.992 -1.9371 -0.6384  1.1624
   16MOL   H67911509   6.007   1.972   6.134  0.1595 -1.8868 -0.1546
   16MOL   H68011510   5.947   2.075   6.013 -0.1851 -0.9727 -0.9156
   16MOL   H68111511   6.206   1.899   6.005  1.2262  0.4348  0.8818
   16MOL   H68211512   6.159   1.998   5.874  1.8467  2.4861  0.4091
   16MOL   H68311513   6.278   2.107   6.114 -0.1927  0.0604 -0.3691
   16MOL   H68411514   5.395   2.159   6.219 -0.6170 -0.1617  0.1244
   16MOL   H68511515   5.288   2.361   6.138 -0.7259  0.2695 -0.9119
   16MOL   C68611516   6.211   2.229   5.961  0.6253  0.7960 -1.1646
   16MOL   O68711517   6.138   2.247   5.864 -0.6963 -0.0476  0.0350
   16MOL   C68811518   6.305   2.333   5.995  0.1253 -0.4450 -0.2174
   16MOL   C68911519   6.262   2.467   5.964  0.1397  0.5352 -0.1547
   16MOL   C69011520   6.347   2.573   6.001 -0.1850  0.1151 -0.1221
   16MOL   C69111521   6.475   2.547   6.063  0.1448 -0.0660 -0.7999
   16MOL   C69211522   6.557   2.663   6.104 -0.0610 -0.4776  0.1097
   16MOL   O69311523   6.507   2.774   6.140 -0.3873  0.0478 -0.3804
   16MOL   N69411524   6.689   2.649   6.114  0.4284 -0.4789  0.1941
   16MOL   C69511525   6.780   2.751   6.169 -0.1551 -0.1002  1.0086
   16MOL   C69611526   6.837   2.850   6.069  0.5123  0.1280 -0.2162
   16MOL   C69711527   6.937   2.945   6.132  0.5763  0.2762 -0.1451
   16MOL   C69811528   6.944   3.067   6.047 -0.5441 -0.2251 -0.7889
   16MOL   C69911529   7.027   3.184   6.106 -0.4934 -0.1663 -0.0548
   16MOL   C70011530   7.179   3.166   6.091 -0.8971 -0.3722  0.3941
   16MOL   N70111531   7.229   3.204   5.964  0.2367 -0.2466 -0.3790
   16MOL   C70211532   6.516   2.410   6.090  0.6995 -0.4469  0.2045
   16MOL   C70311533   6.433   2.302   6.055  0.2706 -0.3053  0.2128
   16MOL   H70411534   6.159   2.475   5.933  0.3897 -0.2470 -1.2227
   16MOL   H70511535   6.311   2.674   5.990 -1.8256 -0.6965 -2.8179
   16MOL   H70611536   6.733   2.578   6.058 -0.6440  0.7266 -2.2735
   16MOL   H70711537   6.736   2.800   6.256 -0.5402 -0.4404  1.0066
   16MOL   H70811538   6.858   2.690   6.214  0.5425 -0.0380 -0.1037
   16MOL   H70911539   6.753   2.902   6.024 -0.6319 -0.2970  1.4149
   16MOL   H71011540   6.884   2.793   5.989  1.2069 -0.9242  0.9265
   16MOL   H71111541   6.907   2.976   6.232  1.1211  0.5058 -0.0464
   16MOL   H71211542   7.035   2.899   6.151  0.6125 -0.6380 -2.4815
   16MOL   H71311543   6.842   3.104   6.042 -0.9856 -1.4687 -1.1570
   16MOL   H71411544   6.988   3.047   5.949  2.3795  2.0120 -0.0012
   16MOL   H71511545   7.007   3.188   6.213 -1.3696 -0.2799 -0.2038
   16MOL   H71611546   6.993   3.282   6.073  0.1195  0.6129  1.5951
   16MOL   H71711547   7.227   3.235   6.159  0.1942 -3.1684  2.5774
   16MOL   H71811548   7.209   3.062   6.102 -2.6275 -0.9849 -0.3609
   16MOL   H71911549   7.329   3.202   5.978  0.3730 -0.9437 -1.3668
   16MOL   H72011550   6.612   2.383   6.130  0.8921  0.0650  0.0890
   16MOL   H72111551   6.463   2.200   6.070 -0.2689 -0.4854  0.0744
   16MOL   H72211552   7.208   3.301   5.949 -0.7610 -0.3189  0.5058
   17MOL     C111553   2.172   7.241   3.730 -0.3252 -0.1333  0.1963
   17MOL     O211554   2.264   7.160   3.715 -0.2883 -0.3098  0.2525
   17MOL     C311555   2.188   7.361   3.823 -0.1624 -0.0030 -0.5108
   17MOL     C411556   2.078   7.444   3.858  0.2957  0.3247  0.3742
   17MOL     C511557   2.097   7.557   3.942  0.6518  0.5064 -0.4686
   17MOL     C611558   2.225   7.591   3.985 -0.3618 -0.7755  0.5076
   17MOL     C711559   2.234   7.709   4.082 -0.0821 -0.2321  0.0669
   17MOL     O811560   2.171   7.813   4.061 -0.3878 -0.0894 -0.2800
   17MOL     N911561   2.311   7.689   4.188 -0.2309  0.3241  0.3985
   17MOL    C1011562   2.325   7.793   4.294 -0.4190 -0.4058  0.3580
   17MOL    C1111563   2.461   7.785   4.356 -0.0630  0.4775  0.1356
   17MOL    C1211564   2.578   7.805   4.260  1.2849  0.4950  0.1910
   17MOL    C1311565   2.702   7.860   4.336 -0.5451 -0.1467 -0.0406
   17MOL    C1411566   2.825   7.871   4.249  0.2498  0.8633 -0.7153
   17MOL    C1511567   2.933   0.073   4.324 -0.1071  0.2426  0.2178
   17MOL    N1611568   3.020   0.124   4.220 -0.8623 -0.7099  0.2346
   17MOL    C1711569   2.336   7.511   3.947  0.1286 -0.5837  0.5597
   17MOL    C1811570   2.317   7.398   3.869  1.1607  0.0419 -0.0900
   17MOL    H1911571   1.979   7.430   3.819  0.7218 -2.5579  0.1801
   17MOL    H2011572   2.010   7.611   3.976  0.0097 -0.7495 -0.0973
   17MOL    H2111573   2.371   7.608   4.185 -2.5260 -1.5730  3.1524
   17MOL    H2211574   2.305   0.008   4.259 -1.0733 -0.0924  1.6115
   17MOL    H2311575   2.239   7.789   4.361  0.1826  1.4547  1.2723
   17MOL    H2411576   2.483   7.691   4.405  0.7627  0.0202 -1.1047
   17MOL    H2511577   2.466   7.861   4.435  3.4763  0.1601  0.2927
   17MOL    H2611578   2.600   7.724   4.190  2.6585  0.9680  0.0501
   17MOL    H2711579   2.542   0.002   4.200  3.6758  1.5266  0.1325
   17MOL    H2811580   2.717   7.798   4.424  0.7719  0.0929 -0.0791
   17MOL    H2911581   2.697   0.079   4.366  0.2372 -0.3565  0.8431
   17MOL    H3011582   2.789   0.040   4.162 -2.0586 -0.5383 -0.7051
   17MOL    H3111583   2.866   7.771   4.232  0.0638  0.3763  1.4978
   17MOL    H3211584   2.896   0.161   4.376 -1.7353 -0.1832 -0.1730
   17MOL    H3311585   2.988   0.009   4.393  1.2181 -0.2328 -1.2589
   17MOL    H3411586   2.973   0.161   4.139 -0.6456 -2.7786 -0.8669
   17MOL    H3511587   2.437   7.532   3.980 -0.0262 -0.6428  1.0834
   17MOL    H3611588   2.399   7.336   3.836  2.1420  1.2373  0.0803
   17MOL    H3711589   2.075   7.238   3.680 -0.2935  0.9956  0.0498
   17MOL    C3811590   3.150   0.157   4.230 -0.8727 -0.4329  0.0889
   17MOL    O3911591   3.208   0.157   4.346  0.1664  0.0016  0.0581
   17MOL    C4011592   3.205   0.211   4.106  0.9428 -0.3032  0.1509
   17MOL    C4111593   3.299   0.316   4.117  0.2406 -0.3772 -0.2687
   17MOL    C4211594   3.370   0.359   4.004  0.3620  0.3369 -0.2853
   17MOL    C4311595   3.349   0.303   3.874  0.0576  0.0441  0.4306
   17MOL    C4411596   3.410   0.371   3.754  0.4225  0.1317 -0.0321
   17MOL    O4511597   3.353   0.356   3.646  0.6384  0.0649 -0.8341
   17MOL    N4611598   3.521   0.440   3.773  0.0208  0.0932 -0.4745
   17MOL    C4711599   3.592   0.506   3.659 -0.0595  0.6249 -0.2308
   17MOL    C4811600   3.651   0.392   3.566  0.0654 -0.5067  0.5571
   17MOL    C4911601   3.750   0.443   3.465  0.3443  0.5677  0.0250
   17MOL    C5011602   3.786   0.338   3.357 -0.4011 -0.0189 -0.6587
   17MOL    C5111603   3.873   0.395   3.238 -0.5293  0.2999 -0.4780
   17MOL    C5211604   4.003   0.473   3.281  1.1022 -0.0818 -0.6035
   17MOL    N5311605   4.074   0.410   3.387  0.1474 -0.0273 -0.4460
   17MOL    C5411606   3.259   0.196   3.861  0.8250 -0.4787  0.5854
   17MOL    C5511607   3.195   0.146   3.979  0.1066 -0.4970  0.0953
   17MOL    H5611608   3.321   0.365   4.210  1.4605 -0.0299 -0.7347
   17MOL    H5711609   3.427   0.448   4.028  1.0922 -0.3926  0.7235
   17MOL    H5811610   3.560   0.438   3.866  2.0829  0.5075 -1.2999
   17MOL    H5911611   3.520   0.566   3.603 -0.3517 -1.4105 -2.1275
   17MOL    H6011612   3.678   0.565   3.689  0.1055  0.9746 -1.3852
   17MOL    H6111613   3.568   0.357   3.506 -1.7423  4.0305  0.2489
   17MOL    H6211614   3.688   0.310   3.628  1.3618 -0.5472 -0.2553
   17MOL    H6311615   3.703   0.528   3.418 -1.5305 -0.8166 -0.6513
   17MOL    H6411616   3.846   0.471   3.509  0.1341  2.1513 -0.5042
   17MOL    H6511617   3.698   0.287   3.320 -1.7570  1.5603  0.2920
   17MOL    H6611618   3.846   0.265   3.412 -0.9338  0.6155  0.8046
   17MOL    H6711619   3.808   0.456   3.175 -1.5277  1.1180  1.2973
   17MOL    H6811620   3.907   0.323   3.164  0.3363 -0.4435  0.6261
   17MOL    H6911621   4.064   0.497   3.194 -0.8597  0.5219 -1.8272
   17MOL    H7011622   3.967   0.566   3.323  1.8124 -0.2363  0.3691
   17MOL    H7111623   4.071   0.461   3.474  1.1093 -2.9051  1.3585
   17MOL    H7211624   3.246   0.145   3.767  0.6942 -0.0531  0.3678
   17MOL    H7311625   3.135   0.057   3.969  0.6793 -0.7696 -1.0070
   17MOL    C7411626   4.144   0.296   3.377 -0.9837  0.3491  0.1337
   17MOL    O7511627   4.162   0.241   3.268  0.1751  0.0835 -0.0602
   17MOL    C7611628   4.207   0.240   3.503 -0.2281 -0.4591 -0.1899
   17MOL    C7711629   4.315   0.148   3.494  0.6713 -0.0205  0.1980
   17MOL    C7811630   4.364   0.087   3.611 -0.0518  0.5976 -1.0101
   17MOL    C7911631   4.292   0.106   3.734 -0.7417  0.0070 -0.6151
   17MOL    C8011632   4.336   0.031   3.858 -0.5809 -0.4100  0.1552
   17MOL    O8111633   4.452   0.060   3.899  0.3255  0.0117 -0.6668
   17MOL    N8211634   4.255   7.821   3.894 -0.2628  0.1134 -0.0232
   17MOL    C8311635   4.267   7.720   4.005  0.6597  0.5505  0.3520
   17MOL    C8411636   4.394   7.627   3.985  0.4670  0.2523  0.0822
   17MOL    C8511637   4.421   7.531   4.100  0.0852  0.4588 -0.1388
   17MOL    C8611638   4.540   7.437   4.064  0.0508 -1.0258  0.3597
   17MOL    C8711639   4.580   7.346   4.179 -0.0268  0.3682  0.6387
   17MOL    C8811640   4.709   7.265   4.162 -0.2068 -0.2748 -0.0936
   17MOL    N8911641   4.699   7.193   4.043 -0.2665 -0.5515  0.0601
   17MOL    C9011642   4.196   0.204   3.742  0.2242 -0.5461 -0.0202
   17MOL    C9111643   4.156   0.275   3.631 -0.5049 -0.2581  0.8576
   17MOL    H9211644   4.360   0.130   3.398 -0.8293  1.2935 -0.7760
   17MOL    H9311645   4.428   0.001   3.597 -0.3234  0.4604 -1.4098
   17MOL    H9411646   4.164   7.814   3.851 -1.1610  1.1492  1.6422
   17MOL    H9511647   4.258   7.770   4.101  1.4825  2.9243 -0.7710
   17MOL    H9611648   4.181   7.655   3.991  0.1069  1.4116 -0.3098
   17MOL    H9711649   4.480   7.695   3.978  1.3241 -0.8421 -0.1133
   17MOL    H9811650   4.376   7.570   3.894  2.8532  0.1677 -0.3599
   17MOL    H9911651   4.432   7.586   4.194 -0.3717 -1.4141  1.0430
   17MOL   H10011652   4.326   7.479   4.109  0.0957  0.8898  3.4662
   17MOL   H10111653   4.626   7.502   4.045 -1.1875  0.8422  0.9927
   17MOL   H10211654   4.513   7.378   3.976  1.4681  0.8889 -1.4238
   17MOL   H10311655   4.502   7.274   4.204 -0.1752  1.1541  2.5628
   17MOL   H10411656   4.594   7.420   4.258 -1.9392  1.1467  0.2653
   17MOL   H10511657   4.787   7.339   4.144 -0.8261  0.3351 -0.2586
   17MOL   H10611658   4.734   7.194   4.241  0.5475 -0.6788 -0.6842
   17MOL   H10711659   4.612   7.182   3.995 -0.8237  0.2907  0.8532
   17MOL   H10811660   4.145   0.224   3.835 -0.8713 -1.5887 -0.3839
   17MOL   H10911661   4.077   0.348   3.638 -2.9422 -2.4219 -2.3823
   17MOL   C11011662   4.802   7.140   3.977 -0.2882 -0.3946 -0.2684
   17MOL   O11111663   4.918   7.156   4.004  0.7685  0.6010 -0.3315
   17MOL   C11211664   4.755   7.064   3.857  0.2176  0.4130 -0.3364
   17MOL   C11311665   4.622   7.036   3.827  0.0991 -0.7648  0.8329
   17MOL   C11411666   4.578   6.960   3.713 -0.1008 -0.2654 -0.3922
   17MOL   C11511667   4.671   6.910   3.619 -0.0982  0.0350  0.1684
   17MOL   C11611668   4.637   6.836   3.493  0.5561 -0.1614  0.1234
   17MOL   O11711669   4.676   6.865   3.386 -0.0865 -0.1688 -0.3374
   17MOL   N11811670   4.563   6.731   3.517  0.1724 -0.7075 -0.4845
   17MOL   C11911671   4.510   6.633   3.430 -0.7513 -0.1016  0.4202
   17MOL   C12011672   4.601   6.511   3.432 -0.5274  0.0466 -0.1083
   17MOL   C12111673   4.554   6.391   3.346 -0.0733  0.0286  0.4688
   17MOL   C12211674   4.669   6.293   3.340 -0.8642 -0.0164  0.7081
   17MOL   C12311675   4.635   6.169   3.260  0.6309 -0.0802 -0.4293
   17MOL   C12411676   4.765   6.085   3.273 -0.7398  0.1555 -0.1518
   17MOL   N12511677   4.770   5.975   3.183 -0.3053 -0.7244  0.2760
   17MOL   C12611678   4.803   6.931   3.649 -0.1498  0.1973  0.2464
   17MOL   C12711679   4.851   7.011   3.759 -0.3217  0.4323  0.1229
   17MOL   H12811680   4.547   7.049   3.904 -0.1710 -0.2431  0.4865
   17MOL   H12911681   4.471   6.943   3.708  0.0967 -1.7183  0.1644
   17MOL   H13011682   4.555   6.713   3.616 -1.0427  0.5719 -0.3423
   17MOL   H13111683   4.405   6.612   3.454 -1.1274 -1.4475 -2.1950
   17MOL   H13211684   4.509   6.667   3.326  2.0579  1.9547  1.0119
   17MOL   H13311685   4.605   6.474   3.535  0.9040  1.0150  0.1917
   17MOL   H13411686   4.699   6.548   3.403  0.2758 -1.0623  1.1247
   17MOL   H13511687   4.462   6.346   3.382 -0.0967 -0.4284 -0.1644
   17MOL   H13611688   4.540   6.422   3.243  1.3374  1.1857  0.6080
   17MOL   H13711689   4.688   6.272   3.446  0.1553  1.1087  0.7523
   17MOL   H13811690   4.761   6.345   3.312  0.2957 -0.7368  2.9846
   17MOL   H13911691   4.618   6.204   3.158  1.6321  2.2750  0.1871
   17MOL   H14011692   4.557   6.098   3.289  0.0527  1.0050  0.7383
   17MOL   H14111693   4.855   6.141   3.250 -2.0050  2.7443  1.0089
   17MOL   H14211694   4.769   6.060   3.379 -0.3452 -1.3068 -0.5040
   17MOL   H14311695   4.805   5.994   3.090  0.1115  2.1499  0.9528
   17MOL   H14411696   4.861   6.896   3.565 -0.6583  1.1102 -0.4982
   17MOL   H14511697   4.954   7.032   3.782 -0.4260  0.4219  0.5921
   17MOL   C14611698   4.728   5.855   3.215  0.1576 -0.1433  0.2775
   17MOL   O14711699   4.668   5.838   3.321  0.4245  0.1205 -0.1978
   17MOL   C14811700   4.750   5.743   3.120  0.7415  0.1197 -0.2986
   17MOL   C14911701   4.722   5.609   3.155  1.3036  0.2361 -0.6171
   17MOL   C15011702   4.740   5.503   3.063  0.3120 -0.2526 -0.0105
   17MOL   C15111703   4.783   5.528   2.935 -0.0909  1.0122  0.6864
   17MOL   C15211704   4.787   5.412   2.832 -0.4672  0.7135  0.1642
   17MOL   O15311705   4.694   5.394   2.756  0.2025 -0.3989 -0.0530
   17MOL   N15411706   4.894   5.328   2.843 -0.2457  0.0497 -0.3717
   17MOL   C15511707   4.913   5.210   2.774  0.6743  0.4357 -0.5438
   17MOL   C15611708   4.969   5.232   2.631  0.8319 -0.0023 -0.2045
   17MOL   C15711709   4.977   5.098   2.553 -0.4211 -0.3022  0.2268
   17MOL   C15811710   5.049   5.094   2.413  0.0803  0.2506  0.5020
   17MOL   C15911711   5.193   5.154   2.406 -0.0100 -0.6690  0.0840
   17MOL   C16011712   5.279   5.130   2.285 -0.7294 -0.0796  0.5946
   17MOL   N16111713   5.400   5.202   2.285  0.0840  0.1413  0.5363
   17MOL   C16211714   4.815   5.656   2.895 -0.0744  0.5579  0.6472
   17MOL   C16311715   4.795   5.762   2.990  0.7182  0.0195  0.9751
   17MOL   H16411716   4.670   5.584   3.246 -0.1643  1.4284 -1.1019
   17MOL   H16511717   4.716   5.404   3.097  0.4890 -0.5753 -0.8142
   17MOL   H16611718   4.976   5.369   2.883 -0.5421 -0.9545  1.2909
   17MOL   H16711719   4.985   5.147   2.825 -0.1045  0.3217  0.4369
   17MOL   H16811720   4.824   5.148   2.764 -0.6916  1.6882  2.9780
   17MOL   H16911721   5.069   5.275   2.639  1.1346 -0.7368  0.0221
   17MOL   H17011722   4.901   5.295   2.574 -1.1159  0.1142  2.1622
   17MOL   H17111723   5.029   5.028   2.619  1.3612 -0.8755 -1.7592
   17MOL   H17211724   4.881   5.050   2.536  0.1677 -0.3147 -3.4090
   17MOL   H17311725   4.989   5.153   2.343 -0.5235 -1.5764 -0.5526
   17MOL   H17411726   5.044   4.992   2.375  1.9998  0.3052  0.0511
   17MOL   H17511727   5.242   5.110   2.492 -0.9920 -1.2222  0.3681
   17MOL   H17611728   5.194   5.262   2.420 -1.9448 -0.5534 -0.5660
   17MOL   H17711729   5.312   5.026   2.294  1.1490  0.3226 -1.3811
   17MOL   H17811730   5.228   5.143   2.190  1.4101  5.1843  0.0402
   17MOL   H17911731   5.418   5.282   2.345  1.5159 -1.2111  1.9706
   17MOL   H18011732   4.845   5.671   2.792 -4.3252 -0.9308 -0.9067
   17MOL   H18111733   4.807   5.860   2.946 -0.1281 -0.7691 -1.0925
   17MOL   C18211734   5.498   5.199   2.185  0.3900 -0.8860 -1.3130
   17MOL   O18311735   5.479   5.135   2.080 -0.4224 -0.2692  0.2577
   17MOL   C18411736   5.630   5.267   2.215 -0.1971  0.7632  0.5627
   17MOL   C18511737   5.678   5.267   2.348  0.1445  0.7759  0.3611
   17MOL   C18611738   5.799   5.327   2.370 -0.5709  0.0783 -0.1047
   17MOL   C18711739   5.884   5.377   2.272 -0.1566 -0.4815  0.2987
   17MOL   C18811740   6.013   5.449   2.310 -1.0282 -0.3628 -0.8456
   17MOL   O18911741   6.019   5.518   2.414  0.1110  0.6125  0.2372
   17MOL   N19011742   6.114   5.414   2.233  0.4991 -0.1112 -0.1113
   17MOL   C19111743   6.242   5.481   2.230  0.4563  0.2546 -0.2117
   17MOL   C19211744   6.314   5.474   2.097 -0.1619 -0.2933 -0.1842
   17MOL   C19311745   6.360   5.334   2.052  0.1023 -0.1486 -0.3335
   17MOL   C19411746   6.426   5.336   1.920  0.1719 -0.2096 -0.3985
   17MOL   C19511747   6.489   5.200   1.895 -0.3645  0.6688  0.1068
   17MOL   C19611748   6.555   5.189   1.757  0.9432 -0.6122 -0.2492
   17MOL   N19711749   6.638   5.072   1.745  0.2821  0.2631  0.1800
   17MOL   C19811750   5.838   5.376   2.139  0.4171  0.2307 -0.1678
   17MOL   C19911751   5.708   5.326   2.112 -0.0507 -0.0449 -0.6146
   17MOL   H20011752   5.628   5.214   2.429  2.4541 -0.7748  0.8170
   17MOL   H20111753   5.829   5.317   2.473 -1.8233  0.0549  0.2691
   17MOL   H20211754   6.088   5.352   2.158  1.7620 -2.1500  1.0707
   17MOL   H20311755   6.218   5.586   2.249  0.7023 -0.0987  2.1968
   17MOL   H20411756   6.293   5.451   2.322 -0.5376 -1.2010 -0.1252
   17MOL   H20511757   6.404   5.536   2.098  0.2031 -0.6267 -4.0709
   17MOL   H20611758   6.250   5.519   2.020 -0.7200  0.1165  0.5129
   17MOL   H20711759   6.441   5.298   2.116 -0.0062 -1.4717 -0.9330
   17MOL   H20811760   6.272   5.269   2.045 -1.7272  2.4447 -2.8337
   17MOL   H20911761   6.506   5.408   1.937  1.0064 -1.2178 -0.0163
   17MOL   H21011762   6.357   5.360   1.839  0.0737 -0.0348 -0.2634
   17MOL   H21111763   6.409   5.125   1.901 -1.5676  1.8085 -1.1511
   17MOL   H21211764   6.565   5.179   1.970  1.6658  1.0649 -1.7838
   17MOL   H21311765   6.485   5.188   1.674  0.4774  0.1114  0.1318
   17MOL   H21411766   6.608   5.283   1.741  0.9958 -0.2647  1.8795
   17MOL   H21511767   6.739   5.069   1.739  0.2950 -1.1931  0.9597
   17MOL   H21611768   5.900   5.427   2.066 -0.0303 -0.2184 -0.8653
   17MOL   H21711769   5.669   5.329   2.011  0.3047  1.5570 -0.7199
   17MOL   C21811770   6.586   4.955   1.713  0.0966 -0.4003  0.3164
   17MOL   O21911771   6.464   4.945   1.699  0.5573 -0.1370  0.2864
   17MOL   C22011772   6.677   4.836   1.706  0.6227 -0.1840 -0.8354
   17MOL   C22111773   6.813   4.845   1.746  0.2835 -0.3202 -0.2880
   17MOL   C22211774   6.899   4.732   1.738 -0.0390 -0.3206  0.5958
   17MOL   C22311775   6.856   4.610   1.688 -0.5745 -0.9484 -0.2139
   17MOL   C22411776   6.948   4.494   1.674 -0.9920  0.1370 -0.8438
   17MOL   O22511777   6.928   4.410   1.588  0.5761 -0.0092 -0.2519
   17MOL   N22611778   7.051   4.487   1.763 -0.0556 -0.2013  0.2151
   17MOL   C22711779   7.131   4.376   1.792 -0.2108 -0.0399 -0.6645
   17MOL   C22811780   7.152   4.359   1.942 -0.3165 -0.9854 -0.1596
   17MOL   C22911781   7.263   4.256   1.964 -0.1011  0.4666 -0.4085
   17MOL   C23011782   7.285   4.232   2.110  0.3829  0.1588 -0.0919
   17MOL   C23111783   7.349   4.096   2.137  0.0055 -0.3960  0.1879
   17MOL   C23211784   7.345   4.064   2.291 -0.3123  0.6799 -0.1958
   17MOL   N23311785   7.422   3.948   2.331  0.8510 -0.0252  0.3921
   17MOL   C23411786   6.721   4.601   1.656  0.0301 -0.3457 -0.6597
   17MOL   C23511787   6.630   4.710   1.666  0.2365  0.3133 -0.9370
   17MOL   H23611788   6.846   4.942   1.780  1.4752 -0.0024 -2.3272
   17MOL   H23711789   7.000   4.739   1.776 -0.8276 -1.3382  2.9665
   17MOL   H23811790   7.082   4.571   1.808 -0.9428 -0.5781  1.5567
   17MOL   H23911791   7.091   4.288   1.742 -2.1886  0.6208 -0.2837
   17MOL   H24011792   7.232   4.394   1.753  0.7934  1.2925  2.3707
   17MOL   H24111793   7.052   4.340   1.979 -0.3557 -1.3343 -0.4371
   17MOL   H24211794   7.186   4.448   1.996  0.9011 -1.9948  0.7832
   17MOL   H24311795   7.233   4.163   1.915  1.1857 -0.2154  0.0763
   17MOL   H24411796   7.357   4.286   1.916 -1.1161  3.6042 -0.5468
   17MOL   H24511797   7.188   4.228   2.160  0.8145  0.0859  0.7547
   17MOL   H24611798   7.329   4.315   2.165 -1.2617  0.2736  1.0989
   17MOL   H24711799   7.449   4.102   2.095  0.0547  0.5355  0.4265
   17MOL   H24811800   7.303   4.019   2.076  1.3702 -1.1950  0.1477
   17MOL   H24911801   7.375   4.153   2.347  0.4521 -0.3397  1.0412
   17MOL   H25011802   7.243   4.052   2.328  0.3288 -0.0647  1.3642
   17MOL   H25111803   7.514   3.928   2.293  0.5785  1.5263 -1.1184
   17MOL   H25211804   6.677   4.506   1.630 -0.2927 -0.4988  0.4134
   17MOL   H25311805   6.527   4.686   1.644  0.0991 -0.5707  0.5610
   17MOL   C25411806   7.375   3.858   2.422 -0.5289  0.2282 -0.4876
   17MOL   O25511807   7.262   3.860   2.474 -0.3111  0.0878  0.1295
   17MOL   C25611808   7.484   3.763   2.467 -0.0637  0.1959 -0.3305
   17MOL   C25711809   7.566   3.698   2.379 -1.1233  0.1671 -0.1811
   17MOL   C25811810   7.658   3.597   2.421  0.1923  0.3128 -0.3514
   17MOL   C25911811   7.655   3.557   2.557 -0.3993  0.3946  0.2968
   17MOL   C26011812   7.735   3.439   2.607 -0.3208 -0.2064  0.3354
   17MOL   O26111813   7.701   3.388   2.715  0.1128  0.0658 -0.0083
   17MOL   N26211814   7.835   3.398   2.530  0.6312 -0.0401  0.4090
   17MOL   C26311815   0.026   3.276   2.563  0.2429  0.5885 -0.2020
   17MOL   C26411816   0.138   3.286   2.670  0.1346 -0.1433 -0.3029
   17MOL   C26511817   0.151   3.152   2.751  0.2280  0.0172  0.3340
   17MOL   C26611818   0.262   3.158   2.860  0.1705 -0.3438 -0.3632
   17MOL   C26711819   0.256   3.036   2.945  0.0657 -0.6040  0.2570
   17MOL   C26811820   0.365   3.019   3.055 -0.3281 -0.1782 -0.1861
   17MOL   N26911821   0.494   3.023   2.988  0.5515 -0.1735  0.3638
   17MOL   C27011822   7.580   3.633   2.649 -0.0183  0.6754 -0.0862
   17MOL   C27111823   7.493   3.736   2.605 -0.1621  0.4147 -0.3236
   17MOL   H27211824   7.553   3.722   2.274 -3.1894 -1.7592 -0.4168
   17MOL   H27311825   7.718   3.545   2.348  0.2762  0.6700 -0.5337
   17MOL   H27411826   7.861   3.460   2.455 -2.1135 -1.1154 -1.4886
   17MOL   H27511827   7.841   3.208   2.609 -2.4968  1.3957 -3.0384
   17MOL   H27611828   0.049   3.238   2.463 -2.3656  0.0561 -0.6347
   17MOL   H27711829   0.131   3.375   2.732 -0.1400  0.5200 -1.2786
   17MOL   H27811830   0.235   3.308   2.625  2.0944 -0.3975  3.5104
   17MOL   H27911831   0.052   3.139   2.793 -0.5996 -0.7829 -1.8037
   17MOL   H28011832   0.180   3.072   2.682 -2.9808 -1.0348  0.1296
   17MOL   H28111833   0.251   3.241   2.930 -0.8257 -0.3929 -0.4632
   17MOL   H28211834   0.363   3.166   2.818  0.7531  0.8973  1.2101
   17MOL   H28311835   0.256   2.952   2.875 -0.8811  0.2510 -0.7879
   17MOL   H28411836   0.161   3.028   2.998  1.8622 -0.2574  3.6211
   17MOL   H28511837   0.360   3.101   3.127  4.0789  0.3363 -0.3091
   17MOL   H28611838   0.358   2.924   3.108  0.3248 -0.5974 -0.8380
   17MOL   H28711839   0.554   3.105   2.996  0.1033  0.3065 -1.0371
   17MOL   H28811840   7.580   3.602   2.753 -2.8793 -1.0591 -0.5752
   17MOL   H28911841   7.423   3.790   2.667 -0.4772  0.4755 -0.7312
   17MOL   C29011842   0.545   2.925   2.912 -0.0843  0.2486 -0.2132
   17MOL   O29111843   0.499   2.811   2.907  0.3510  0.2074  0.1364
   17MOL   C29211844   0.677   2.961   2.842  0.2019 -0.1280  0.0069
   17MOL   C29311845   0.771   3.053   2.890 -0.8114  0.0722 -0.1321
   17MOL   C29411846   0.901   3.053   2.835  1.0528  0.5098  0.6346
   17MOL   C29511847   0.934   2.990   2.718 -0.0390  0.4240 -0.1375
   17MOL   C29611848   1.067   2.996   2.654  0.1813 -0.1571  0.0742
   17MOL   O29711849   1.120   2.901   2.599 -0.1077 -0.2914 -0.4036
   17MOL   N29811850   1.122   3.112   2.664 -0.3790  0.0048  0.1240
   17MOL   C29911851   1.243   3.150   2.594  0.3646  0.1095  0.1395
   17MOL   C30011852   1.242   3.297   2.546  0.8322 -0.5646 -0.5996
   17MOL   C30111853   1.234   3.399   2.650 -0.2363  0.0527 -0.1691
   17MOL   C30211854   1.202   3.543   2.600 -0.0327 -1.1118  0.3161
   17MOL   C30311855   1.192   3.643   2.717 -0.6436 -0.0201 -0.1126
   17MOL   C30411856   1.147   3.784   2.658  0.0007 -0.6511  0.5682
   17MOL   N30511857   1.129   3.888   2.761  0.0395  0.0738  0.4219
   17MOL   C30611858   0.833   2.915   2.657  0.0095  0.0610 -0.7470
   17MOL   C30711859   0.704   2.895   2.719 -0.0326 -0.5451  0.1000
   17MOL   H30811860   0.761   3.113   2.979  0.7946 -0.8575  0.6899
   17MOL   H30911861   0.979   3.114   2.877  0.9971  0.6916  0.4782
   17MOL   H31011862   1.078   3.183   2.720 -0.7322  0.9954 -1.3797
   17MOL   H31111863   1.326   3.130   2.661  2.1300  3.4557 -0.9746
   17MOL   H31211864   1.258   3.086   2.507 -0.9755 -2.3719  1.6617
   17MOL   H31311865   1.159   3.303   2.475  0.0803  3.5774  0.5315
   17MOL   H31411866   1.332   3.321   2.489 -0.7856  2.5187 -2.0015
   17MOL   H31511867   1.155   3.365   2.718  1.5154 -1.4578  1.1516
   17MOL   H31611868   1.321   3.396   2.716  0.2089  1.0331 -0.6962
   17MOL   H31711869   1.114   3.550   2.537  0.7376  0.3061 -0.6188
   17MOL   H31811870   1.280   3.565   2.528  1.4162 -3.7448  0.9984
   17MOL   H31911871   1.289   3.667   2.758 -1.1424  0.9644  0.5171
   17MOL   H32011872   1.118   3.603   2.786 -0.9946 -0.3435 -0.6633
   17MOL   H32111873   1.220   3.843   2.602 -1.0932  0.9697  0.8194
   17MOL   H32211874   1.054   3.774   2.602 -0.9982 -1.1749  2.2898
   17MOL   H32311875   1.172   3.862   2.849  0.5311  1.0050  0.4625
   17MOL   H32411876   0.841   2.861   2.564 -0.4139 -1.6872  0.2142
   17MOL   H32511877   0.639   2.817   2.681 -1.8629  1.4366 -0.9204
   17MOL   C32611878   1.032   3.980   2.758  0.5827 -0.2797  0.0188
   17MOL   O32711879   0.959   4.000   2.660 -0.2031 -0.3295  0.1292
   17MOL   C32811880   1.008   4.045   2.888  0.1788 -0.5136  0.2311
   17MOL   C32911881   1.110   4.118   2.955 -0.1864 -0.3776 -0.3154
   17MOL   C33011882   1.085   4.194   3.064 -0.1443 -1.0352 -1.0739
   17MOL   C33111883   0.955   4.203   3.121 -0.2899 -0.1209 -0.0561
   17MOL   C33211884   0.923   4.286   3.241 -0.2406 -0.9130 -0.0319
   17MOL   O33311885   0.805   4.316   3.260 -0.3522 -0.5042 -0.0121
   17MOL   N33411886   1.024   4.324   3.319 -0.1537  0.2897 -0.0531
   17MOL   C33511887   1.016   4.414   3.433  0.5816 -0.6482 -0.1098
   17MOL   C33611888   1.143   4.428   3.510 -0.0110 -0.0427  0.5282
   17MOL   C33711889   1.224   4.304   3.537 -0.6664  0.0864 -0.5021
   17MOL   C33811890   1.366   4.337   3.589  1.0939  0.3496 -0.2699
   17MOL   C33911891   1.373   4.401   3.732 -0.0642 -0.1386  0.5979
   17MOL   C34011892   1.511   4.438   3.782 -0.3269 -0.9979 -0.2519
   17MOL   N34111893   1.572   4.548   3.703 -0.4233 -0.4264  0.0687
   17MOL   C34211894   0.853   4.138   3.054  0.1332  0.2566  0.2764
   17MOL   C34311895   0.877   4.055   2.942  0.0509  0.0640 -0.3579
   17MOL   H34411896   1.213   4.113   2.923 -0.1353 -1.0808 -0.0532
   17MOL   H34511897   1.170   4.244   3.108 -1.3213 -0.1968  0.2798
   17MOL   H34611898   1.121   4.308   3.295 -0.1328  0.6724 -0.2228
   17MOL   H34711899   0.986   4.509   3.390 -1.5541 -1.4163 -0.3874
   17MOL   H34811900   0.937   4.379   3.500  0.9361  0.0779  0.6959
   17MOL   H34911901   1.120   4.468   3.609 -2.0942 -0.3680  0.2111
   17MOL   H35011902   1.204   4.504   3.463  0.8630 -2.2022 -1.9165
   17MOL   H35111903   1.174   4.229   3.598 -1.4462 -0.8010 -2.2124
   17MOL   H35211904   1.239   4.247   3.445  0.8887 -0.5272  0.1069
   17MOL   H35311905   1.409   4.403   3.513  0.2412 -1.4308 -2.3553
   17MOL   H35411906   1.422   4.244   3.590 -2.1704 -1.7033 -1.6536
   17MOL   H35511907   1.334   4.334   3.809  0.2870 -2.8660 -1.4923
   17MOL   H35611908   1.306   4.485   3.744 -1.8372 -1.6406  1.3706
   17MOL   H35711909   1.513   4.475   3.885  1.0545  0.5063 -0.7869
   17MOL   H35811910   1.582   4.356   3.771 -0.2144 -0.9251 -0.0788
   17MOL   H35911911   1.511   4.608   3.650  0.7554  1.3268  0.6334
   17MOL   H36011912   0.750   4.151   3.085 -0.8393 -1.1629 -2.1980
   17MOL   H36111913   0.796   4.016   2.882 -1.6516  1.5269  0.8953
   17MOL   C36211914   1.705   4.586   3.694  0.5614  0.0455 -0.2512
   17MOL   O36311915   1.789   4.530   3.767 -0.2923  0.5227 -0.0002
   17MOL   C36411916   1.737   4.706   3.613 -0.0936  0.2687  0.0886
   17MOL   C36511917   1.660   4.756   3.508  0.3715 -0.5511  0.1051
   17MOL   C36611918   1.692   4.874   3.441 -0.3674 -0.8010 -0.5772
   17MOL   C36711919   1.817   4.934   3.462 -1.0478  0.0468 -0.8563
   17MOL   C36811920   1.871   5.041   3.378  0.5393  0.2796  0.9361
   17MOL   O36911921   1.799   5.101   3.296 -0.7147  0.7008  0.3623
   17MOL   N37011922   1.998   5.073   3.394 -0.1391 -0.0470 -0.3844
   17MOL   C37111923   2.060   5.190   3.335 -0.1630 -0.4206  0.7232
   17MOL   C37211924   2.204   5.208   3.380  1.0171 -0.2794  0.1155
   17MOL   C37311925   2.269   5.324   3.293 -0.5507  0.9988 -0.6940
   17MOL   C37411926   2.401   5.354   3.368 -0.2586 -0.4042  0.2181
   17MOL   C37511927   2.461   5.483   3.314 -0.1135  0.1264 -0.6036
   17MOL   C37611928   2.562   5.557   3.411  0.0660  0.1573 -0.0426
   17MOL   N37711929   2.588   5.679   3.339  0.3829 -0.2576 -0.1746
   17MOL   C37811930   1.898   4.885   3.573  0.0782 -0.0959 -0.1579
   17MOL   C37911931   1.853   4.777   3.647 -0.5129 -0.1450  0.5066
   17MOL   H38011932   1.574   4.697   3.482  0.5870 -0.9216  0.2310
   17MOL   H38111933   1.632   4.906   3.357 -1.8028  0.0848  0.7550
   17MOL   H38211934   2.060   5.029   3.460 -0.1694  0.4484 -0.0205
   17MOL   H38311935   2.055   5.175   3.227  0.0202  0.1797  0.6312
   17MOL   H38411936   2.002   5.277   3.364 -0.5143 -0.5221  0.3367
   17MOL   H38511937   2.262   5.117   3.372  0.9611 -0.2417 -0.7834
   17MOL   H38611938   2.191   5.236   3.484  0.9701  0.7924 -0.1671
   17MOL   H38711939   2.309   5.288   3.198 -0.9071 -2.7542  0.4937
   17MOL   H38811940   2.197   5.404   3.284  0.8345  2.5170  1.2765
   17MOL   H38911941   2.466   5.268   3.358  0.4276 -0.0865  1.7671
   17MOL   H39011942   2.374   5.391   3.467  0.2558  1.5730 -0.3485
   17MOL   H39111943   2.384   5.554   3.284  0.4116  0.6948 -0.6127
   17MOL   H39211944   2.514   5.468   3.219  0.4882  1.0791 -0.4249
   17MOL   H39311945   2.523   5.587   3.509  1.6810 -1.6549  1.1817
   17MOL   H39411946   2.653   5.501   3.431  0.1984  0.8706  1.3944
   17MOL   H39511947   2.514   5.726   3.290  0.6729 -1.0768 -1.4311
   17MOL   H39611948   1.998   4.921   3.594  0.1722 -0.1145 -0.5797
   17MOL   H39711949   1.911   4.743   3.732  1.7808  0.8802 -0.6318
   17MOL   C39811950   2.690   5.760   3.364 -0.3607 -0.0846  0.1147
   17MOL   O39911951   2.777   5.724   3.437 -0.7693 -0.5336 -0.2736
   17MOL   C40011952   2.690   5.893   3.294  0.1530 -0.0291  0.0611
   17MOL   C40111953   2.577   5.982   3.289  0.7699 -0.6791 -0.4577
   17MOL   C40211954   2.591   6.119   3.244 -0.0178  0.7506  0.4540
   17MOL   C40311955   2.716   6.160   3.199 -0.5703 -0.0731  0.0995
   17MOL   C40411956   2.734   6.302   3.153  0.5838 -0.2276 -0.5653
   17MOL   O40511957   2.634   6.371   3.157 -0.1019 -0.2345  0.8776
   17MOL   N40611958   2.845   6.347   3.093 -0.0722 -0.2103  0.3763
   17MOL   C40711959   2.864   6.472   3.024  1.0722 -0.7014 -0.0470
   17MOL   C40811960   2.907   6.454   2.875  0.4572  0.1393  0.1798
   17MOL   C40911961   2.823   6.345   2.801 -0.2295  1.2131 -0.2699
   17MOL   C41011962   2.868   6.319   2.658  0.2168  0.5853  0.8387
   17MOL   C41111963   2.790   6.205   2.588 -0.9342 -0.0687 -0.5207
   17MOL   C41211964   2.846   6.182   2.452 -0.4916 -0.4245 -0.3779
   17MOL   N41311965   2.784   6.075   2.376  0.2972 -0.5598 -0.8846
   17MOL   C41411966   2.825   6.069   3.195 -0.1847 -0.4413 -0.2324
   17MOL   C41511967   2.811   5.938   3.240 -0.3969  0.0649 -0.8998
   17MOL   H41611968   2.483   5.957   3.337 -0.0535  0.7348 -1.3080
   17MOL   H41711969   2.508   6.184   3.264 -1.8485 -1.4020  0.1053
   17MOL   H41811970   2.923   6.283   3.089  0.0174 -0.0417 -0.7948
   17MOL   H41911971   2.779   6.541   3.019  1.3680 -0.3569 -0.3021
   17MOL   H42011972   2.941   6.532   3.072 -0.7605  0.8475  1.0676
   17MOL   H42111973   3.005   6.407   2.874  1.1198  1.4951 -0.2608
   17MOL   H42211974   2.896   6.549   2.823 -2.2435  1.7511  3.4098
   17MOL   H42311975   2.836   6.249   2.849  2.0105  1.7383  0.2450
   17MOL   H42411976   2.715   6.360   2.805 -0.7447 -1.7381 -1.6056
   17MOL   H42511977   2.973   6.291   2.666  0.3484 -0.5808 -3.5687
   17MOL   H42611978   2.871   6.414   2.605 -0.3418 -0.1879 -0.6091
   17MOL   H42711979   2.683   6.223   2.592 -1.2315 -1.7015 -0.6514
   17MOL   H42811980   2.819   6.115   2.643  0.1930  0.5807 -0.0220
   17MOL   H42911981   2.842   6.279   2.402 -1.4663  0.1963  0.8904
   17MOL   H43011982   2.953   6.166   2.470 -1.1156 -0.9038  3.1489
   17MOL   H43111983   2.696   6.047   2.416  0.2890  0.7971  0.0772
   17MOL   H43211984   2.925   6.100   3.170  0.6462 -2.0957  0.9234
   17MOL   H43311985   2.894   5.871   3.254 -0.2954  0.3437 -0.1279
   17MOL   C43411986   2.830   6.021   2.265 -0.1056 -0.0026 -0.2705
   17MOL   O43511987   2.920   6.066   2.199 -0.7123  0.2313 -1.1607
   17MOL   C43611988   2.761   5.898   2.209  0.0218 -0.1633  0.1419
   17MOL   C43711989   2.735   5.885   2.071 -0.5415  0.0334 -0.2734
   17MOL   C43811990   2.658   5.781   2.019  0.4874  0.3072  0.6157
   17MOL   C43911991   2.597   5.691   2.106  0.2787 -0.4608 -0.5176
   17MOL   C44011992   2.523   5.572   2.053  0.8237  0.6095 -0.6471
   17MOL   O44111993   2.508   5.468   2.123  0.2524 -0.1257  0.5596
   17MOL   N44211994   2.464   5.582   1.930  0.3484 -0.4585  0.3886
   17MOL   C44311995   2.374   5.481   1.873 -0.4390 -0.6288  0.8315
   17MOL   C44411996   2.233   5.532   1.882  0.2200  0.1194  0.2011
   17MOL   C44511997   2.155   5.488   2.012  0.1006 -0.0833  0.2320
   17MOL   C44611998   2.004   5.507   1.993  0.3169 -0.6827  0.1384
   17MOL   C44711999   1.929   5.432   2.104  0.2305  0.3327 -0.7481
   17MOL   C44812000   1.889   5.521   2.225 -0.0142 -0.0995  0.4393
   17MOL   N44912001   2.004   5.567   2.304 -0.5481  0.8589 -0.0206
   17MOL   C45012002   2.626   5.697   2.244 -0.3468 -0.3126 -0.2666
   17MOL   C45112003   2.709   5.803   2.298  0.4829 -0.1241  0.0588
   17MOL   H45212004   2.767   5.961   2.003 -0.4907  1.6751  1.5342
   17MOL   H45312005   2.645   5.770   1.912 -0.9480  0.0154  0.8096
   17MOL   H45412006   2.481   5.667   1.880 -2.8609  0.5706  0.9671
   17MOL   H45512007   2.398   5.481   1.766  0.9929  2.0103  1.1267
   17MOL   H45612008   2.371   5.376   1.901 -0.4343 -1.1486 -1.0411
   17MOL   H45712009   2.188   5.481   1.797  0.2182  0.9505 -0.3033
   17MOL   H45812010   2.226   5.640   1.869  1.3385  0.0845 -0.7060
   17MOL   H45912011   2.186   5.385   2.026 -2.4063 -0.7920  0.7573
   17MOL   H46012012   2.183   5.552   2.096 -0.0515  0.1052  0.1399
   17MOL   H46112013   1.985   5.461   1.896 -1.9171 -2.0270  1.1360
   17MOL   H46212014   1.974   5.611   1.986  0.3647 -0.6358  0.5923
   17MOL   H46312015   1.993   5.354   2.144 -0.1071  0.4863  0.0979
   17MOL   H46412016   1.840   5.385   2.061  1.4424  0.1010 -3.0632
   17MOL   H46512017   1.846   5.607   2.173  0.9560 -0.7171 -1.4419
   17MOL   H46612018   1.814   5.477   2.291  1.3027 -0.8915  1.4184
   17MOL   H46712019   2.082   5.592   2.246  0.0680  0.7966  0.7648
   17MOL   H46812020   2.590   5.621   2.312 -0.8760 -0.1984 -0.4160
   17MOL   H46912021   2.730   5.814   2.404 -0.4446 -0.9578  0.3346
   17MOL   C47012022   2.005   5.592   2.436  0.3341 -0.0247 -0.2468
   17MOL   O47112023   1.910   5.556   2.508 -0.3425  0.1126 -0.3865
   17MOL   C47212024   2.126   5.666   2.487  0.5057 -0.0615 -0.0336
   17MOL   C47312025   2.233   5.690   2.400  0.0124  0.2447 -0.2800
   17MOL   C47412026   2.333   5.774   2.449 -0.7414  0.1940  0.3751
   17MOL   C47512027   2.332   5.838   2.574  0.2411 -0.7034 -0.2055
   17MOL   C47612028   2.452   5.917   2.628  0.3509  0.3154  0.5040
   17MOL   O47712029   2.539   5.970   2.553  0.0953 -0.0649 -0.0734
   17MOL   N47812030   2.462   5.939   2.760 -0.1151 -0.4422 -0.2207
   17MOL   C47912031   2.565   6.022   2.829 -0.0920 -0.0523  0.0403
   17MOL   C48012032   2.504   6.163   2.843 -0.5347  0.6913  0.2846
   17MOL   C48112033   2.389   6.195   2.935 -0.5317  0.1034 -0.7735
   17MOL   C48212034   2.254   6.126   2.893 -0.1099  0.4712 -0.5040
   17MOL   C48312035   2.217   5.999   2.974  0.0817  0.3893 -0.3139
   17MOL   C48412036   2.218   6.009   3.125 -0.1866 -0.3873 -0.0477
   17MOL   N48512037   2.148   5.907   3.196  0.0232  0.8705  0.1472
   17MOL   C48612038   2.218   5.813   2.657 -0.4839 -0.0821  0.1361
   17MOL   C48712039   2.118   5.727   2.612 -0.3966  0.7597  0.3719
   17MOL   H48812040   2.241   5.645   2.302 -1.1734  0.9353 -0.7048
   17MOL   H48912041   2.423   5.787   2.390 -1.0512 -1.1361 -0.4115
   17MOL   H49012042   2.385   5.897   2.810  1.1195 -3.1609 -0.5292
   17MOL   H49112043   2.590   5.970   2.921  2.2591 -0.5556 -0.8415
   17MOL   H49212044   2.655   6.028   2.768 -0.0094  0.2690  0.1927
   17MOL   H49312045   2.490   6.189   2.738  0.7517  0.5152  0.0569
   17MOL   H49412046   2.587   6.216   2.890  0.0799 -0.0648  0.0679
   17MOL   H49512047   2.413   6.174   3.039 -0.1628  0.0731 -0.8665
   17MOL   H49612048   2.385   6.304   2.937 -2.8150  0.0498 -0.6367
   17MOL   H49712049   2.251   6.103   2.787 -0.5878 -0.8013 -0.2319
   17MOL   H49812050   2.172   6.197   2.904  0.2029  0.5885  1.3941
   17MOL   H49912051   2.292   5.926   2.945 -2.3529 -1.9324 -0.9538
   17MOL   H50012052   2.123   5.962   2.934  0.3897 -0.7648  0.0091
   17MOL   H50112053   2.319   6.015   3.166  0.4598 -0.2851 -1.6132
   17MOL   H50212054   2.166   6.100   3.154  1.1399  0.0102  1.1589
   17MOL   H50312055   2.048   5.911   3.182  0.0502 -0.6363 -0.5728
   17MOL   H50412056   2.215   5.851   2.758 -0.5553 -1.0322  0.4866
   17MOL   H50512057   2.036   5.708   2.680 -0.8228 -0.0719 -0.3576
   17MOL   C50612058   2.205   5.801   3.255 -0.0690  0.8846  0.4811
   17MOL   O50712059   2.325   5.776   3.249 -0.2467 -0.0051  0.1363
   17MOL   C50812060   2.110   5.712   3.332  0.8125  0.6523  1.4276
   17MOL   C50912061   2.147   5.657   3.460 -0.4547 -1.2110 -0.3431
   17MOL   C51012062   2.060   5.569   3.521  0.3118  0.3506  0.2970
   17MOL   C51112063   1.942   5.526   3.461  1.0625  0.0757 -0.8059
   17MOL   C51212064   1.844   5.444   3.545 -0.0355  0.8895 -0.5994
   17MOL   O51312065   1.854   5.432   3.668  0.0119 -0.4186 -0.1727
   17MOL   N51412066   1.739   5.383   3.479 -0.1654 -0.2645  0.0567
   17MOL   C51512067   1.621   5.340   3.547 -0.2211 -0.5845  0.3387
   17MOL   C51612068   1.521   5.263   3.451 -0.0599  0.0586 -0.1107
   17MOL   C51712069   1.417   5.208   3.544  0.3531  0.1209  0.2846
   17MOL   C51812070   1.315   5.108   3.478  0.1259 -0.1269 -0.2016
   17MOL   C51912071   1.376   4.979   3.439  0.7138 -0.0307 -0.7043
   17MOL   C52012072   1.291   4.850   3.423 -0.0660 -0.0694 -0.5048
   17MOL   N52112073   1.212   4.810   3.542  0.8983  0.8369  0.0152
   17MOL   C52212074   1.903   5.574   3.335 -0.3336  0.5910 -0.7126
   17MOL   C52312075   1.991   5.668   3.270  0.2118 -0.0988 -0.1145
   17MOL   H52412076   2.244   5.682   3.501 -0.0643 -2.4272 -0.5037
   17MOL   H52512077   2.083   5.535   3.621 -1.4858 -2.6054 -0.2346
   17MOL   H52612078   1.740   5.382   3.378  2.6061 -0.7662  0.0281
   17MOL   H52712079   1.636   5.272   3.632 -0.4173 -1.6675 -0.4849
   17MOL   H52812080   1.584   5.427   3.602  0.8476 -1.2301  2.1338
   17MOL   H52912081   1.579   5.188   3.396  2.3256  0.8358  1.2380
   17MOL   H53012082   1.463   5.323   3.382  0.1890 -0.3261 -0.6570
   17MOL   H53112083   1.458   5.157   3.631 -0.1065 -0.3196  0.2472
   17MOL   H53212084   1.366   5.296   3.582 -2.7102 -2.8505  3.4866
   17MOL   H53312085   1.263   5.136   3.386 -1.7790  0.7483  1.1107
   17MOL   H53412086   1.239   5.082   3.552  1.7920 -1.5117  1.0711
   17MOL   H53512087   1.456   4.952   3.509  1.1857  1.5339 -0.6113
   17MOL   H53612088   1.433   4.997   3.348  2.1074  0.1929  0.1871
   17MOL   H53712089   1.224   4.845   3.337 -2.0692  0.6833  0.9710
   17MOL   H53812090   1.359   4.766   3.407  0.8519  0.2853  1.3855
   17MOL   H53912091   1.113   4.824   3.533  0.3802 -2.8109 -0.8642
   17MOL   H54012092   1.809   5.552   3.287 -1.4221  0.9362  1.2290
   17MOL   H54112093   1.969   5.698   3.169  3.1512 -3.2501 -1.7637
   17MOL   C54212094   1.270   4.763   3.654  0.1770 -0.7968 -0.6932
   17MOL   O54312095   1.393   4.753   3.658 -0.2253  0.1879 -0.3575
   17MOL   C54412096   1.182   4.723   3.773  0.6981  0.2884  0.0035
   17MOL   C54512097   1.241   4.711   3.898 -0.2779 -0.2292 -0.6877
   17MOL   C54612098   1.170   4.660   4.006  0.9762 -0.2525  0.5020
   17MOL   C54712099   1.031   4.631   3.994  0.2300 -0.5628 -0.1870
   17MOL   C54812100   0.951   4.576   4.106 -0.6375 -0.2524 -0.3943
   17MOL   O54912101   0.824   4.573   4.112  0.0888 -0.0749 -0.1008
   17MOL   N55012102   1.032   4.515   4.199  0.3571 -0.3008  0.4268
   17MOL   C55112103   0.985   4.417   4.296 -0.0095 -0.1736  0.1851
   17MOL   C55212104   0.979   4.274   4.244 -0.1686  0.4120 -0.3542
   17MOL   C55312105   0.916   4.176   4.343 -0.6281  0.4338  0.4414
   17MOL   C55412106   0.919   4.026   4.308 -0.3341 -0.6694 -1.2181
   17MOL   C55512107   0.829   3.990   4.199  0.9795  0.0767 -0.4925
   17MOL   C55612108   0.855   3.844   4.160 -0.4250 -0.0130 -0.4548
   17MOL   N55712109   0.977   3.816   4.089 -0.0403 -0.0471 -0.0162
   17MOL   C55812110   0.967   4.654   3.871  0.5446 -1.0003  0.5870
   17MOL   C55912111   1.046   4.683   3.757  0.2385  0.2287  0.3948
   17MOL   H56012112   1.347   4.732   3.904  0.1399 -1.9534 -1.8379
   17MOL   H56112113   1.215   4.648   4.103 -2.8034 -1.0946  2.2378
   17MOL   H56212114   1.130   4.538   4.191 -0.0613  2.2816  2.1408
   17MOL   H56312115   1.058   4.427   4.376  1.0147  1.5870 -0.9424
   17MOL   H56412116   0.887   4.456   4.325 -0.4864 -1.3923  0.2733
   17MOL   H56512117   1.080   4.245   4.215 -0.8707 -2.4075 -0.1614
   17MOL   H56612118   0.912   4.275   4.159  0.0974 -0.1075 -0.5753
   17MOL   H56712119   0.974   4.180   4.435  1.2511 -1.8317 -0.5837
   17MOL   H56812120   0.815   4.209   4.368 -0.4640  1.6580 -0.4747
   17MOL   H56912121   0.887   3.968   4.394  1.2159  1.0960  0.5997
   17MOL   H57012122   1.022   4.002   4.282  0.6401  0.2597  1.6491
   17MOL   H57112123   0.843   4.054   4.112 -0.9248  0.6381 -0.3973
   17MOL   H57212124   0.726   3.982   4.233  1.0704 -1.4237 -0.5315
   17MOL   H57312125   0.838   3.785   4.250  0.4306 -0.4222 -0.5554
   17MOL   H57412126   0.771   3.814   4.097 -0.4622  0.8835 -0.8392
   17MOL   H57512127   1.035   3.742   4.126 -0.0309  0.0888  0.2408
   17MOL   H57612128   0.862   4.628   3.859  0.5076  0.3000 -2.3320
   17MOL   H57712129   1.004   4.666   3.659 -2.0567  1.5488  1.1150
   17MOL   C57812130   1.015   3.852   3.963  0.6504 -0.2332  0.0388
   17MOL   O57912131   0.953   3.937   3.898  0.1036  0.0314 -0.5174
   17MOL   C58012132   1.132   3.782   3.906 -0.0248 -0.1858 -0.2555
   17MOL   C58112133   1.203   3.850   3.801 -0.5502 -0.0670  0.3591
   17MOL   C58212134   1.318   3.795   3.742  0.1530  0.3125 -0.1338
   17MOL   C58312135   1.369   3.675   3.800  0.2386 -0.2280  0.2454
   17MOL   C58412136   1.499   3.621   3.752 -0.2842  1.0721  0.4384
   17MOL   O58512137   1.585   3.690   3.693  0.0607  0.0649 -0.1052
   17MOL   N58612138   1.517   3.487   3.781 -0.6463 -0.3064  0.5150
   17MOL   C58712139   1.627   3.404   3.729 -0.7426 -0.1072  0.0112
   17MOL   C58812140   1.593   3.257   3.729 -0.3330  0.0840 -0.2170
   17MOL   C58912141   1.605   3.182   3.858 -0.0277  0.1276 -0.5983
   17MOL   C59012142   1.494   3.213   3.969 -0.2505  0.6612  0.0898
   17MOL   C59112143   1.531   3.182   4.113  0.2572 -0.1300 -0.3213
   17MOL   C59212144   1.426   3.224   4.217 -0.2316  0.7420 -0.4122
   17MOL   N59312145   1.419   3.371   4.238 -0.2187  0.2440  0.2568
   17MOL   C59412146   1.300   3.613   3.906  0.1029  0.0538  0.3637
   17MOL   C59512147   1.177   3.661   3.958 -0.6598  0.0031 -0.4246
   17MOL   H59612148   1.166   3.945   3.766  0.1415 -0.1272 -0.5404
   17MOL   H59712149   1.376   3.848   3.669  0.6841  4.3254  3.0155
   17MOL   H59812150   1.444   3.439   3.831 -0.3255 -1.5965 -0.2114
   17MOL   H59912151   1.652   3.431   3.627  0.4242  1.4344  0.6933
   17MOL   H60012152   1.723   3.429   3.773 -1.7214  1.1891  1.4812
   17MOL   H60112153   1.658   3.206   3.658  0.4994 -0.6977  1.0957
   17MOL   H60212154   1.499   3.244   3.675 -0.6650  0.4306  0.2723
   17MOL   H60312155   1.616   3.076   3.834  1.8119  0.1626  0.0226
   17MOL   H60412156   1.703   3.194   3.903 -0.1819  0.7028 -0.4202
   17MOL   H60512157   1.407   3.155   3.938  0.7016  0.3406 -2.1119
   17MOL   H60612158   1.468   3.318   3.963  1.5985  1.0521 -1.7126
   17MOL   H60712159   1.623   3.236   4.131  1.9479 -2.7145 -0.9150
   17MOL   H60812160   1.555   3.077   4.126  2.1702  0.3709  0.2623
   17MOL   H60912161   1.335   3.177   4.178  0.9946 -1.2355 -0.9603
   17MOL   H61012162   1.455   3.175   4.310 -0.0756  2.2005  0.3204
   17MOL   H61112163   1.494   3.406   4.296  1.0709 -0.7130 -0.7795
   17MOL   H61212164   1.337   3.519   3.942 -1.5860 -0.8768 -0.2775
   17MOL   H61312165   1.108   3.605   4.020 -0.6626 -2.2177 -2.3543
   17MOL   C61412166   1.309   3.441   4.218  0.4329 -0.1201  0.6271
   17MOL   O61512167   1.217   3.403   4.150  0.6541  0.2600 -0.1064
   17MOL   C61612168   1.299   3.574   4.290 -0.0862 -0.0827 -0.3516
   17MOL   C61712169   1.173   3.617   4.332 -0.2758  0.3125  0.6515
   17MOL   C61812170   1.161   3.746   4.387 -0.2332 -0.4654  0.2920
   17MOL   C61912171   1.276   3.834   4.404  0.9455 -0.4136  0.3624
   17MOL   C62012172   1.271   3.968   4.474 -0.2205  1.1207 -0.4040
   17MOL   O62112173   1.359   4.051   4.452  0.5030 -0.6786 -0.1030
   17MOL   N62212174   1.168   3.989   4.560 -0.4614 -0.1627  0.9489
   17MOL   C62312175   1.157   4.100   4.652  0.5294 -0.0284 -0.2235
   17MOL   C62412176   1.248   4.092   4.768 -0.2986  0.5705 -0.1831
   17MOL   C62512177   1.221   4.211   4.867 -0.9637  0.1326 -0.1757
   17MOL   C62612178   1.330   4.224   4.972  0.9694  0.1060 -0.3519
   17MOL   C62712179   1.277   4.324   5.077 -0.4918  0.0182 -0.1502
   17MOL   C62812180   1.379   4.354   5.194  0.4574 -0.0978  0.2625
   17MOL   N62912181   1.393   4.235   5.272  0.1370 -0.0027  0.3450
   17MOL   C63012182   1.393   3.787   4.352 -0.1845  0.1418  0.0536
   17MOL   C63112183   1.408   3.655   4.300 -0.0928 -0.4788  0.3498
   17MOL   H63212184   1.080   3.572   4.301 -1.5489  2.8247  0.7032
   17MOL   H63312185   1.068   3.788   4.424  0.6272  1.1563  0.7008
   17MOL   H63412186   1.098   3.920   4.581 -0.8804  0.5019  1.7613
   17MOL   H63512187   1.180   4.189   4.594  1.5300  0.1228  0.4071
   17MOL   H63612188   1.054   4.108   4.687 -0.1555 -1.7212 -1.7521
   17MOL   H63712189   1.351   4.076   4.735 -0.4078 -0.4906 -0.0234
   17MOL   H63812190   1.234   4.000   4.824  1.2554 -0.1323 -0.9189
   17MOL   H63912191   1.218   4.301   4.805  1.3323  0.0631 -0.4341
   17MOL   H64012192   1.124   4.197   4.913 -0.2848 -3.0806  0.3902
   17MOL   H64112193   1.421   4.253   4.919  1.7833 -0.6368  0.6049
   17MOL   H64212194   1.354   4.127   5.014 -1.1937 -0.1493  0.3523
   17MOL   H64312195   1.177   4.301   5.115  0.0349 -1.9811  0.0722
   17MOL   H64412196   1.267   4.421   5.028  0.8631 -0.0028 -0.4882
   17MOL   H64512197   1.470   4.399   5.155 -0.1345  2.1347  1.3743
   17MOL   H64612198   1.327   4.429   5.254  0.4214 -1.9391  2.6317
   17MOL   H64712199   1.375   4.145   5.230 -0.4177 -0.6121  1.8701
   17MOL   H64812200   1.478   3.854   4.363 -0.1146  0.0026  0.3548
   17MOL   H64912201   1.497   3.626   4.247 -1.6347 -1.8917 -1.5704
   17MOL   C65012202   1.433   4.231   5.399  0.2852  0.5343 -0.8037
   17MOL   O65112203   1.455   4.336   5.465 -0.2034 -0.2326  0.9954
   17MOL   C65212204   1.450   4.093   5.457 -0.2239 -0.3733  0.4803
   17MOL   C65312205   1.469   3.982   5.375 -1.2760 -0.0399  0.5704
   17MOL   C65412206   1.490   3.858   5.424  0.3918  0.3611  0.1190
   17MOL   C65512207   1.501   3.836   5.560  0.6140  0.1437 -0.3749
   17MOL   C65612208   1.544   3.696   5.609 -0.9656  0.1239 -0.7347
   17MOL   O65712209   1.507   3.596   5.550 -0.2835  0.6117 -0.7047
   17MOL   N65812210   1.635   3.698   5.711  0.1207 -0.0379  0.9782
   17MOL   C65912211   1.682   3.582   5.773 -0.5130 -0.1708  0.0050
   17MOL   C66012212   1.813   3.535   5.710  0.7322  0.1242 -0.5856
   17MOL   C66112213   1.914   3.648   5.709 -0.1852 -0.5087 -0.2650
   17MOL   C66212214   2.041   3.607   5.637 -0.0332 -0.6871 -0.1278
   17MOL   C66312215   2.154   3.710   5.649  0.3521 -0.6114 -0.1691
   17MOL   C66412216   2.139   3.845   5.589  0.4725 -0.7786  0.0601
   17MOL   N66512217   2.093   3.840   5.446 -0.4317 -0.7184 -0.1704
   17MOL   C66612218   1.478   3.946   5.648 -0.1244  0.2881  0.1900
   17MOL   C66712219   1.461   4.076   5.603 -0.7537  0.2952 -1.2231
   17MOL   H66812220   1.475   3.982   5.268 -2.4356  2.3130  0.4774
   17MOL   H66912221   1.515   3.777   5.356  2.6937 -0.7426  2.2159
   17MOL   H67012222   1.660   3.783   5.759  2.4818  0.6260 -1.3329
   17MOL   H67112223   1.686   3.622   5.875 -2.3460  2.6813 -0.9744
   17MOL   H67212224   1.616   3.496   5.768 -0.5889 -0.0404 -1.2403
   17MOL   H67312225   1.795   3.499   5.609 -1.1056  2.8914 -1.3147
   17MOL   H67412226   1.856   3.442   5.747  0.6410  0.0343 -0.7027
   17MOL   H67512227   1.876   3.722   5.639 -0.6564 -1.7974 -1.3868
   17MOL   H67612228   1.945   3.695   5.803 -0.6911  2.3305 -1.4465
   17MOL   H67712229   2.022   3.586   5.531  3.7574 -2.5174 -0.5264
   17MOL   H67812230   2.065   3.513   5.687 -1.2420 -0.4706  0.8741
   17MOL   H67912231   2.243   3.659   5.615  0.2460 -2.0931  1.6819
   17MOL   H68012232   2.185   3.727   5.753 -0.9618 -1.1762  0.3257
   17MOL   H68112233   2.073   3.905   5.652  2.3261  0.6872  0.6559
   17MOL   H68212234   2.238   3.886   5.608  0.5498 -1.7211  1.7922
   17MOL   H68312235   2.043   3.755   5.424  0.2230 -1.6806  1.8821
   17MOL   H68412236   1.501   3.938   5.753 -2.4729  1.8728  0.8625
   17MOL   H68512237   1.453   4.161   5.670  1.7192 -0.5711  0.2542
   17MOL   C68612238   2.102   3.951   5.370 -1.1059  0.4172  0.2782
   17MOL   O68712239   2.172   4.047   5.409 -0.3100 -0.3553 -0.2089
   17MOL   C68812240   2.039   3.952   5.233 -0.3029  0.5582  0.7419
   17MOL   C68912241   1.914   3.897   5.215  0.7824  0.5554  0.4290
   17MOL   C69012242   1.839   3.927   5.101 -0.2847 -0.2020 -0.0164
   17MOL   C69112243   1.892   4.016   5.007  0.0655 -0.1091  0.9755
   17MOL   C69212244   1.805   4.069   4.895 -0.2547 -0.6857  0.5064
   17MOL   O69312245   1.695   4.119   4.919  0.0064 -0.6329 -0.0212
   17MOL   N69412246   1.854   4.067   4.769 -0.7841 -0.2828  0.3750
   17MOL   C69512247   1.807   4.142   4.656 -0.3150 -0.2231 -0.6554
   17MOL   C69612248   1.892   4.108   4.539 -0.7149  0.0455  0.4623
   17MOL   C69712249   1.838   4.142   4.397 -0.2378  1.0743 -0.2046
   17MOL   C69812250   1.823   4.293   4.375 -0.1131 -0.5909  0.4441
   17MOL   C69912251   1.759   4.320   4.234 -0.6365 -0.0195  0.1314
   17MOL   C70012252   1.732   4.466   4.218  0.2882  0.2816  0.8564
   17MOL   N70112253   1.673   4.495   4.095 -0.1791 -0.3852  0.0079
   17MOL   C70212254   2.023   4.058   5.009 -0.0352  0.0673 -0.2881
   17MOL   C70312255   2.092   4.027   5.129 -0.1039 -0.5343 -0.1969
   17MOL   H70412256   1.863   3.836   5.288  2.4247 -1.6421 -0.2211
   17MOL   H70512257   1.740   3.886   5.085 -1.1590  1.0989  1.8866
   17MOL   H70612258   1.941   4.019   4.753 -0.4231  0.6287 -0.4946
   17MOL   H70712259   1.705   4.111   4.633 -1.7429  2.6311  1.5747
   17MOL   H70812260   1.800   4.250   4.668 -1.4022 -0.1016 -2.2138
   17MOL   H70912261   1.923   4.003   4.537 -0.3247  0.1751 -0.3182
   17MOL   H71012262   1.990   4.155   4.551  0.2741 -1.4664 -1.4877
   17MOL   H71112263   1.901   4.098   4.320 -1.1524  1.7473 -1.3554
   17MOL   H71212264   1.733   4.111   4.394  0.1068 -0.1180  0.1077
   17MOL   H71312265   1.911   4.356   4.383 -1.9860  2.8073 -3.9469
   17MOL   H71412266   1.766   4.336   4.458 -3.3825  0.9343 -2.4627
   17MOL   H71512267   1.668   4.261   4.224 -0.4142 -0.3396 -0.0034
   17MOL   H71612268   1.831   4.273   4.168 -2.0432 -0.4128 -1.1533
   17MOL   H71712269   1.661   4.487   4.298  0.6404  2.2965  0.6569
   17MOL   H71812270   1.823   4.522   4.238  0.7228 -0.8598  2.1711
   17MOL   H71912271   1.615   4.577   4.097 -1.8109 -1.5114  0.1645
   17MOL   H72012272   2.056   4.126   4.932 -0.3817 -2.0515 -2.3399
   17MOL   H72112273   2.185   4.076   5.152 -0.2497 -0.0023 -0.7339
   17MOL   H72212274   1.737   4.493   4.016  0.6508  2.4586  0.5411
   18MOL     C112275   5.966   1.536   3.843 -0.2906  0.6822  0.0329
   18MOL     O212276   5.924   1.484   3.945 -0.0209  0.3917 -0.1890
   18MOL     C312277   5.942   1.678   3.810 -0.0854 -0.4394 -0.5194
   18MOL     C412278   5.852   1.760   3.879 -0.1730 -0.6819 -0.0613
   18MOL     C512279   5.847   1.899   3.846 -0.2097 -0.0832  0.3742
   18MOL     C612280   5.913   1.954   3.735 -1.1576 -0.0161 -0.3386
   18MOL     C712281   5.898   2.094   3.690  0.5009  0.2909  0.1625
   18MOL     O812282   5.862   2.185   3.767  0.2424 -0.5359 -1.3187
   18MOL     N912283   5.919   2.118   3.558 -0.3498 -0.1713 -0.6842
   18MOL    C1012284   5.923   2.246   3.496  0.2203 -0.1409  0.0745
   18MOL    C1112285   6.040   2.338   3.544 -0.4038 -0.0739  1.3920
   18MOL    C1212286   6.039   2.481   3.489  0.0654  0.0513 -0.5932
   18MOL    C1312287   6.131   2.586   3.553 -0.3048 -0.2174  0.1754
   18MOL    C1412288   6.104   2.630   3.701  0.0312 -0.0858 -0.4572
   18MOL    C1512289   6.193   2.750   3.725  0.1546  0.3648  0.7427
   18MOL    N1612290   6.167   2.800   3.861  0.2128  0.1633 -0.4556
   18MOL    C1712291   6.003   1.869   3.666  0.2606 -0.3952 -0.3732
   18MOL    C1812292   6.023   1.728   3.703  0.0563  0.0830 -0.0810
   18MOL    H1912293   5.808   1.713   3.965  1.7659 -3.0693 -0.3186
   18MOL    H2012294   5.786   1.962   3.909 -1.0339  0.3283 -0.8041
   18MOL    H2112295   5.953   2.043   3.500  2.0021  0.5292 -0.2658
   18MOL    H2212296   5.938   2.243   3.388 -0.5255  4.1857 -0.2295
   18MOL    H2312297   5.825   2.292   3.504  0.3188  0.1146 -0.1882
   18MOL    H2412298   6.138   2.290   3.547  0.6221  2.0233  2.1639
   18MOL    H2512299   6.017   2.354   3.649 -0.3574 -2.3184  1.7587
   18MOL    H2612300   6.073   2.471   3.386  0.4351  2.1828 -0.6912
   18MOL    H2712301   5.937   2.519   3.490 -1.0862 -2.8965  1.3704
   18MOL    H2812302   6.125   2.671   3.485  1.3255  0.3741  0.7321
   18MOL    H2912303   6.230   2.541   3.541 -0.1144  0.1682  0.2919
   18MOL    H3012304   6.131   2.549   3.770  1.9101 -1.2704 -2.5006
   18MOL    H3112305   6.002   2.663   3.716  1.0191  3.1583 -0.4534
   18MOL    H3212306   6.295   2.717   3.708  0.2646  0.6222  0.9063
   18MOL    H3312307   6.175   2.815   3.639  0.9534  2.9008  2.4328
   18MOL    H3412308   6.154   2.730   3.932 -1.9552  0.6643 -0.3464
   18MOL    H3512309   6.049   1.914   3.579 -1.0056 -0.2965 -1.0071
   18MOL    H3612310   6.098   1.667   3.655  0.0519 -0.6064  0.7788
   18MOL    H3712311   6.024   1.484   3.767  0.5472  0.9544  0.4774
   18MOL    C3812312   6.183   2.927   3.890  0.5148 -0.0748  0.0620
   18MOL    O3912313   6.197   3.014   3.804 -0.0727  0.0320 -1.1848
   18MOL    C4012314   6.165   2.958   4.036 -0.2409 -0.1967 -0.1123
   18MOL    C4112315   6.100   3.071   4.082  0.5604  0.5747 -0.4328
   18MOL    C4212316   6.077   3.085   4.219  1.2366  0.8120  0.2229
   18MOL    C4312317   6.122   2.987   4.312 -0.3427  0.3623 -0.5062
   18MOL    C4412318   6.087   3.013   4.460  0.0499  0.0675 -0.1922
   18MOL    O4512319   6.053   3.130   4.484 -0.6237 -0.1332 -0.7829
   18MOL    N4612320   6.092   2.917   4.550  0.0050 -0.2426  0.6886
   18MOL    C4712321   6.040   2.923   4.689  0.0754  0.0813  0.0760
   18MOL    C4812322   6.136   2.990   4.787 -0.0968  0.1058  0.3573
   18MOL    C4912323   6.240   2.886   4.835 -0.5149  0.5078 -0.4143
   18MOL    C5012324   6.369   2.950   4.896  0.1533  0.0806  0.8663
   18MOL    C5112325   6.464   2.999   4.782 -0.2679 -0.4294  0.3898
   18MOL    C5212326   6.561   3.104   4.826  0.1919  0.2085 -0.3631
   18MOL    N5312327   6.503   3.224   4.882 -0.3847 -0.2060 -0.1008
   18MOL    C5412328   6.200   2.880   4.265  0.5718 -1.4428  0.8511
   18MOL    C5512329   6.222   2.866   4.127 -0.2620 -0.5601  0.6942
   18MOL    H5612330   6.056   3.143   4.015 -0.4966 -0.2096 -0.5997
   18MOL    H5712331   6.025   3.174   4.251  0.5744  0.6459 -0.3864
   18MOL    H5812332   6.105   2.824   4.512  4.3340  0.2913  0.5189
   18MOL    H5912333   5.948   2.980   4.675  0.7145  1.3231  0.8081
   18MOL    H6012334   5.999   2.829   4.726  0.2333 -0.2848 -0.6715
   18MOL    H6112335   6.076   3.038   4.864 -2.9464 -0.0588 -1.6785
   18MOL    H6212336   6.184   3.072   4.733 -0.1828  0.1228  0.3068
   18MOL    H6312337   6.194   2.819   4.906  1.2889  1.1724  1.4440
   18MOL    H6412338   6.283   2.821   4.759  0.1878 -0.1943  0.5731
   18MOL    H6512339   6.418   2.871   4.953  0.2285  0.8120  1.8246
   18MOL    H6612340   6.333   3.021   4.970 -4.2014 -1.2242  0.1109
   18MOL    H6712341   6.404   3.045   4.703  0.0647 -1.3469 -0.4097
   18MOL    H6812342   6.517   2.916   4.736  0.8213 -0.2715  1.3509
   18MOL    H6912343   6.635   3.060   4.893 -1.5629 -0.8871  0.9156
   18MOL    H7012344   6.619   3.130   4.738 -1.9302  0.7371 -1.6145
   18MOL    H7112345   6.500   3.228   4.983 -3.2745 -0.2901 -0.1427
   18MOL    H7212346   6.256   2.816   4.333  2.1847  0.7416  1.6371
   18MOL    H7312347   6.274   2.777   4.093 -0.5170 -0.8163  0.9752
   18MOL    C7412348   6.450   3.330   4.809 -0.6516  0.2701  0.4317
   18MOL    O7512349   6.472   3.339   4.690  0.0732 -0.0285 -0.5033
   18MOL    C7612350   6.360   3.424   4.880 -0.1587 -0.7362  0.5622
   18MOL    C7712351   6.395   3.484   5.002 -0.1723  0.1020  0.3539
   18MOL    C7812352   6.312   3.581   5.061  0.2737  0.4866 -0.3343
   18MOL    C7912353   6.186   3.618   5.005  0.1109  0.5044 -0.3134
   18MOL    C8012354   6.093   3.717   5.075 -0.0864  0.0860  0.7718
   18MOL    O8112355   6.084   3.717   5.196 -0.3565 -0.4344  0.3580
   18MOL    N8212356   6.038   3.813   4.998 -0.1690 -1.1064 -0.1608
   18MOL    C8312357   6.001   3.945   5.042  0.3066 -0.9044  0.3448
   18MOL    C8412358   6.131   4.030   5.051 -0.6445 -0.3885  0.2911
   18MOL    C8512359   6.126   4.166   5.114  0.1660 -0.2256  0.7067
   18MOL    C8612360   6.088   4.291   5.023 -0.0119  0.6991  0.1774
   18MOL    C8712361   6.074   4.422   5.105 -0.1625 -0.7293  0.1095
   18MOL    C8812362   6.017   4.541   5.017  0.0696  0.1502 -0.2014
   18MOL    N8912363   6.040   4.665   5.085 -0.2711 -0.8073 -0.1489
   18MOL    C9012364   6.150   3.556   4.884 -0.2356  0.3476  0.7221
   18MOL    C9112365   6.239   3.467   4.821  0.2165 -0.0244 -0.1052
   18MOL    H9212366   6.488   3.457   5.050 -0.7234 -0.4146  1.1226
   18MOL    H9312367   6.342   3.601   5.163  3.4424 -1.4926 -0.8130
   18MOL    H9412368   6.045   3.798   4.898 -2.5488  0.3941 -0.5875
   18MOL    H9512369   5.919   3.973   4.976  1.0817  1.2529  0.2691
   18MOL    H9612370   5.958   3.951   5.142 -1.9183  0.9242 -0.7052
   18MOL    H9712371   6.179   4.034   4.954  1.4049 -3.7751  1.0908
   18MOL    H9812372   6.202   3.971   5.109 -0.8307 -0.6208  0.2816
   18MOL    H9912373   6.057   4.162   5.199  1.1167  1.8505  1.6087
   18MOL   H10012374   6.224   4.193   5.152  0.8192 -1.3319 -0.1554
   18MOL   H10112375   6.003   4.261   4.962 -0.1842  0.4995  0.5150
   18MOL   H10212376   6.171   4.309   4.955 -2.0725  0.7742 -2.4060
   18MOL   H10312377   6.173   4.444   5.143  0.6126 -3.0000 -0.5030
   18MOL   H10412378   6.015   4.397   5.193  1.7815  1.6103  2.1371
   18MOL   H10512379   6.064   4.549   4.919  3.0372 -1.0407  1.0555
   18MOL   H10612380   5.910   4.523   5.008  0.4881 -1.3633 -2.4332
   18MOL   H10712381   6.136   4.697   5.087 -1.2049  2.1734 -0.4316
   18MOL   H10812382   6.056   3.581   4.837 -0.5461 -2.0053  0.0284
   18MOL   H10912383   6.207   3.416   4.731 -0.9199  0.8689 -0.2067
   18MOL   C11012384   5.942   4.752   5.107  0.1307 -0.4418 -0.3123
   18MOL   O11112385   5.822   4.727   5.080  0.3844  0.0165  0.1868
   18MOL   C11212386   5.976   4.884   5.180  0.2958 -0.0227 -0.8209
   18MOL   C11312387   5.880   4.982   5.185  0.1218  0.1868 -0.4956
   18MOL   C11412388   5.894   5.106   5.257  0.0997 -0.4466  0.2969
   18MOL   C11512389   6.014   5.124   5.322  0.9281 -0.2538  0.7571
   18MOL   C11612390   6.040   5.248   5.394  0.0043 -0.1013  0.0425
   18MOL   O11712391   6.159   5.288   5.396  0.1022  0.0362 -0.8891
   18MOL   N11812392   5.936   5.308   5.456 -1.0235 -0.0964  0.1626
   18MOL   C11912393   5.961   5.412   5.556 -0.3881  0.2390 -0.1421
   18MOL   C12012394   5.829   5.477   5.584 -0.5371 -0.6259 -0.0498
   18MOL   C12112395   5.837   5.604   5.668 -0.0562 -0.1118  0.0159
   18MOL   C12212396   5.695   5.651   5.707 -0.6141  0.6112 -0.4278
   18MOL   C12312397   5.684   5.803   5.728 -0.0937 -0.3168  0.1716
   18MOL   C12412398   5.719   5.857   5.870 -0.2172  0.3418 -0.0718
   18MOL   N12512399   5.728   6.002   5.876  0.2579  0.0154 -0.6260
   18MOL   C12612400   6.121   5.025   5.315  0.4916 -0.2735  0.0931
   18MOL   C12712401   6.098   4.906   5.239  0.4555 -0.2843 -0.5187
   18MOL   H12812402   5.788   4.955   5.136 -0.4577 -1.4903  1.4314
   18MOL   H12912403   5.813   5.177   5.253  0.0509 -0.5444 -0.4896
   18MOL   H13012404   5.846   5.263   5.449 -0.1319 -2.1464  1.5045
   18MOL   H13112405   5.997   5.366   5.648 -2.1985  0.3815  0.6569
   18MOL   H13212406   6.028   5.493   5.528  1.1827 -1.0254 -0.1268
   18MOL   H13312407   5.748   5.413   5.618 -1.8587  1.7723  1.5154
   18MOL   H13412408   5.788   5.514   5.490  0.3345  0.1432 -0.1378
   18MOL   H13512409   5.894   5.594   5.761 -2.1167 -0.2270  1.2959
   18MOL   H13612410   5.886   5.677   5.604  4.2145 -0.5484  2.5810
   18MOL   H13712411   5.668   5.594   5.796 -0.4362  0.0586 -0.7219
   18MOL   H13812412   5.627   5.623   5.627 -1.5600  0.7780  0.3140
   18MOL   H13912413   5.586   5.835   5.694  0.8913  0.2263 -2.2697
   18MOL   H14012414   5.747   5.838   5.646 -0.2576 -0.5880 -0.0712
   18MOL   H14112415   5.641   5.822   5.937  0.5326  0.0701  0.6806
   18MOL   H14212416   5.813   5.820   5.911 -0.6055  0.1537  0.6498
   18MOL   H14312417   5.642   6.055   5.887  0.7783  0.6383  0.5659
   18MOL   H14412418   6.212   5.042   5.369 -1.2101  0.6275  2.7627
   18MOL   H14512419   6.177   4.834   5.245  1.4439  0.9387  2.7417
   18MOL   C14612420   5.836   6.084   5.857  0.1253  0.5466 -0.0577
   18MOL   O14712421   5.949   6.045   5.820  0.4715  0.0629 -0.0067
   18MOL   C14812422   5.810   6.233   5.879 -0.0860 -0.3397  0.1579
   18MOL   C14912423   5.746   6.276   5.994 -0.1445  0.0551 -0.6394
   18MOL   C15012424   5.721   6.412   6.019  0.8160 -0.3870 -0.3223
   18MOL   C15112425   5.753   6.510   5.925  0.2613  0.3283 -0.7037
   18MOL   C15212426   5.731   6.655   5.946  0.2884 -0.0593  0.4569
   18MOL   O15312427   5.756   6.736   5.864  0.6350  0.5968 -0.3642
   18MOL   N15412428   5.688   6.692   6.065 -0.4339  0.0945  0.1268
   18MOL   C15512429   5.648   6.821   6.112  0.3941  0.4696 -0.1327
   18MOL   C15612430   5.511   6.869   6.055  0.0633 -0.3841  0.0441
   18MOL   C15712431   5.388   6.772   6.057 -0.2542  0.1610 -0.5368
   18MOL   C15812432   5.377   6.692   5.923  0.5105 -0.5379 -0.8347
   18MOL   C15912433   5.349   6.546   5.952  1.0150  1.0354  0.0743
   18MOL   C16012434   5.347   6.466   5.823 -0.7743  0.6294 -0.5481
   18MOL   N16112435   5.357   6.320   5.853 -0.6163  0.2842  0.4203
   18MOL   C16212436   5.811   6.462   5.801  0.5279  0.2959 -0.4520
   18MOL   C16312437   5.850   6.325   5.778  0.0942  0.4944 -0.1822
   18MOL   H16412438   5.725   6.207   6.074 -4.9092  0.6888 -1.1835
   18MOL   H16512439   5.677   6.444   6.112 -0.6302  0.8577 -1.3995
   18MOL   H16612440   5.666   6.616   6.127  1.2352 -1.2503 -0.8655
   18MOL   H16712441   5.638   6.812   6.220 -2.4056  1.0202 -0.2934
   18MOL   H16812442   5.717   6.901   6.085 -0.2541  1.9191  2.3768
   18MOL   H16912443   5.510   6.927   5.963 -0.2233  0.7473  0.7565
   18MOL   H17012444   5.478   6.952   6.118 -0.0809 -0.4348  0.0340
   18MOL   H17112445   5.380   6.703   6.141  1.5733  0.8241  0.2041
   18MOL   H17212446   5.302   6.837   6.067 -1.6989 -1.7395 -0.2535
   18MOL   H17312447   5.471   6.701   5.869  1.7591  2.8054  1.6857
   18MOL   H17412448   5.299   6.736   5.861 -0.2805  0.6784  0.9698
   18MOL   H17512449   5.250   6.542   5.998  1.0673 -0.7757  0.0649
   18MOL   H17612450   5.423   6.503   6.019 -0.8522 -0.7227  1.0614
   18MOL   H17712451   5.246   6.481   5.786 -1.2536  0.2443  0.5655
   18MOL   H17812452   5.424   6.508   5.759  0.8441 -0.2148  0.7873
   18MOL   H17912453   5.365   6.280   5.945  1.0662  0.5516  0.3928
   18MOL   H18012454   5.823   6.531   5.719  0.1569  1.2348  0.2804
   18MOL   H18112455   5.903   6.304   5.686 -0.5740 -0.9880 -0.2390
   18MOL   C18212456   5.349   6.230   5.750 -0.0643 -0.2955 -0.7503
   18MOL   O18312457   5.352   6.272   5.636  0.2142  0.3291  0.2927
   18MOL   C18412458   5.337   6.086   5.786 -0.4885  0.5196 -0.1801
   18MOL   C18512459   5.290   5.989   5.693 -0.8175  0.2003  0.1225
   18MOL   C18612460   5.286   5.852   5.714 -0.0884 -0.5387 -0.4317
   18MOL   C18712461   5.337   5.806   5.838  0.4354  0.4994 -0.4526
   18MOL   C18812462   5.340   5.660   5.868 -0.4626  0.0836  0.2484
   18MOL   O18912463   5.411   5.616   5.964  0.3083 -0.1290  0.1308
   18MOL   N19012464   5.260   5.582   5.796 -0.2559 -0.0960  0.1783
   18MOL   C19112465   5.214   5.453   5.848  0.1825  0.2205 -0.8242
   18MOL   C19212466   5.066   5.426   5.805  0.0844 -0.6734  0.2002
   18MOL   C19312467   4.971   5.540   5.845 -0.0859  0.0518 -0.2003
   18MOL   C19412468   4.823   5.501   5.823 -0.8891 -0.6753 -0.1989
   18MOL   C19512469   4.728   5.604   5.872 -0.0088  0.3143  0.5159
   18MOL   C19612470   4.597   5.531   5.920  0.4819 -0.7354  0.0539
   18MOL   N19712471   4.612   5.464   6.053  0.1675 -0.1971 -0.1021
   18MOL   C19812472   5.382   5.898   5.933 -0.5077  0.7732 -0.6745
   18MOL   C19912473   5.388   6.037   5.911  1.0849 -0.0732  0.3990
   18MOL   H20012474   5.252   6.032   5.601 -2.0531 -2.1065 -0.5052
   18MOL   H20112475   5.250   5.788   5.634 -1.9462  0.9203 -0.7887
   18MOL   H20212476   5.214   5.613   5.712  0.3685  2.4539  0.7357
   18MOL   H20312477   5.272   5.368   5.813 -3.3490 -2.2763 -0.8378
   18MOL   H20412478   5.214   5.457   5.956 -0.0687  2.9165 -0.8899
   18MOL   H20512479   5.025   5.337   5.854 -1.5405  1.8205  3.5178
   18MOL   H20612480   5.058   5.406   5.698  1.7947 -1.1488  0.1434
   18MOL   H20712481   4.974   5.557   5.952  1.0398  0.6276 -0.3133
   18MOL   H20812482   4.998   5.633   5.794  0.6848  0.4511  0.9099
   18MOL   H20912483   4.813   5.407   5.878 -0.7218 -0.1921  0.6603
   18MOL   H21012484   4.809   5.464   5.721  1.3076 -3.1468  0.3423
   18MOL   H21112485   4.706   5.670   5.788  1.1467  0.6316  0.4565
   18MOL   H21212486   4.760   5.674   5.949 -0.9133  0.5065  0.7261
   18MOL   H21312487   4.515   5.603   5.929 -0.3921 -1.9769  2.7086
   18MOL   H21412488   4.566   5.459   5.845  0.2163 -0.4104 -0.1475
   18MOL   H21512489   4.646   5.368   6.051  2.4274  0.5376  1.7624
   18MOL   H21612490   5.427   5.864   6.025  1.0106 -0.8217 -1.9830
   18MOL   H21712491   5.435   6.099   5.986  1.3315 -3.0493  2.7868
   18MOL   C21812492   4.595   5.514   6.181  0.2975  0.2618  0.7819
   18MOL   O21912493   4.542   5.620   6.200 -0.2030 -0.3561 -0.6284
   18MOL   C22012494   4.652   5.432   6.290 -0.0623  0.7100 -0.3628
   18MOL   C22112495   4.756   5.339   6.262 -0.3889 -0.4341  0.4311
   18MOL   C22212496   4.824   5.278   6.373 -0.0543 -0.2904  0.1750
   18MOL   C22312497   4.789   5.296   6.508  0.1236  0.3149 -0.4651
   18MOL   C22412498   4.860   5.234   6.623 -0.4081  0.6399 -0.1167
   18MOL   O22512499   4.905   5.118   6.621 -0.8478 -0.3624  0.5275
   18MOL   N22612500   4.877   5.313   6.732  0.4384 -0.2097 -0.5997
   18MOL   C22712501   4.975   5.280   6.839 -0.7382  0.3195  0.4857
   18MOL   C22812502   4.916   5.222   6.964  1.0094  0.5552 -0.1743
   18MOL   C22912503   4.901   5.068   6.947 -0.3765  0.2114  0.9959
   18MOL   C23012504   4.795   5.008   7.048 -0.5436 -0.4132  0.5545
   18MOL   C23112505   4.845   5.008   7.199  0.2758 -0.1308 -0.4937
   18MOL   C23212506   4.740   4.956   7.295  0.6069  0.3539  0.3806
   18MOL   N23312507   4.696   4.825   7.254  0.1261 -0.0489 -0.0681
   18MOL   C23412508   4.686   5.386   6.534  0.1782  0.2083  0.4115
   18MOL   C23512509   4.623   5.457   6.429  0.6570  0.5193  0.0840
   18MOL   H23612510   4.789   5.327   6.160  1.0648  0.8372  0.7286
   18MOL   H23712511   4.917   5.225   6.361  0.0585 -0.0916  0.1688
   18MOL   H23812512   4.838   5.406   6.730 -1.3990 -0.9537  0.2667
   18MOL   H23912513   5.062   5.220   6.813 -0.1090  1.1552  0.6038
   18MOL   H24012514   5.021   5.377   6.862 -1.8491  1.4062 -1.7087
   18MOL   H24112515   4.813   5.255   6.979  1.3404  1.1971  0.6785
   18MOL   H24212516   4.978   5.252   7.048  0.8905 -1.3086  0.6244
   18MOL   H24312517   4.860   5.038   6.851  1.7969  2.1958 -0.6051
   18MOL   H24412518   4.995   5.014   6.962 -0.4506  0.0881  1.0158
   18MOL   H24512519   4.771   4.906   7.015  0.4727 -0.7217  0.7429
   18MOL   H24612520   4.705   5.068   7.038  0.8516  1.2433 -3.5606
   18MOL   H24712521   4.858   5.112   7.226 -0.5984 -0.6045  1.8590
   18MOL   H24812522   4.930   4.940   7.208  0.4688  0.1142 -0.4856
   18MOL   H24912523   4.787   4.955   7.393  0.8664 -0.8056  0.2504
   18MOL   H25012524   4.662   5.032   7.287  0.0178 -0.4972 -2.9570
   18MOL   H25112525   4.609   4.819   7.202  0.2490 -3.4442  0.0384
   18MOL   H25212526   4.656   5.407   6.636 -0.9753 -1.5222  0.4613
   18MOL   H25312527   4.546   5.529   6.453  0.6992  0.7541 -0.4865
   18MOL   C25412528   4.752   4.710   7.301  0.4901 -0.0057 -0.8494
   18MOL   O25512529   4.855   4.706   7.370 -0.4297  0.6584 -0.4158
   18MOL   C25612530   4.679   4.585   7.254 -0.5400  0.6436 -0.3067
   18MOL   C25712531   4.735   4.462   7.283  0.3126  0.3134 -0.0543
   18MOL   C25812532   4.693   4.342   7.224  0.2807  0.0160 -0.3412
   18MOL   C25912533   4.587   4.346   7.131  0.2117 -0.0621 -0.1044
   18MOL   C26012534   4.544   4.224   7.065 -0.2131  0.2140  0.7016
   18MOL   O26112535   4.625   4.160   6.995  0.1880  0.8629 -0.0720
   18MOL   N26212536   4.426   4.173   7.094  0.5549  0.2783 -0.3433
   18MOL   C26312537   4.374   4.039   7.060  0.5016 -0.6534 -0.3890
   18MOL   C26412538   4.222   4.024   7.095 -0.4729  0.2330  0.1191
   18MOL   C26512539   4.148   3.901   7.026  0.3976  0.3363  0.0733
   18MOL   C26612540   4.002   3.926   7.024 -0.6727  0.0877 -0.4460
   18MOL   C26712541   3.939   3.921   7.165 -0.8177  0.1646 -0.4971
   18MOL   C26812542   3.793   3.957   7.153 -0.5579  1.0840 -1.0338
   18MOL   N26912543   3.762   4.083   7.085  0.2712 -0.1393 -0.1440
   18MOL   C27012544   4.514   4.466   7.113  0.5520 -0.1598  0.6064
   18MOL   C27112545   4.561   4.584   7.173 -0.0806  0.0050  0.2025
   18MOL   H27212546   4.809   4.464   7.362 -0.0284  2.4442  0.2484
   18MOL   H27312547   4.755   4.256   7.248  0.7678 -0.2131 -2.3066
   18MOL   H27412548   4.370   4.223   7.162 -0.4577  0.6669 -1.4377
   18MOL   H27512549   4.387   4.021   6.953 -2.5888 -2.7443 -0.4830
   18MOL   H27612550   4.430   3.961   7.111  1.0185  0.2318  0.4131
   18MOL   H27712551   4.163   4.115   7.078 -1.1506 -0.2479 -0.1317
   18MOL   H27812552   4.221   4.014   7.203  1.0600  1.9216  0.3154
   18MOL   H27912553   4.185   3.891   6.924 -0.4702  2.0591 -0.4447
   18MOL   H28012554   4.177   3.804   7.066  1.1156  0.2561 -0.6288
   18MOL   H28112555   3.954   3.868   6.945 -0.9691 -2.6982  1.7329
   18MOL   H28212556   3.989   4.027   6.985  1.4931  0.7927  0.6210
   18MOL   H28312557   3.994   3.980   7.239  0.3463 -1.6083  0.0951
   18MOL   H28412558   3.936   3.819   7.203 -3.3027  0.8205  1.1709
   18MOL   H28512559   3.742   3.874   7.104  1.6971 -1.5522  0.8978
   18MOL   H28612560   3.754   3.955   7.254 -1.7186 -1.8146 -1.4800
   18MOL   H28712561   3.767   4.077   6.984  0.0362  1.1470 -0.2389
   18MOL   H28812562   4.430   4.467   7.045 -0.6803 -1.9219  2.0428
   18MOL   H28912563   4.514   4.680   7.160  0.4001  0.3603  1.0598
   18MOL   C29012564   3.701   4.191   7.124 -0.3337 -0.2550  0.6407
   18MOL   O29112565   3.647   4.210   7.229 -0.7676 -0.8899  0.1080
   18MOL   C29212566   3.700   4.303   7.026 -0.6892 -0.1225 -0.1552
   18MOL   C29312567   3.789   4.314   6.919  0.3831 -0.8269  0.7297
   18MOL   C29412568   3.791   4.421   6.830  0.9619  0.3183 -0.2724
   18MOL   C29512569   3.682   4.509   6.835  0.0898 -0.6218  0.1498
   18MOL   C29612570   3.675   4.608   6.727  0.2613  0.2297 -0.7745
   18MOL   O29712571   3.717   4.576   6.613  0.8289  0.4790 -0.0708
   18MOL   N29812572   3.616   4.729   6.755  0.2053 -0.6059  0.3579
   18MOL   C29912573   3.607   4.828   6.654  0.4201 -0.0026  0.2327
   18MOL   C30012574   3.563   4.964   6.712  0.1583 -0.9483 -0.4690
   18MOL   C30112575   3.545   5.064   6.602  0.5801  0.1575  0.3870
   18MOL   C30212576   3.480   5.199   6.643 -0.0705  0.0804  0.2954
   18MOL   C30312577   3.456   5.287   6.522 -0.2927 -0.7237  0.1168
   18MOL   C30412578   3.390   5.421   6.573 -0.0915  0.4768 -0.2429
   18MOL   N30512579   3.367   5.521   6.472 -0.2313  0.0800 -0.0346
   18MOL   C30612580   3.578   4.489   6.934  0.3543  0.5944  0.1737
   18MOL   C30712581   3.596   4.391   7.031  0.7135 -0.0780  0.3847
   18MOL   H30812582   3.868   4.240   6.907  0.1707 -0.5629 -2.7569
   18MOL   H30912583   3.866   4.422   6.752  1.6095 -0.5564  0.3165
   18MOL   H31012584   3.587   4.750   6.850  0.1576 -1.3563  0.5162
   18MOL   H31112585   3.705   4.839   6.607  0.5105 -2.2128 -0.1632
   18MOL   H31212586   3.524   4.805   6.588  0.1414 -0.6668  0.8126
   18MOL   H31312587   3.627   5.008   6.788 -1.4139  2.5225 -1.0445
   18MOL   H31412588   3.466   4.943   6.757  1.5512 -1.2853  2.4829
   18MOL   H31512589   3.635   5.085   6.544 -0.1414  1.2486 -0.3755
   18MOL   H31612590   3.479   5.026   6.524  0.3700  1.8036 -0.2518
   18MOL   H31712591   3.535   5.246   6.725  1.6545 -2.4143  0.6161
   18MOL   H31812592   3.389   5.182   6.700 -0.2326  0.5918  0.1953
   18MOL   H31912593   3.397   5.239   6.444  1.7700  1.0687 -2.6713
   18MOL   H32012594   3.549   5.313   6.471 -1.8671  1.8045 -1.6258
   18MOL   H32112595   3.307   5.404   6.641  0.2998 -1.7069 -0.2867
   18MOL   H32212596   3.473   5.452   6.636 -0.4341 -0.2642  0.5805
   18MOL   H32312597   3.426   5.603   6.465  1.0534 -0.8973 -0.8952
   18MOL   H32412598   3.488   4.548   6.930  0.6947  1.1317  0.1912
   18MOL   H32512599   3.525   4.388   7.113  1.5516  0.4363  1.1413
   18MOL   C32612600   3.250   5.530   6.409  1.2121 -0.0878 -0.1387
   18MOL   O32712601   3.178   5.430   6.402  0.3691  0.2624  0.2943
   18MOL   C32812602   3.204   5.668   6.352 -0.8173  0.3570  0.5615
   18MOL   C32912603   3.101   5.674   6.254 -0.1572  0.4671 -0.2736
   18MOL   C33012604   3.054   5.801   6.216  0.6735 -0.3386  0.0608
   18MOL   C33112605   3.114   5.922   6.263 -0.0211  0.6354 -0.5088
   18MOL   C33212606   3.068   6.051   6.206 -0.2937  0.0588 -0.3114
   18MOL   O33312607   3.144   6.147   6.208 -0.2238 -0.8582  0.3939
   18MOL   N33412608   2.948   6.054   6.154  0.0342 -0.0016 -0.2582
   18MOL   C33512609   2.888   6.153   6.068  0.3948 -0.4364  0.4556
   18MOL   C33612610   2.752   6.108   6.010 -0.3275 -0.1513 -0.3737
   18MOL   C33712611   2.672   6.209   5.920 -0.8924  0.3238 -0.1253
   18MOL   C33812612   2.573   6.142   5.830  0.3272  0.2181  0.2384
   18MOL   C33912613   2.513   6.245   5.725  0.4669 -0.1006 -0.1624
   18MOL   C34012614   2.407   6.182   5.636 -0.0811  0.3266 -0.1447
   18MOL   N34112615   2.287   6.146   5.715  0.3876  0.2970 -0.0039
   18MOL   C34212616   3.220   5.913   6.350  0.8352 -0.5504  0.6651
   18MOL   C34312617   3.265   5.792   6.399 -0.0453 -0.8179  0.4563
   18MOL   H34412618   3.068   5.584   6.205 -0.6814 -0.1696  1.2136
   18MOL   H34512619   2.971   5.798   6.147  0.2506 -2.6098  0.6079
   18MOL   H34612620   2.891   5.973   6.169 -0.6983  0.9463  2.3251
   18MOL   H34712621   2.862   6.237   6.132 -2.2086 -0.7908 -0.1185
   18MOL   H34812622   2.962   6.177   5.991  1.1152  0.7645  1.5006
   18MOL   H34912623   2.692   6.061   6.088 -1.1246  2.4873  0.6545
   18MOL   H35012624   2.780   6.018   5.955  2.2219 -0.5108  1.4195
   18MOL   H35112625   2.622   6.284   5.980 -0.3496  0.3086  0.3529
   18MOL   H35212626   2.744   6.271   5.867  0.4576 -0.7777  0.3630
   18MOL   H35312627   2.500   6.100   5.899  1.5762 -1.1300  0.7734
   18MOL   H35412628   2.627   6.064   5.776 -0.0739 -0.6780  1.1136
   18MOL   H35512629   2.595   6.283   5.664  0.3322  1.6668  0.7130
   18MOL   H35612630   2.469   6.332   5.774  1.3311  0.6476 -0.6884
   18MOL   H35712631   2.372   6.254   5.562 -0.1720  0.7870  0.3508
   18MOL   H35812632   2.444   6.097   5.577  0.4895  0.4040  0.0963
   18MOL   H35912633   2.228   6.225   5.736  0.7207  0.5483 -0.0058
   18MOL   H36012634   3.261   6.006   6.387 -1.4002  1.9276 -2.7951
   18MOL   H36112635   3.342   5.795   6.474 -0.5326 -2.9271  1.0578
   18MOL   C36212636   2.249   6.019   5.754 -0.6502 -0.2559 -0.3231
   18MOL   O36312637   2.318   5.920   5.737  0.2272  0.3970 -0.0507
   18MOL   C36412638   2.111   6.003   5.815  0.5476  0.9332 -0.6464
   18MOL   C36512639   2.000   6.079   5.789  0.4169 -0.1892 -0.0207
   18MOL   C36612640   1.873   6.053   5.849 -0.4922  0.1945 -0.1247
   18MOL   C36712641   1.855   5.941   5.936 -0.0803 -0.0871 -0.1921
   18MOL   C36812642   1.725   5.908   5.998  0.7110  0.2230  0.3299
   18MOL   O36912643   1.706   5.795   6.038  0.2852 -0.2959  0.0222
   18MOL   N37012644   1.631   6.001   6.005  0.1866  0.3066 -0.6022
   18MOL   C37112645   1.500   5.985   6.057 -0.1934  1.1113 -0.1045
   18MOL   C37212646   1.501   6.042   6.202 -0.9161 -0.7089  0.0381
   18MOL   C37312647   1.359   6.073   6.252  0.7628  0.1344 -0.7762
   18MOL   C37412648   1.342   6.131   6.397 -0.1833 -0.3710  0.2668
   18MOL   C37512649   1.202   6.111   6.448  0.9760  0.6420  0.3074
   18MOL   C37612650   1.185   5.991   6.533 -0.0609  0.7021 -0.2245
   18MOL   N37712651   1.260   5.876   6.483  0.1748 -0.0215 -0.1043
   18MOL   C37812652   1.974   5.867   5.960  0.0971  0.3072 -0.1697
   18MOL   C37912653   2.100   5.898   5.902  0.1863  0.0865  0.8750
   18MOL   H38012654   2.022   6.164   5.726  1.1967 -0.6691 -0.4090
   18MOL   H38112655   1.797   6.129   5.833  0.9558  1.1289 -2.7958
   18MOL   H38212656   1.660   6.095   5.980 -3.0345  0.2326 -5.1611
   18MOL   H38312657   1.440   6.047   5.991 -1.8602 -1.0398 -0.6199
   18MOL   H38412658   1.464   5.883   6.058 -0.0551  1.0497  2.3592
   18MOL   H38512659   1.565   6.129   6.215 -1.1628 -0.7671  1.6675
   18MOL   H38612660   1.547   5.965   6.263  2.2302 -0.7441 -2.2319
   18MOL   H38712661   1.330   6.161   6.193 -1.2338  1.4498  2.0531
   18MOL   H38812662   1.293   5.988   6.235  0.4952  0.3410 -0.7672
   18MOL   H38912663   1.352   6.240   6.397 -0.5037 -0.3403  0.4214
   18MOL   H39012664   1.415   6.083   6.462 -0.2214 -0.0402  0.5533
   18MOL   H39112665   1.128   6.094   6.370 -2.3052  1.7905  3.0125
   18MOL   H39212666   1.162   6.195   6.505  0.0941  1.2365 -1.1743
   18MOL   H39312667   1.220   6.026   6.630  0.0950  0.0702 -0.0507
   18MOL   H39412668   1.081   5.961   6.536 -0.3326  1.4840 -1.3482
   18MOL   H39512669   1.268   5.858   6.384 -0.0378 -2.9569  0.3862
   18MOL   H39612670   1.974   5.777   6.020  1.1444  0.6481  0.3714
   18MOL   H39712671   2.182   5.827   5.900 -1.7578 -2.1954  0.2798
   18MOL   C39812672   1.349   5.809   6.556  0.1697 -0.7268 -0.2038
   18MOL   O39912673   1.360   5.819   6.681  0.4923  0.3387 -0.1713
   18MOL   C40012674   1.454   5.732   6.483  0.4356 -0.1855  0.4598
   18MOL   C40112675   1.576   5.694   6.546 -0.0967 -0.7652 -0.6471
   18MOL   C40212676   1.676   5.625   6.479  0.0020 -0.4069  0.3519
   18MOL   C40312677   1.657   5.601   6.344  0.5421 -0.4905  0.4528
   18MOL   C40412678   1.765   5.517   6.279  0.2973 -0.3925  0.3666
   18MOL   O40512679   1.834   5.437   6.342 -0.1628  0.2300  0.6192
   18MOL   N40612680   1.785   5.541   6.149 -0.1275 -0.1259 -0.7276
   18MOL   C40712681   1.875   5.468   6.057  0.3847 -0.3734  0.1721
   18MOL   C40812682   1.855   5.509   5.913 -0.1768  0.3306 -0.2791
   18MOL   C40912683   1.963   5.450   5.825  0.2585  0.1373 -0.0617
   18MOL   C41012684   2.097   5.534   5.825 -0.3014  0.2598  0.1244
   18MOL   C41112685   2.194   5.462   5.719  0.2041 -0.7739  0.3037
   18MOL   C41212686   2.325   5.544   5.690 -0.8658 -0.2739  0.2261
   18MOL   N41312687   2.395   5.599   5.802 -0.9579  0.3484 -0.3720
   18MOL   C41412688   1.542   5.642   6.272 -0.0518 -0.2835 -0.2363
   18MOL   C41512689   1.439   5.705   6.344 -0.4021  0.0439 -0.1437
   18MOL   H41612690   1.591   5.724   6.649 -1.7392 -1.4338 -0.1822
   18MOL   H41712691   1.764   5.586   6.528 -1.1605 -0.0631  2.7932
   18MOL   H41812692   1.730   5.608   6.097 -0.4122 -0.5442 -0.9665
   18MOL   H41912693   1.979   5.498   6.070  0.4069 -1.3654  2.4607
   18MOL   H42012694   1.867   5.362   6.084  2.8294 -0.0206  2.5017
   18MOL   H42112695   1.855   5.618   5.907  1.1798  0.4110  1.0259
   18MOL   H42212696   1.759   5.470   5.879  1.4858 -1.8930 -2.5829
   18MOL   H42312697   1.986   5.347   5.852 -0.6502 -0.8754 -2.9712
   18MOL   H42412698   1.942   5.438   5.719 -2.8689 -0.9730  0.6241
   18MOL   H42512699   2.138   5.532   5.926  0.0373 -1.6834 -0.0247
   18MOL   H42612700   2.084   5.640   5.803  0.7460 -0.4334 -4.4358
   18MOL   H42712701   2.135   5.461   5.627 -1.4659  0.4767  1.3262
   18MOL   H42812702   2.219   5.364   5.759  1.0401 -0.5152  0.4269
   18MOL   H42912703   2.387   5.470   5.638  1.2363  0.7224  1.2338
   18MOL   H43012704   2.303   5.627   5.623  0.2676 -0.2686 -0.1468
   18MOL   H43112705   2.410   5.699   5.809 -2.2709  0.5780 -0.6573
   18MOL   H43212706   1.533   5.630   6.165  3.6149  2.0166 -0.8915
   18MOL   H43312707   1.347   5.729   6.292  0.0208  2.3215  0.1015
   18MOL   C43412708   2.460   5.529   5.900 -0.6361  0.3524  0.2545
   18MOL   O43512709   2.476   5.408   5.898 -0.4452 -0.0398  0.1595
   18MOL   C43612710   2.509   5.610   6.019 -0.2892 -0.3768  0.1926
   18MOL   C43712711   2.570   5.541   6.130  0.4257 -0.6046  0.1716
   18MOL   C43812712   2.617   5.619   6.235  0.1726  0.3352  0.4905
   18MOL   C43912713   2.599   5.758   6.246  0.2382 -0.0235  0.0034
   18MOL   C44012714   2.664   5.840   6.357  0.1027 -0.0409 -0.7243
   18MOL   O44112715   2.680   5.961   6.344  0.3131  0.4694 -0.5552
   18MOL   N44212716   2.725   5.766   6.458 -0.3522 -0.1785 -0.1355
   18MOL   C44312717   2.772   5.816   6.588  0.5287  0.1395  0.8896
   18MOL   C44412718   2.916   5.865   6.577  0.1009 -0.6869 -0.1672
   18MOL   C44512719   2.951   5.941   6.709 -1.1694  0.1657  0.0762
   18MOL   C44612720   3.080   6.024   6.707 -0.0378  0.0316  0.1460
   18MOL   C44712721   3.073   6.151   6.617 -0.0856 -0.8519 -0.6087
   18MOL   C44812722   3.192   6.242   6.655 -0.0557  0.3161  0.3823
   18MOL   N44912723   3.201   6.353   6.562  0.9301  0.0330  0.7641
   18MOL   C45012724   2.538   5.827   6.138 -0.0007 -0.7368  0.5101
   18MOL   C45112725   2.488   5.750   6.026  0.4831  0.0396  0.8614
   18MOL   H45212726   2.580   5.435   6.114  0.0689 -0.8893  1.7156
   18MOL   H45312727   2.672   5.566   6.311 -1.6209 -2.0507  0.2007
   18MOL   H45412728   2.705   5.667   6.451 -0.6982 -0.0690 -0.6767
   18MOL   H45512729   2.708   5.903   6.604 -0.3034 -0.6344  1.8878
   18MOL   H45612730   2.755   5.745   6.669 -0.2132 -0.0191  0.6061
   18MOL   H45712731   2.923   5.936   6.494  2.0084  0.3097  0.7895
   18MOL   H45812732   2.985   5.782   6.561  1.5931  0.2868  1.0032
   18MOL   H45912733   2.866   5.998   6.747 -1.4911 -0.5354  0.4307
   18MOL   H46012734   2.965   5.874   6.794  2.0234 -1.4357 -1.6368
   18MOL   H46112735   3.163   5.961   6.679  1.7796  2.1817  0.5421
   18MOL   H46212736   3.096   6.047   6.812 -1.5010 -0.9873  0.6070
   18MOL   H46312737   2.983   6.208   6.641 -0.5526 -0.9298 -2.0898
   18MOL   H46412738   3.060   6.121   6.513 -0.7802  1.5104 -1.2321
   18MOL   H46512739   3.174   6.276   6.757  0.3338 -1.3395  1.0189
   18MOL   H46612740   3.284   6.183   6.656 -1.1330 -1.4277 -1.2269
   18MOL   H46712741   3.239   6.331   6.471  0.7859 -1.4400  1.0415
   18MOL   H46812742   2.519   5.933   6.144 -2.0062 -1.0403 -0.0169
   18MOL   H46912743   2.432   5.793   5.945  1.1857 -2.6101 -1.1187
   18MOL   C47012744   3.154   6.479   6.583 -0.1698  0.1301  0.6122
   18MOL   O47112745   3.135   6.527   6.695 -0.3457 -0.2755  0.0880
   18MOL   C47212746   3.140   6.562   6.458  0.3443  0.0578 -0.3181
   18MOL   C47312747   3.227   6.667   6.438 -0.4995 -0.8084  0.3379
   18MOL   C47412748   3.233   6.747   6.320 -0.5225 -0.1828  0.2099
   18MOL   C47512749   3.146   6.713   6.215 -0.9849 -0.2616  0.8911
   18MOL   C47612750   3.142   6.793   6.086  0.0881  0.3967  0.2326
   18MOL   O47712751   3.038   6.812   6.027  0.5596 -0.0361  0.6537
   18MOL   N47812752   3.265   6.826   6.037  0.8310 -0.0782  0.8355
   18MOL   C47912753   3.283   6.910   5.919 -0.0930  0.5286 -0.1741
   18MOL   C48012754   3.246   7.058   5.954  0.2317  0.3069 -0.7333
   18MOL   C48112755   3.251   7.151   5.831 -0.4355 -0.1025  0.1611
   18MOL   C48212756   3.366   7.133   5.730 -0.3140  0.6851  1.0322
   18MOL   C48312757   3.374   7.224   5.606 -0.2119 -0.5672  0.4716
   18MOL   C48412758   3.409   7.367   5.652  0.6731  0.4919 -0.4676
   18MOL   N48512759   3.429   7.445   5.534  0.2514 -0.3843 -0.1744
   18MOL   C48612760   3.056   6.605   6.231  0.3513 -0.1069 -0.4499
   18MOL   C48712761   3.057   6.528   6.351  0.4493 -0.3521  0.8106
   18MOL   H48812762   3.283   6.688   6.528 -0.8783 -0.4787  0.5016
   18MOL   H48912763   3.308   6.822   6.303 -2.1712  1.5777  0.5140
   18MOL   H49012764   3.340   6.803   6.099  3.0270  1.5587 -1.1215
   18MOL   H49112765   3.389   6.907   5.893 -0.8350  0.3297 -3.4826
   18MOL   H49212766   3.223   6.876   5.835  0.3787  0.5993 -0.5444
   18MOL   H49312767   3.324   7.099   6.019  1.2664 -0.9314 -1.1731
   18MOL   H49412768   3.154   7.072   6.010  0.8771  0.3372  0.3261
   18MOL   H49512769   3.150   7.158   5.790  0.1012  1.7932 -0.9012
   18MOL   H49612770   3.271   7.250   5.872 -0.7534 -0.4735  1.2250
   18MOL   H49712771   3.364   7.029   5.697 -1.6665 -0.5197  4.6529
   18MOL   H49812772   3.462   7.135   5.781  0.0663 -1.1915  0.4433
   18MOL   H49912773   3.283   7.216   5.547  0.0314 -0.6313  0.1095
   18MOL   H50012774   3.458   7.184   5.550  0.2606 -3.0324  2.8692
   18MOL   H50112775   3.324   7.408   5.707  0.6775 -0.9902  0.6684
   18MOL   H50212776   3.497   7.372   5.716  0.4826 -2.4725  0.0964
   18MOL   H50312777   3.522   7.479   5.512 -0.2401  1.6674  0.7220
   18MOL   H50412778   2.985   6.584   6.153 -0.2671  0.4115 -0.0273
   18MOL   H50512779   2.996   6.440   6.362  0.3254 -0.7452 -2.6418
   18MOL   C50612780   3.347   7.477   5.428  0.6316  0.2106  0.5536
   18MOL   O50712781   3.227   7.459   5.429  0.0993 -0.1410  0.8108
   18MOL   C50812782   3.409   7.530   5.300 -0.3181  0.2566  0.1832
   18MOL   C50912783   3.361   7.655   5.247  0.4334 -0.2274  0.0672
   18MOL   C51012784   3.421   7.706   5.128  0.2123 -0.3846  0.5329
   18MOL   C51112785   3.519   7.632   5.060 -0.5363 -0.2824 -0.5700
   18MOL   C51212786   3.574   7.686   4.934  1.2091  0.2592 -0.8303
   18MOL   O51312787   3.552   7.801   4.899 -0.2131 -0.9161 -0.0823
   18MOL   N51412788   3.637   7.596   4.858 -0.1679 -0.0343  0.1073
   18MOL   C51512789   3.683   7.625   4.725  0.1376  0.4746  0.1797
   18MOL   C51612790   3.654   7.502   4.639  0.3316  0.3525 -1.0384
   18MOL   C51712791   3.730   7.516   4.508 -0.5118 -1.0231  0.2804
   18MOL   C51812792   3.708   7.409   4.399 -0.2342 -0.6199 -0.0135
   18MOL   C51912793   3.774   7.452   4.265 -0.5324  0.1286 -0.0284
   18MOL   C52012794   3.700   7.548   4.180 -0.4973  0.0535 -0.2240
   18MOL   N52112795   3.763   7.578   4.053  0.2516 -0.3662 -0.7237
   18MOL   C52212796   3.560   7.508   5.108 -0.4782 -0.2360  0.2865
   18MOL   C52312797   3.503   7.455   5.226 -0.2614 -0.3092  0.6489
   18MOL   H52412798   3.284   7.707   5.302 -0.4223 -1.2779 -0.1268
   18MOL   H52512799   3.391   7.804   5.093 -0.4306 -1.7148 -2.8493
   18MOL   H52612800   3.639   7.500   4.892 -1.2007 -0.0472  0.1675
   18MOL   H52712801   3.670   7.718   4.670  0.4922  1.2046  1.3207
   18MOL   H52812802   3.788   7.618   4.752 -0.2162  0.7761  1.6719
   18MOL   H52912803   3.547   7.488   4.632  0.5483 -1.7449 -0.4911
   18MOL   H53012804   3.685   7.410   4.690 -0.8333 -1.0068 -2.7543
   18MOL   H53112805   3.693   7.607   4.458  2.5785  0.1725  0.0561
   18MOL   H53212806   3.836   7.529   4.530 -0.4761 -3.5562  1.7420
   18MOL   H53312807   3.600   7.404   4.382 -0.1627 -1.3005 -0.2740
   18MOL   H53412808   3.753   7.313   4.424  2.5517  0.2939 -1.2687
   18MOL   H53512809   3.801   7.366   4.203 -0.7132 -1.0865  1.5285
   18MOL   H53612810   3.872   7.496   4.280  0.2532 -1.7356  0.4707
   18MOL   H53712811   3.598   7.511   4.167  0.0614 -0.5205 -3.4232
   18MOL   H53812812   3.684   7.635   4.244 -0.0320 -0.5224  0.6796
   18MOL   H53912813   3.745   7.510   3.980 -0.5573 -1.3395  0.3682
   18MOL   H54012814   3.644   7.463   5.056 -0.6914  0.1496 -0.4069
   18MOL   H54112815   3.531   7.362   5.273 -2.1989  0.0484  2.6263
   18MOL   C54212816   3.836   7.687   4.033  0.6388 -0.1779 -0.5807
   18MOL   O54312817   3.843   7.778   4.116  0.3214 -0.4077  0.4706
   18MOL   C54412818   3.898   7.697   3.894 -0.5260 -0.5932 -0.1650
   18MOL   C54512819   3.972   7.586   3.840 -0.3975  0.5906  0.3123
   18MOL   C54612820   4.034   7.606   3.717  0.0410 -0.1070 -0.0995
   18MOL   C54712821   4.036   7.728   3.644 -0.1813  0.5052 -0.6096
   18MOL   C54812822   4.097   7.737   3.509  1.1972 -0.2950 -0.1102
   18MOL   O54912823   4.040   7.814   3.428  0.1479 -0.0472 -0.0581
   18MOL   N55012824   4.207   7.662   3.485 -0.2388 -0.1630  0.2038
   18MOL   C55112825   4.288   7.662   3.361  0.1669 -0.4872  0.3952
   18MOL   C55212826   4.208   7.604   3.240  0.6117 -0.1203 -0.6314
   18MOL   C55312827   4.301   7.597   3.114 -0.1376  0.0519 -0.2185
   18MOL   C55412828   4.222   7.554   2.989 -1.0533 -0.8272  0.6098
   18MOL   C55512829   4.314   7.560   2.863  0.2685 -0.4392 -0.1498
   18MOL   C55612830   4.247   7.503   2.740 -0.2726  0.4594 -0.1155
   18MOL   N55712831   4.122   7.574   2.721  0.5008  0.4608  0.6879
   18MOL   C55812832   3.960   7.832   3.695 -0.2923  0.5895 -0.0175
   18MOL   C55912833   3.895   7.821   3.819  0.4641 -0.2674 -0.1750
   18MOL   H56012834   3.987   7.498   3.900  0.2623  1.4029  1.3451
   18MOL   H56112835   4.090   7.522   3.678  1.6718  1.6168 -1.5335
   18MOL   H56212836   4.259   7.634   3.567  1.8448  0.5746 -0.8272
   18MOL   H56312837   4.326   7.762   3.345  0.9521 -0.3095  3.1697
   18MOL   H56412838   4.365   7.588   3.381 -0.0550 -0.8533 -0.0925
   18MOL   H56512839   4.118   7.659   3.215  0.2141 -0.3018  0.3574
   18MOL   H56612840   4.175   7.504   3.267 -0.5282  0.1071 -1.1705
   18MOL   H56712841   4.331   7.699   3.089  0.2655 -0.3357 -1.3548
   18MOL   H56812842   4.388   7.534   3.131 -0.1801  0.4481  1.6650
   18MOL   H56912843   4.131   7.612   2.981 -0.8022 -0.2730  1.7391
   18MOL   H57012844   4.197   7.448   2.984 -1.7652 -0.6477  0.3003
   18MOL   H57112845   4.411   7.511   2.875  0.1080 -0.6450  0.3052
   18MOL   H57212846   4.348   7.661   2.836  0.9218 -0.7948 -0.6959
   18MOL   H57312847   4.317   7.514   2.657  1.9698 -0.3965  1.6390
   18MOL   H57412848   4.231   7.397   2.757  0.1261  0.1646 -1.5375
   18MOL   H57512849   4.101   7.636   2.798 -1.0057  2.2345 -1.0980
   18MOL   H57612850   3.971   0.041   3.646 -0.7872  0.2514 -0.7812
   18MOL   H57712851   3.840   0.024   3.849  1.6542  0.3267  0.2615
   18MOL   C57812852   4.037   7.566   2.617 -0.2594  0.4921 -0.4639
   18MOL   O57912853   4.063   7.499   2.518  0.3215  0.0211 -0.5568
   18MOL   C58012854   3.915   7.650   2.629  0.4742 -0.0469 -0.7539
   18MOL   C58112855   3.848   7.657   2.752 -0.2472  0.1604 -0.2594
   18MOL   C58212856   3.723   7.719   2.760 -0.0004  0.1513  0.0759
   18MOL   C58312857   3.676   7.802   2.655  0.5144  0.3546  0.4089
   18MOL   C58412858   3.541   7.871   2.667  0.0795  0.1265 -0.1496
   18MOL   O58512859   3.534   0.103   2.644 -0.1320 -0.7517  0.3432
   18MOL   N58612860   3.431   7.798   2.689 -0.4626  0.2874  0.6172
   18MOL   C58712861   3.298   7.851   2.711 -0.3121  0.3663 -0.3325
   18MOL   C58812862   3.215   7.768   2.807  0.2281 -0.3627  0.0437
   18MOL   C58912863   3.068   7.822   2.808  0.5653  0.6722 -0.3495
   18MOL   C59012864   2.984   7.781   2.928 -0.2426  0.4556  0.2381
   18MOL   C59112865   2.958   7.627   2.924  0.8041 -0.1851  0.0982
   18MOL   C59212866   2.913   7.558   3.052  0.9217  0.0770 -1.3159
   18MOL   N59312867   2.938   7.413   3.056 -0.2879  0.7555  0.4212
   18MOL   C59412868   3.743   7.802   2.533  0.1799  0.1752 -0.1815
   18MOL   C59512869   3.862   7.720   2.522 -0.0972 -0.2042  0.3921
   18MOL   H59612870   3.876   7.591   2.833 -1.2247  3.4928  2.9327
   18MOL   H59712871   3.656   7.705   2.844  1.2230 -1.3729  0.8259
   18MOL   H59812872   3.439   7.698   2.692  0.8121  0.3904  0.9881
   18MOL   H59912873   3.310   0.068   2.744 -0.6471  0.7849 -1.5197
   18MOL   H60012874   3.248   7.858   2.615 -0.1062  2.4660 -0.2919
   18MOL   H60112875   3.261   7.767   2.907 -0.0690 -0.4899  0.1789
   18MOL   H60212876   3.220   7.660   2.791 -3.5246 -0.5153 -0.4373
   18MOL   H60312877   3.076   0.045   2.813 -1.3277  0.6940  4.2923
   18MOL   H60412878   3.026   7.801   2.709  0.2509  1.4518 -0.3846
   18MOL   H60512879   2.887   7.829   2.920 -0.0948  0.7592  0.2760
   18MOL   H60612880   3.036   7.806   3.021 -0.2153  0.4774  0.2167
   18MOL   H60712881   3.049   7.584   2.883  0.8723 -0.5787  0.6510
   18MOL   H60812882   2.888   7.608   2.842 -0.2566  0.3081  0.8879
   18MOL   H60912883   2.964   7.587   3.143 -2.3426  1.5755  0.1122
   18MOL   H61012884   2.807   7.567   3.075  1.0609 -0.3113 -0.5336
   18MOL   H61112885   2.993   7.382   2.977 -1.1718  0.8322 -0.2308
   18MOL   H61212886   3.699   7.864   2.456 -3.0949 -0.6993  0.9040
   18MOL   H61312887   3.906   7.716   2.423 -0.6202 -0.7725  0.1758
   18MOL   C61412888   2.894   7.328   3.153  0.7214 -0.7364  0.0026
   18MOL   O61512889   2.815   7.366   3.240 -0.6688 -0.1295 -0.0807
   18MOL   C61612890   2.950   7.191   3.159 -0.0643  0.4735  0.3162
   18MOL   C61712891   3.084   7.166   3.133 -0.6227 -0.0061  0.2403
   18MOL   C61812892   3.133   7.035   3.137  0.5597 -0.3794 -0.0398
   18MOL   C61912893   3.048   6.929   3.170 -0.4916  0.2587  1.0091
   18MOL   C62012894   3.106   6.789   3.209  0.4336  0.8860  0.0651
   18MOL   O62112895   3.055   6.735   3.311  0.0343  0.1744  0.5558
   18MOL   N62212896   3.203   6.732   3.134  0.4137 -0.1332 -0.0163
   18MOL   C62312897   3.266   6.603   3.167  0.7152  0.1279 -0.3287
   18MOL   C62412898   3.404   6.596   3.110  0.8174 -0.3263  0.3510
   18MOL   C62512899   3.458   6.455   3.141  0.2899  0.8536  0.5188
   18MOL   C62612900   3.597   6.417   3.087 -0.2212 -0.0295 -0.8745
   18MOL   C62712901   3.718   6.459   3.177  0.0846  0.0716  0.4721
   18MOL   C62812902   3.851   6.436   3.100 -0.3009 -0.1235  0.5233
   18MOL   N62912903   3.863   6.301   3.051 -0.4092 -0.5527  0.3576
   18MOL   C63012904   2.915   6.953   3.195 -0.3686  0.8352 -0.0507
   18MOL   C63112905   2.861   7.079   3.183  0.3803 -0.5283  0.1003
   18MOL   H63212906   3.159   7.243   3.123 -1.1867  0.6988  1.3115
   18MOL   H63312907   3.240   7.022   3.139  0.2608 -3.1249  0.2082
   18MOL   H63412908   3.240   6.787   3.058  0.1838 -2.3356 -1.7723
   18MOL   H63512909   3.261   6.578   3.273  0.2997 -1.9854 -0.8242
   18MOL   H63612910   3.196   6.540   3.113  1.6758 -2.5829  1.4948
   18MOL   H63712911   3.473   6.673   3.144  2.7056 -1.2052 -1.4141
   18MOL   H63812912   3.394   6.606   3.002  2.0242  2.1283  0.4315
   18MOL   H63912913   3.461   6.447   3.249 -0.4460 -0.4402  0.4594
   18MOL   H64012914   3.387   6.382   3.101  0.9292  0.7270 -0.4124
   18MOL   H64112915   3.608   6.443   2.982  0.1130  0.2691 -0.7687
   18MOL   H64212916   3.594   6.309   3.086  1.6803 -0.1838  2.0247
   18MOL   H64312917   3.726   6.407   3.272  0.6040 -0.3966  0.1737
   18MOL   H64412918   3.705   6.561   3.212  0.3236 -0.8096  3.2587
   18MOL   H64512919   3.861   6.509   3.020  0.1906 -1.4837 -0.6583
   18MOL   H64612920   3.923   6.457   3.179 -2.3685  0.1026  2.4091
   18MOL   H64712921   3.889   6.227   3.115 -2.0918 -0.4261  1.2108
   18MOL   H64812922   2.852   6.868   3.217  1.1137 -0.1810  0.3380
   18MOL   H64912923   2.756   7.094   3.205  0.3387 -0.1532 -0.3559
   18MOL   C65012924   3.843   6.251   2.930 -0.0471 -0.2764 -0.7469
   18MOL   O65112925   3.830   6.317   2.829 -0.0176 -0.4991  0.3510
   18MOL   C65212926   3.859   6.100   2.926  0.5807 -0.8647  0.6390
   18MOL   C65312927   3.780   6.018   3.005  0.4063  0.4746 -0.1786
   18MOL   C65412928   3.783   5.878   2.983  0.0171 -0.2930 -0.3101
   18MOL   C65512929   3.863   5.815   2.890  0.0803 -0.3104 -0.4209
   18MOL   C65612930   3.851   5.664   2.868 -0.6384  0.8157  0.1245
   18MOL   O65712931   3.911   5.586   2.940  0.2009  0.0403 -0.6397
   18MOL   N65812932   3.783   5.627   2.764 -0.2619 -0.5153  0.4883
   18MOL   C65912933   3.783   5.489   2.712 -0.2936  0.4969 -0.2053
   18MOL   C66012934   3.718   5.478   2.574 -0.3025 -0.2426  0.2534
   18MOL   C66112935   3.753   5.349   2.504  0.1838 -0.1449  0.4672
   18MOL   C66212936   3.733   5.358   2.351 -0.4746  0.4272 -0.5473
   18MOL   C66312937   3.789   5.236   2.272 -0.0515  0.7639  0.9000
   18MOL   C66412938   3.729   5.231   2.128  0.4019  0.2662  0.7226
   18MOL   N66512939   3.781   5.109   2.057  0.2008 -0.2129  0.0373
   18MOL   C66612940   3.948   5.900   2.811  0.1709 -0.7659  0.1688
   18MOL   C66712941   3.938   6.044   2.830 -0.3494  0.6130  0.0994
   18MOL   H66812942   3.708   6.059   3.074  0.0479 -0.2928 -0.0901
   18MOL   H66912943   3.703   5.823   3.031 -0.8474  0.8347 -0.4188
   18MOL   H67012944   3.737   5.697   2.708 -1.1106 -1.2813  0.2087
   18MOL   H67112945   3.889   5.464   2.706 -0.2439  0.3112  1.2140
   18MOL   H67212946   3.731   5.426   2.785  0.1210  0.1356 -0.2223
   18MOL   H67312947   3.745   5.559   2.505  0.5334 -0.0673  0.7738
   18MOL   H67412948   3.610   5.492   2.574 -0.1915  0.9586 -1.5122
   18MOL   H67512949   3.857   5.325   2.526  0.2441 -0.5156 -0.2324
   18MOL   H67612950   3.708   5.258   2.544  2.6374 -1.6290 -0.0371
   18MOL   H67712951   3.775   5.448   2.307  1.9166 -0.1134  0.5811
   18MOL   H67812952   3.625   5.357   2.334 -0.5724 -1.2062  0.0456
   18MOL   H67912953   3.754   5.145   2.322  1.0056  0.3954  0.9708
   18MOL   H68012954   3.897   5.238   2.281 -0.0310 -0.4648  1.0259
   18MOL   H68112955   3.620   5.236   2.133  0.3334 -2.9439  5.0851
   18MOL   H68212956   3.754   5.320   2.071  0.7572 -1.2824 -1.5986
   18MOL   H68312957   3.869   5.072   2.089  0.8585 -0.3595 -1.8915
   18MOL   H68412958   4.008   5.858   2.732  0.1160 -0.1147 -0.2220
   18MOL   H68512959   3.985   6.112   2.760  1.5540 -1.5111 -0.7796
   18MOL   C68612960   3.705   5.046   1.966 -0.1000 -1.0467 -0.1162
   18MOL   O68712961   3.600   5.091   1.913 -0.4379  0.3380 -0.5245
   18MOL   C68812962   3.761   4.912   1.921 -0.2610 -0.5506  0.2810
   18MOL   C68912963   3.708   4.852   1.798  0.8081 -0.3799  0.1574
   18MOL   C69012964   3.761   4.730   1.754  0.5105 -0.1878  0.4378
   18MOL   C69112965   3.860   4.658   1.824 -0.3344 -0.6191  0.4023
   18MOL   C69212966   3.925   4.532   1.768  0.7189  0.6168  0.3376
   18MOL   O69312967   3.907   4.503   1.651  0.2580  0.6036  0.6359
   18MOL   N69412968   3.994   4.462   1.857 -0.4360  0.0730  0.8815
   18MOL   C69512969   4.084   4.347   1.834 -0.4820  0.8241 -0.4597
   18MOL   C69612970   3.999   4.231   1.785 -0.4476 -0.4034 -0.4519
   18MOL   C69712971   4.085   4.128   1.716 -0.2604  0.3466  0.9157
   18MOL   C69812972   4.001   4.024   1.634 -0.3140  0.5550  0.3274
   18MOL   C69912973   4.094   3.935   1.544  0.7814 -0.1942  0.4352
   18MOL   C70012974   4.015   3.855   1.446  0.8857 -0.1871 -0.4371
   18MOL   N70112975   4.115   3.799   1.355  0.4513  0.5128  0.9516
   18MOL   C70212976   3.923   4.730   1.935  0.3964  0.3318 -0.2756
   18MOL   C70312977   3.874   4.849   1.983 -0.0422 -0.3389  0.2806
   18MOL   H70412978   3.630   4.899   1.742  1.5446  0.0466 -0.5178
   18MOL   H70512979   3.718   4.685   1.665 -0.6152  1.2139  0.2679
   18MOL   H70612980   3.980   4.495   1.952 -0.3348  0.0754  0.8957
   18MOL   H70712981   4.162   4.365   1.760  0.8284  1.1866  1.0103
   18MOL   H70812982   4.125   4.322   1.931  0.3510 -0.7352 -1.1955
   18MOL   H70912983   3.931   4.269   1.709  0.5122  1.0493 -0.5975
   18MOL   H71012984   3.941   4.181   1.863  0.0412  1.1471  0.9254
   18MOL   H71112985   4.158   4.175   1.650  0.7864 -2.4739 -0.0494
   18MOL   H71212986   4.140   4.074   1.793  3.9704  0.7967 -1.6219
   18MOL   H71312987   3.925   4.071   1.571 -2.4439  1.0914  3.1723
   18MOL   H71412988   3.954   3.956   1.705  1.6324  0.2930  1.3950
   18MOL   H71512989   4.166   3.869   1.593  0.4894 -2.7812 -2.4620
   18MOL   H71612990   4.162   4.006   1.495  0.7000  0.1772  0.8510
   18MOL   H71712991   3.972   3.774   1.504 -0.1463  1.3100  0.9434
   18MOL   H71812992   3.940   3.909   1.388  1.3254  0.9753  0.0592
   18MOL   H71912993   4.158   3.865   1.291 -0.0835 -0.9925 -1.0159
   18MOL   H72012994   4.011   4.684   1.978  0.5809  1.0398  0.1076
   18MOL   H72112995   3.932   4.892   2.063 -0.2979  1.7042 -0.6019
   18MOL   H72212996   4.052   3.747   1.295  1.9268  0.8675 -0.9515
   19MOL     C112997   7.065   5.122   2.906  0.1328 -0.1570 -0.3996
   19MOL     O212998   7.138   5.107   2.806  0.0061 -0.0170  0.2958
   19MOL     C312999   6.935   5.188   2.898  0.2889  0.3665  0.9114
   19MOL     C413000   6.880   5.244   3.011 -0.9303 -0.0448  0.6774
   19MOL     C513001   6.772   5.337   3.000 -0.3064 -0.3058  0.1971
   19MOL     C613002   6.716   5.364   2.873  0.1976  0.0037 -0.3579
   19MOL     C713003   6.605   5.468   2.856 -0.2160  0.3037 -0.3469
   19MOL     O813004   6.600   5.557   2.945 -0.5949 -0.6248  0.0670
   19MOL     N913005   6.519   5.459   2.753 -0.1374 -1.0879 -0.2561
   19MOL    C1013006   6.409   5.555   2.734  0.4048  0.2425  0.6677
   19MOL    C1113007   6.324   5.499   2.620 -0.2692  0.8091  0.1673
   19MOL    C1213008   6.258   5.360   2.645  0.2067 -0.0159 -0.5215
   19MOL    C1313009   6.334   5.239   2.584 -0.1212  0.3731  0.2799
   19MOL    C1413010   6.256   5.110   2.575  0.0504  0.7000  0.3595
   19MOL    C1513011   6.344   4.999   2.506  0.7117 -0.8270 -0.1129
   19MOL    N1613012   6.468   4.967   2.582  0.8009 -0.5177  0.0803
   19MOL    C1713013   6.755   5.286   2.761 -0.4936 -0.2752  0.7640
   19MOL    C1813014   6.869   5.204   2.776  0.1675 -0.0284  0.1162
   19MOL    H1913015   6.919   5.226   3.110 -0.5010  1.3128  0.7702
   19MOL    H2013016   6.737   5.380   3.092 -0.7424  2.4319 -1.1932
   19MOL    H2113017   6.550   5.407   2.672 -2.0154  1.0986 -2.4730
   19MOL    H2213018   6.344   5.558   2.822  0.6729 -1.1306  0.9188
   19MOL    H2313019   6.432   5.662   2.732 -3.3390  1.1742  1.6566
   19MOL    H2413020   6.370   5.497   2.522 -0.7150 -1.2844 -0.0155
   19MOL    H2513021   6.245   5.572   2.600 -0.6087  0.1669 -0.8400
   19MOL    H2613022   6.219   5.345   2.745 -1.1639  0.4503 -0.9852
   19MOL    H2713023   6.174   5.356   2.576 -0.6009 -2.0952  0.5317
   19MOL    H2813024   6.426   5.219   2.638 -0.8168 -0.8899  1.0207
   19MOL    H2913025   6.369   5.262   2.484 -2.3966  1.3344 -0.3438
   19MOL    H3013026   6.170   5.122   2.508 -0.2951 -0.1965  0.6422
   19MOL    H3113027   6.221   5.081   2.674  1.4705 -1.1229  0.3642
   19MOL    H3213028   6.277   4.914   2.514 -1.2970  0.6959 -0.5485
   19MOL    H3313029   6.369   5.028   2.404  0.8754  1.6758  0.6111
   19MOL    H3413030   6.460   4.961   2.682  0.7329  2.3662  0.2946
   19MOL    H3513031   6.721   5.295   2.659  0.9523  0.5609  0.3308
   19MOL    H3613032   6.906   5.155   2.688  2.2068  1.0598  0.3316
   19MOL    H3713033   7.091   5.090   3.007 -0.4802 -0.2116 -0.2521
   19MOL    C3813034   6.580   4.919   2.528  0.0126  0.1489  0.2040
   19MOL    O3913035   6.580   4.896   2.410  0.5944  0.0846 -0.5514
   19MOL    C4013036   6.683   4.870   2.622  0.0104  0.0704 -0.2748
   19MOL    C4113037   6.788   4.789   2.574 -0.5058 -0.4970  1.2697
   19MOL    C4213038   6.881   4.734   2.659  0.5648 -0.2042 -0.3018
   19MOL    C4313039   6.881   4.763   2.795  0.4107  0.3109 -0.2854
   19MOL    C4413040   6.978   4.699   2.891 -0.3060  0.5702 -0.6193
   19MOL    O4513041   7.011   4.759   2.994  0.2449  0.7582  0.3229
   19MOL    N4613042   7.030   4.584   2.851  0.4399 -0.1035 -0.2111
   19MOL    C4713043   7.124   4.500   2.929 -0.0046 -0.1532 -0.1511
   19MOL    C4813044   7.104   4.347   2.905  0.4232  0.0604 -0.4532
   19MOL    C4913045   7.222   4.271   2.971  0.2964  0.7952 -0.3675
   19MOL    C5013046   7.200   4.118   2.961 -0.3628 -0.5523  0.4435
   19MOL    C5113047   7.314   4.037   3.017 -0.0556 -0.4090 -0.0681
   19MOL    C5213048   7.341   4.056   3.167  0.1833 -0.2717  0.3366
   19MOL    N5313049   7.430   4.162   3.205 -0.4887  0.2126  0.5580
   19MOL    C5413050   6.784   4.853   2.848 -0.2566 -0.5694 -0.3842
   19MOL    C5513051   6.680   4.898   2.760  0.1424  0.0826  0.5109
   19MOL    H5613052   6.789   4.754   2.472  3.5208  3.4849 -0.2421
   19MOL    H5713053   6.953   4.666   2.616  0.6888  1.0389 -2.1124
   19MOL    H5813054   6.981   4.543   2.773 -0.8407  1.1421 -0.0782
   19MOL    H5913055   7.229   4.517   2.904 -0.0099 -0.9850 -0.7611
   19MOL    H6013056   7.116   4.521   3.035  0.4310  0.2923 -0.2033
   19MOL    H6113057   7.110   4.319   2.800  2.2508 -1.0193 -0.0858
   19MOL    H6213058   7.014   4.312   2.955  0.8463 -1.2837 -0.6087
   19MOL    H6313059   7.315   4.299   2.920 -0.4966  3.6689 -0.3246
   19MOL    H6413060   7.222   4.298   3.077  1.9261  2.2515 -0.7206
   19MOL    H6513061   7.173   4.085   2.861  0.6119 -0.4416  0.1322
   19MOL    H6613062   7.101   4.110   3.005 -2.0471  1.5197 -2.8036
   19MOL    H6713063   7.407   4.053   2.963 -0.8405 -0.5271 -1.4715
   19MOL    H6813064   7.290   3.935   2.985  0.5797  0.0708 -2.1081
   19MOL    H6913065   7.250   4.071   3.227  0.5736 -1.2883  1.2012
   19MOL    H7013066   7.386   3.962   3.198 -0.1046 -1.1873 -1.9716
   19MOL    H7113067   7.492   4.196   3.133 -2.1990 -0.3775 -1.2517
   19MOL    H7213068   6.789   4.861   2.955 -0.5499 -0.1010 -0.4040
   19MOL    H7313069   6.596   4.951   2.802 -0.8828 -0.7416 -0.4874
   19MOL    C7413070   7.460   4.191   3.333  0.4161  0.4934  0.6362
   19MOL    O7513071   7.402   4.136   3.426  0.3131  0.2263  0.8032
   19MOL    C7613072   7.598   4.252   3.358  0.2816 -0.4675  0.1149
   19MOL    C7713073   7.670   4.322   3.253 -0.2272  0.7948  0.3727
   19MOL    C7813074   7.796   4.384   3.271  0.7333 -0.8115  0.3187
   19MOL    C7913075   7.862   4.366   3.391 -0.2824  0.2703 -0.0734
   19MOL    C8013076   0.114   4.420   3.403 -0.1182  0.1902 -0.8902
   19MOL    O8113077   0.150   4.516   3.341 -0.2867 -0.0644  0.3045
   19MOL    N8213078   0.199   4.351   3.484 -0.6399  0.2457  0.1946
   19MOL    C8313079   0.343   4.383   3.502 -0.8304 -0.2099 -0.4723
   19MOL    C8413080   0.440   4.335   3.394 -0.9682 -0.7994  0.3637
   19MOL    C8513081   0.437   4.185   3.360 -0.2626  0.0398  0.0103
   19MOL    C8613082   0.481   4.156   3.211 -0.3884 -0.2476  0.0127
   19MOL    C8713083   0.381   4.204   3.106 -0.4298  0.0567  0.0035
   19MOL    C8813084   0.390   4.124   2.973  0.3092  0.0559  0.2958
   19MOL    N8913085   0.328   4.211   2.875 -0.2026  0.5373  0.0579
   19MOL    C9013086   7.796   4.300   3.499 -0.4402 -0.2064 -0.1570
   19MOL    C9113087   7.668   4.243   3.482  0.1642 -0.1121 -0.2801
   19MOL    H9213088   7.626   4.325   3.155 -0.6178 -0.9629  0.4855
   19MOL    H9313089   7.843   4.443   3.194 -2.1189 -1.1239 -1.7422
   19MOL    H9413090   0.171   4.266   3.531  0.5997 -0.3780 -0.1783
   19MOL    H9513091   0.354   4.490   3.518  0.4133 -0.5341  1.0849
   19MOL    H9613092   0.372   4.347   3.601 -0.2009  0.2406 -0.4871
   19MOL    H9713093   0.538   4.362   3.433 -0.0342 -3.0227 -0.3832
   19MOL    H9813094   0.426   4.403   3.310  1.9608  1.5924  1.7270
   19MOL    H9913095   0.494   4.121   3.428  0.3785 -0.7632 -1.2616
   19MOL   H10013096   0.336   4.149   3.377 -0.5873  0.5882 -0.7260
   19MOL   H10113097   0.513   4.051   3.210  1.3136  0.2409 -2.4665
   19MOL   H10213098   0.571   4.216   3.194  0.6392 -1.5937  0.5897
   19MOL   H10313099   0.376   4.313   3.096 -1.3509 -0.2562 -3.5509
   19MOL   H10413100   0.285   4.178   3.150 -0.0393  0.0315  0.8385
   19MOL   H10513101   0.492   4.103   2.943  0.5999  0.2482  1.1525
   19MOL   H10613102   0.338   4.028   2.973  0.2269  0.0923  1.7769
   19MOL   H10713103   0.341   4.308   2.898  0.7004 -0.0429  2.1028
   19MOL   H10813104   7.856   4.296   3.589  0.1971  0.8648 -0.5217
   19MOL   H10913105   7.625   4.197   3.570  0.1681  1.0758  0.3498
   19MOL   C11013106   0.283   4.176   2.753  0.0436  0.2533  0.6395
   19MOL   O11113107   0.278   4.060   2.719 -0.1100  0.1117 -0.1145
   19MOL   C11213108   0.228   4.283   2.659  0.0145  0.5575 -0.2759
   19MOL   C11313109   0.167   4.248   2.539 -0.5245 -0.1753 -0.2059
   19MOL   C11413110   0.131   4.352   2.443  0.5672 -0.6103  0.0035
   19MOL   C11513111   0.140   4.491   2.485  0.0709  0.0695 -0.0718
   19MOL   C11613112   0.099   4.603   2.397  0.4174 -0.2228 -0.3614
   19MOL   O11713113   7.883   4.603   2.329  0.5188  0.2335  0.1773
   19MOL   N11813114   0.199   4.695   2.377 -0.1717  0.2336 -0.2014
   19MOL   C11913115   0.212   4.783   2.255 -0.7391  0.7911  0.2855
   19MOL   C12013116   0.268   4.707   2.131 -0.1192 -0.5477 -0.5852
   19MOL   C12113117   0.414   4.665   2.139 -0.4707 -0.0974  0.1700
   19MOL   C12213118   0.479   4.610   2.004 -0.5247 -0.0033  0.4035
   19MOL   C12313119   0.636   4.605   1.996  0.2771 -0.1436 -0.4855
   19MOL   C12413120   0.688   4.544   1.864 -0.5229 -0.0002 -0.0518
   19MOL   N12513121   0.622   4.418   1.821  0.0443  0.6812 -0.6724
   19MOL   C12613122   0.190   4.519   2.616 -0.5236 -0.0919 -0.4372
   19MOL   C12713123   0.246   4.420   2.697  0.5959  0.4006  0.3519
   19MOL   H12813124   0.151   4.144   2.516  2.0830 -0.5953 -0.1769
   19MOL   H12913125   0.077   4.329   2.352 -0.0982  1.2758 -0.1088
   19MOL   H13013126   0.284   4.695   2.431 -0.6245  0.3169  0.5063
   19MOL   H13113127   0.114   4.823   2.229 -1.8826 -2.6464 -0.9528
   19MOL   H13213128   0.277   4.870   2.269  2.1718 -1.4519  1.3087
   19MOL   H13313129   0.248   4.763   2.039  3.4298  0.6970 -0.6479
   19MOL   H13413130   0.218   4.611   2.115  4.6851 -3.3077  0.0141
   19MOL   H13513131   0.477   4.744   2.179  0.6790  0.2105 -2.2217
   19MOL   H13613132   0.424   4.583   2.211  1.3814  1.3562  1.6228
   19MOL   H13713133   0.437   4.672   1.925  1.6096  2.1604  0.8946
   19MOL   H13813134   0.443   4.507   1.993 -1.6143  0.5598 -1.6693
   19MOL   H13913135   0.675   4.550   2.081 -2.1151 -1.3030 -0.0937
   19MOL   H14013136   0.680   4.705   2.002  1.0023 -0.5896  2.3400
   19MOL   H14113137   0.682   4.613   1.780 -0.1851  1.9782  1.5152
   19MOL   H14213138   0.796   4.533   1.874 -0.0763  1.7432 -2.3253
   19MOL   H14313139   0.657   4.335   1.867  0.0986  0.9372 -0.2433
   19MOL   H14413140   0.212   4.621   2.644 -1.9011  0.4276 -1.2144
   19MOL   H14513141   0.311   4.443   2.780 -0.9652 -0.8484  1.9531
   19MOL   C14613142   0.523   4.409   1.730 -0.3856  0.5831  0.2653
   19MOL   O14713143   0.480   4.505   1.660 -0.2853  0.6794  0.1626
   19MOL   C14813144   0.451   4.280   1.713  0.0886 -0.3302  0.0669
   19MOL   C14913145   0.425   4.199   1.830  0.0744  0.2060 -0.2217
   19MOL   C15013146   0.349   4.082   1.806  0.9315 -1.2166 -0.3978
   19MOL   C15113147   0.303   4.045   1.680  0.1887  0.7419  0.0366
   19MOL   C15213148   0.235   3.912   1.663  0.2895 -0.6000  0.1385
   19MOL   O15313149   0.171   3.863   1.755  0.0143  0.2946  0.4225
   19MOL   N15413150   0.255   3.855   1.542  0.5231 -0.1555 -0.0147
   19MOL   C15513151   0.216   3.716   1.515  0.2235  0.3384  0.0628
   19MOL   C15613152   0.326   3.629   1.456 -0.9484 -0.2114  0.6125
   19MOL   C15713153   0.462   3.635   1.531  0.4019 -0.0866  0.7740
   19MOL   C15813154   0.559   3.744   1.492 -0.1115  0.2963 -0.4609
   19MOL   C15913155   0.697   3.691   1.525  0.6800  0.6341  0.2539
   19MOL   C16013156   0.801   3.809   1.507 -0.2253 -0.2777  0.2423
   19MOL   N16113157   0.832   3.845   1.367 -0.2645 -0.9490  0.8004
   19MOL   C16213158   0.328   4.128   1.570 -0.0893  0.4698  0.3507
   19MOL   C16313159   0.403   4.239   1.585 -0.8938 -0.2264 -0.0989
   19MOL   H16413160   0.454   4.243   1.925 -0.4852 -0.3103  0.1956
   19MOL   H16513161   0.311   4.036   1.896 -0.8588 -1.2535 -1.1587
   19MOL   H16613162   0.316   3.894   1.471  0.7951  0.1063  0.3604
   19MOL   H16713163   0.187   3.663   1.606  1.3155  0.8969  0.7396
   19MOL   H16813164   0.125   3.720   1.454  0.3161  1.2371 -0.0152
   19MOL   H16913165   0.338   3.670   1.356  1.4353 -1.5362  0.3158
   19MOL   H17013166   0.291   3.526   1.446 -0.5102 -0.3163  0.1553
   19MOL   H17113167   0.445   3.642   1.638 -0.7405  0.7012  0.5370
   19MOL   H17213168   0.514   3.539   1.521 -1.3434 -0.8658 -1.1087
   19MOL   H17313169   0.524   3.834   1.543  0.1758 -0.4171  1.0186
   19MOL   H17413170   0.563   3.760   1.384  1.5467  0.0933 -0.4461
   19MOL   H17513171   0.726   3.608   1.461  0.4128  0.1739  0.7269
   19MOL   H17613172   0.718   3.666   1.629 -0.4194 -0.4959  0.2161
   19MOL   H17713173   0.767   3.896   1.563  0.0172 -1.5857  2.4562
   19MOL   H17813174   0.894   3.792   1.561 -1.2273 -1.0911  1.7550
   19MOL   H17913175   0.831   3.774   1.295  3.1504 -0.2309 -0.0188
   19MOL   H18013176   0.294   4.103   1.470  2.9382  1.0755 -0.8760
   19MOL   H18113177   0.406   4.315   1.507 -2.9658  0.3562  0.3678
   19MOL   C18213178   0.867   3.968   1.326 -0.4329 -0.3443  1.3089
   19MOL   O18313179   0.898   4.050   1.414  0.4045  0.2557 -0.1134
   19MOL   C18413180   0.870   3.993   1.179 -0.1603  0.0143  0.7325
   19MOL   C18513181   0.945   4.106   1.134 -0.4790 -0.3186  0.1181
   19MOL   C18613182   0.954   4.126   0.996  0.0781 -0.7254  0.4103
   19MOL   C18713183   0.891   4.049   0.902 -0.3400  0.7582  0.0100
   19MOL   C18813184   0.912   4.072   0.752 -0.9950 -0.5056  0.0062
   19MOL   O18913185   0.919   3.977   0.673 -0.1700  0.2834  0.2500
   19MOL   N19013186   0.917   4.199   0.715  0.4104 -0.4966 -0.3703
   19MOL   C19113187   0.943   4.253   0.582 -0.1820 -0.2017 -0.1839
   19MOL   C19213188   1.004   4.395   0.598  1.1029  0.0192  0.5181
   19MOL   C19313189   1.008   4.483   0.473 -0.0688  0.0499 -0.1368
   19MOL   C19413190   1.104   4.603   0.497 -0.3331  0.4715 -0.2872
   19MOL   C19513191   1.111   4.706   0.379  0.2520 -0.0715 -0.4783
   19MOL   C19613192   1.210   4.818   0.412 -0.4835  0.2146 -0.4367
   19MOL   N19713193   1.184   4.929   0.323  0.4747 -0.5930 -0.0473
   19MOL   C19813194   0.814   3.932   0.945 -0.6961  0.3010 -0.2278
   19MOL   C19913195   0.801   3.908   1.087  0.6380  0.4357 -0.4904
   19MOL   H20013196   0.987   4.167   1.213  1.1232 -2.0859  0.6801
   19MOL   H20113197   1.015   4.207   0.962 -1.7131  0.8921  0.9485
   19MOL   H20213198   0.927   4.264   0.791  1.5425  0.7337 -1.5468
   19MOL   H20313199   1.015   4.190   0.529 -0.2895  0.5245 -1.1929
   19MOL   H20413200   0.867   4.246   0.505  0.1139 -1.9463 -0.3529
   19MOL   H20513201   1.104   4.379   0.639  1.7378 -0.6162 -1.2717
   19MOL   H20613202   0.956   4.446   0.682 -0.2643  3.3752 -2.1980
   19MOL   H20713203   1.038   4.423   0.388 -0.0859  1.2553 -1.0096
   19MOL   H20813204   0.904   4.506   0.450 -0.0631 -0.5887 -0.8018
   19MOL   H20913205   1.205   4.563   0.503 -0.8457 -0.6524  1.3507
   19MOL   H21013206   1.075   4.651   0.591 -0.8146 -2.3235  1.0489
   19MOL   H21113207   1.018   4.763   0.373 -1.0687 -1.9578  1.5202
   19MOL   H21213208   1.140   4.657   0.286  1.2177  0.4014 -0.4282
   19MOL   H21313209   1.191   4.833   0.518  0.2342 -0.7659 -0.1710
   19MOL   H21413210   1.311   4.778   0.402  0.3971  1.7329  2.0155
   19MOL   H21513211   1.213   4.928   0.226 -2.1496  0.2989 -0.8896
   19MOL   H21613212   0.768   3.859   0.881 -0.7903 -0.4418  0.6869
   19MOL   H21713213   0.746   3.822   1.123  0.7425  0.8304  0.6212
   19MOL   C21813214   1.140   5.045   0.366 -0.1157  0.8441  0.6519
   19MOL   O21913215   1.100   5.075   0.481  0.6569  0.2170  0.4889
   19MOL   C22013216   1.164   5.156   0.268  0.5946 -0.1090 -0.7947
   19MOL   C22113217   1.292   5.164   0.215  0.4014  0.3819 -0.0179
   19MOL   C22213218   1.338   5.279   0.154 -0.0442  0.4304  0.6151
   19MOL   C22313219   1.264   5.396   0.153 -0.2452  0.3859  0.3943
   19MOL   C22413220   1.330   5.531   0.113 -0.3892  0.1545  0.1070
   19MOL   O22513221   1.451   5.533   0.103  0.0852  0.3598 -0.2549
   19MOL   N22613222   1.247   5.634   0.101 -0.3412  0.4988 -0.2994
   19MOL   C22713223   1.292   5.765   0.036 -0.2623 -0.2165 -0.4725
   19MOL   C22813224   1.185   5.859   7.886  0.0607 -0.0961  0.2029
   19MOL   C22913225   1.046   5.817   7.838 -0.4478 -0.3944 -0.0070
   19MOL   C23013226   1.052   5.745   7.703  0.7296  0.3506 -0.4306
   19MOL   C23113227   0.919   5.706   7.645 -0.3893  0.2429  0.3642
   19MOL   C23213228   0.931   5.617   7.520 -0.1648  0.2343 -0.1584
   19MOL   N23313229   0.799   5.572   7.476  0.4109 -0.2981 -0.0467
   19MOL   C23413230   1.135   5.386   0.206  0.4132  0.2913 -0.2472
   19MOL   C23513231   1.080   5.273   0.263 -0.0967  0.4180  0.1332
   19MOL   H23613232   1.358   5.079   0.217 -1.1075 -0.8115  0.2804
   19MOL   H23713233   1.443   5.280   0.128  0.0590  1.4430  1.0463
   19MOL   H23813234   1.149   5.609   0.093  0.4670 -2.8363 -0.6208
   19MOL   H23913235   1.358   5.817   0.107  0.4906 -1.6339 -0.1231
   19MOL   H24013236   1.351   5.741   7.834  3.8361 -1.6555  2.5067
   19MOL   H24113237   1.214   5.939   7.818 -3.9961  0.9900 -0.3484
   19MOL   H24213238   1.152   5.906   0.092  0.0519  0.5866 -0.1477
   19MOL   H24313239   1.005   5.749   0.027  1.3723 -1.6536 -0.1209
   19MOL   H24413240   0.992   5.911   7.837 -0.4061 -0.3686 -1.0031
   19MOL   H24513241   1.128   5.667   7.708 -0.5674 -1.0608 -2.1349
   19MOL   H24613242   1.094   5.812   7.628  0.5934 -0.7184 -1.4794
   19MOL   H24713243   0.865   5.799   7.625  0.7348  1.2492  1.9083
   19MOL   H24813244   0.862   5.652   7.721  1.4627 -1.8251  0.3135
   19MOL   H24913245   0.977   5.665   7.433 -0.1167 -2.5634 -1.7421
   19MOL   H25013246   0.989   5.528   7.543  1.1566  0.4862 -2.3236
   19MOL   H25113247   0.761   5.514   7.549 -0.1613  0.0988 -0.0250
   19MOL   H25213248   1.076   5.476   0.198 -0.2992 -0.3078 -1.9083
   19MOL   H25313249   0.986   5.279   0.316  0.6904  1.5608  1.4518
   19MOL   C25413250   0.724   5.609   7.369  0.2119  0.4737 -0.0441
   19MOL   O25513251   0.762   5.692   7.287 -0.2286 -0.3327  0.3558
   19MOL   C25613252   0.606   5.526   7.337 -0.3782  0.4145 -0.0384
   19MOL   C25713253   0.501   5.587   7.256  0.0346 -0.5654 -0.1210
   19MOL   C25813254   0.385   5.514   7.221 -0.2787 -0.3150  0.0455
   19MOL   C25913255   0.367   5.380   7.269 -0.0418 -0.3428 -0.1453
   19MOL   C26013256   0.231   5.316   7.247 -0.7726  0.3342  0.2802
   19MOL   O26113257   0.209   5.206   7.296  0.1837 -0.1323 -0.2501
   19MOL   N26213258   0.138   5.382   7.179 -0.3943 -0.0567  0.1510
   19MOL   C26313259   0.005   5.341   7.144 -0.0624 -0.5339 -1.1242
   19MOL   C26413260   7.789   5.391   7.243 -0.4881 -0.5773  0.3637
   19MOL   C26513261   7.781   5.309   7.370 -0.9202  0.4228 -0.0886
   19MOL   C26613262   7.717   5.379   7.494  0.2302  0.1038 -0.0775
   19MOL   C26713263   7.748   5.314   7.627  0.0148 -0.3989 -0.7965
   19MOL   C26813264   7.646   5.202   7.648 -0.4547 -0.0718 -0.4967
   19MOL   N26913265   7.671   5.111   7.760 -0.1948 -0.4027 -0.2865
   19MOL   C27013266   0.476   5.316   7.338 -0.6628  0.8683  0.7865
   19MOL   C27113267   0.596   5.390   7.374 -0.3461 -0.5459 -0.9035
   19MOL   H27213268   0.523   5.681   7.208  0.4759 -0.5864  0.0383
   19MOL   H27313269   0.321   5.566   7.150  1.7652  1.0524 -0.8349
   19MOL   H27413270   0.166   5.467   7.133  2.0682 -1.7554 -1.6595
   19MOL   H27513271   7.863   5.371   7.043 -0.6068  0.8584 -0.5724
   19MOL   H27613272   0.007   5.232   7.143 -2.6091 -0.6328  0.0420
   19MOL   H27713273   7.691   5.398   7.194 -0.6341 -2.0544  0.4056
   19MOL   H27813274   7.805   5.497   7.258  0.5815 -0.3410 -2.3006
   19MOL   H27913275   7.721   5.219   7.357  0.6630 -0.8491  1.2152
   19MOL   H28013276   7.880   5.280   7.407 -0.2948  1.1471 -1.1652
   19MOL   H28113277   7.610   5.389   7.475  0.5308  1.3789 -1.1563
   19MOL   H28213278   7.747   5.483   7.500  1.2962 -0.0367 -2.2451
   19MOL   H28313279   7.716   5.379   7.708  0.6014 -2.3475  1.0398
   19MOL   H28413280   7.854   5.287   7.632  0.3514  1.2802  1.6070
   19MOL   H28513281   7.546   5.243   7.660 -0.5076 -0.1264 -0.7472
   19MOL   H28613282   7.640   5.138   7.559 -1.1357  1.7837 -1.8130
   19MOL   H28713283   7.753   5.051   7.762  0.6887  0.8391  1.3706
   19MOL   H28813284   0.461   5.211   7.361 -2.0072  0.8321 -0.2289
   19MOL   H28913285   0.677   5.337   7.422  0.6958  3.3435  1.8977
   19MOL   C29013286   7.620   5.126   0.002  0.8152  0.3227  0.5854
   19MOL   O29113287   7.542   5.211   0.039 -0.2083  0.7351  0.0919
   19MOL   C29213288   7.673   5.024   0.098  0.3171 -0.3621 -0.2232
   19MOL   C29313289   7.748   4.904   0.068 -0.1317 -0.3049  0.2354
   19MOL   C29413290   7.800   4.810   0.162 -0.0256 -0.0384 -0.3274
   19MOL   C29513291   7.772   4.845   0.295  0.0435 -0.0486  0.4963
   19MOL   C29613292   7.816   4.746   0.406  0.2399  0.3298 -0.8149
   19MOL   O29713293   0.025   4.669   0.386 -0.2523  0.0068 -0.1698
   19MOL   N29813294   7.737   4.737   0.510 -0.6216  0.1351 -0.3626
   19MOL   C29913295   7.722   4.613   0.589  0.1619 -0.4287 -0.9962
   19MOL   C30013296   7.579   4.564   0.562  1.0244  0.1789 -0.2895
   19MOL   C30113297   7.546   4.505   0.423 -0.0272  0.1857  0.0305
   19MOL   C30213298   7.401   4.464   0.381 -0.0140  0.7143  0.2815
   19MOL   C30313299   7.349   4.344   0.463 -0.4227  0.1712  0.0155
   19MOL   C30413300   7.202   4.314   0.453 -0.6965  0.0836 -0.1405
   19MOL   N30513301   7.128   4.401   0.362 -0.7155  0.1286  0.4483
   19MOL   C30613302   7.702   4.958   0.336  0.0765  0.7641  0.0688
   19MOL   C30713303   7.658   5.047   0.240 -0.3675  0.6288  0.6691
   19MOL   H30813304   7.758   4.878   7.850 -1.5030 -1.0945  0.2869
   19MOL   H30913305   7.849   4.723   0.122  0.0910 -0.4606  0.7015
   19MOL   H31013306   7.667   4.808   0.525  1.7976  1.9510  2.8661
   19MOL   H31113307   7.794   4.534   0.568  0.5008  0.0175 -1.5129
   19MOL   H31213308   7.720   4.630   0.697 -1.5637 -0.3990 -1.0165
   19MOL   H31313309   7.510   4.645   0.583  1.6123  1.1416 -1.9350
   19MOL   H31413310   7.534   4.490   0.628 -1.7900 -0.8926 -3.2674
   19MOL   H31513311   7.585   4.581   0.354  0.5752 -1.2041 -1.1752
   19MOL   H31613312   7.609   4.418   0.406 -1.3363 -0.3505 -2.2945
   19MOL   H31713313   7.394   4.453   0.272 -1.1520  0.1869  0.3931
   19MOL   H31813314   7.344   4.554   0.404 -0.1881  0.6720  0.0275
   19MOL   H31913315   7.379   4.356   0.567  2.7846  1.9124 -1.0325
   19MOL   H32013316   7.401   4.254   0.431 -0.9427  0.6687 -2.3373
   19MOL   H32113317   7.171   4.210   0.440 -1.1031  0.0375  1.1130
   19MOL   H32213318   7.157   4.339   0.549  0.5353  0.5777  0.3256
   19MOL   H32313319   7.124   4.499   0.384  1.1990  0.0027  1.4482
   19MOL   H32413320   7.689   4.970   0.443  0.2149 -2.0156  0.4347
   19MOL   H32513321   7.611   5.136   0.280 -1.1226  0.6714 -0.3045
   19MOL   C32613322   7.063   4.376   0.242  0.0582  0.1869 -0.2817
   19MOL   O32713323   7.054   4.266   0.188  0.5625  0.1830  0.3025
   19MOL   C32813324   7.006   4.495   0.184  0.2503  0.4324 -0.2659
   19MOL   C32913325   6.961   4.491   0.054 -0.0027  0.3693  0.8930
   19MOL   C33013326   6.912   4.604   7.875 -0.0460 -0.3119 -0.5604
   19MOL   C33113327   6.906   4.725   0.062 -0.2154 -0.2336 -0.1406
   19MOL   C33213328   6.859   4.851   7.883 -0.5282  0.3950 -0.3433
   19MOL   O33313329   6.935   4.910   7.807 -0.1602 -0.3091  0.3443
   19MOL   N33413330   6.733   4.876   0.019 -0.6976  0.4210  0.1701
   19MOL   C33513331   6.674   4.987   7.835 -0.3830 -0.1759 -0.0456
   19MOL   C33613332   6.653   5.117   0.035 -0.3241 -0.7375 -0.0703
   19MOL   C33713333   6.570   5.216   7.846  0.6350 -0.7644 -0.2533
   19MOL   C33813334   6.414   5.187   7.859  0.2985  0.2106 -0.3159
   19MOL   C33913335   6.323   5.270   7.776 -0.9076  0.0625 -0.0732
   19MOL   C34013336   6.303   5.213   7.634  0.4494 -0.1121  0.7123
   19MOL   N34113337   6.418   5.209   7.544  0.2667  0.5209 -0.0184
   19MOL   C34213338   6.948   4.730   0.196  0.3232 -0.2005  0.3728
   19MOL   C34313339   7.003   4.617   0.256  0.2098 -0.4088 -0.2450
   19MOL   H34413340   6.975   4.398   0.002 -0.8425  2.8286 -4.0342
   19MOL   H34513341   6.891   4.603   7.769  1.9170  6.1496 -1.2975
   19MOL   H34613342   6.679   4.821   0.084 -1.3324 -0.2701 -0.9298
   19MOL   H34713343   6.733   5.011   7.747 -0.4251 -1.7564 -0.5224
   19MOL   H34813344   6.586   4.966   7.774 -1.8373  1.2415  1.5256
   19MOL   H34913345   6.743   5.173   0.062 -0.4811 -1.8718  2.9733
   19MOL   H35013346   6.612   5.093   0.133  1.2122  0.4272  0.8757
   19MOL   H35113347   6.578   5.314   0.007 -2.2280  0.3955 -2.0108
   19MOL   H35213348   6.607   5.227   7.744  1.6625 -0.5244  0.1462
   19MOL   H35313349   6.390   5.198   0.079  1.7702 -1.2475  0.1992
   19MOL   H35413350   6.398   5.084   7.826  2.1297 -0.8692  1.9906
   19MOL   H35513351   6.365   5.370   7.784  1.9848 -1.3033  2.9573
   19MOL   H35613352   6.232   5.277   7.835  0.2013  3.0746  1.3929
   19MOL   H35713353   6.255   5.115   7.640  0.0101 -0.0063 -0.8854
   19MOL   H35813354   6.228   5.279   7.591  2.9471  1.1413 -1.8476
   19MOL   H35913355   6.450   5.119   7.509  1.5168  1.2635 -0.8676
   19MOL   H36013356   6.949   4.816   0.261  1.5461  1.6136 -1.9539
   19MOL   H36113357   7.039   4.621   0.358 -2.6638  2.6532  0.7317
   19MOL   C36213358   6.477   5.313   7.488  0.5888  0.3805  0.0461
   19MOL   O36313359   6.453   5.428   7.517 -0.0528 -0.4321  0.3416
   19MOL   C36413360   6.598   5.290   7.408 -0.6170 -1.1401  0.6747
   19MOL   C36513361   6.714   5.364   7.438 -0.4384 -0.6258  0.1709
   19MOL   C36613362   6.832   5.338   7.365  1.6607  0.0071 -1.1130
   19MOL   C36713363   6.834   5.232   7.271 -0.4972 -0.5506 -0.4308
   19MOL   C36813364   6.958   5.200   7.191 -0.4870  0.7899 -0.5634
   19MOL   O36913365   6.952   5.182   7.072  0.4500 -0.1527  0.6220
   19MOL   N37013366   7.063   5.183   7.274  0.0600 -0.8640  0.4516
   19MOL   C37113367   7.202   5.144   7.231  0.1689 -0.3382 -0.4683
   19MOL   C37213368   7.312   5.240   7.285  0.5895 -0.0299  0.8583
   19MOL   C37313369   7.290   5.385   7.234 -0.0974  0.0424  0.4275
   19MOL   C37413370   7.397   5.472   7.304 -0.0189 -0.1960  0.3530
   19MOL   C37513371   7.373   5.619   7.264 -0.0324 -0.4252  0.2682
   19MOL   C37613372   7.264   5.683   7.356  0.7483 -0.7150  0.2532
   19MOL   N37713373   7.256   5.825   7.328  0.2821 -0.1918  0.0288
   19MOL   C37813374   6.710   5.182   7.226 -0.9829 -0.4294 -0.0398
   19MOL   C37913375   6.591   5.201   7.297  0.7234 -0.0717  0.5412
   19MOL   H38013376   6.729   5.428   7.523  0.9365  1.4870 -1.5990
   19MOL   H38113377   6.930   5.383   7.374  2.5215 -1.7256 -1.5186
   19MOL   H38213378   7.052   5.191   7.374 -0.7780 -1.7700  0.4403
   19MOL   H38313379   7.220   5.051   7.285  1.2988 -0.7183 -1.4786
   19MOL   H38413380   7.216   5.115   7.127  0.9176 -0.0513 -0.4540
   19MOL   H38513381   7.402   5.206   7.233  0.3312 -2.4916  1.9466
   19MOL   H38613382   7.333   5.240   7.392 -0.3154 -1.0664  1.0535
   19MOL   H38713383   7.310   5.387   7.126  1.8278  0.7943  0.7880
   19MOL   H38813384   7.190   5.425   7.250 -0.2012  0.3324 -0.8481
   19MOL   H38913385   7.497   5.447   7.267  0.9200  0.6262  2.2966
   19MOL   H39013386   7.398   5.465   7.412 -0.5642  0.0079  0.3718
   19MOL   H39113387   7.346   5.632   7.160 -1.9624 -1.1926  0.6563
   19MOL   H39213388   7.458   5.685   7.284 -0.4151 -0.1425  0.9668
   19MOL   H39313389   7.170   5.628   7.361 -0.2197  0.9320  0.4309
   19MOL   H39413390   7.303   5.676   7.457  1.3752  2.3135  0.2469
   19MOL   H39513391   7.309   5.856   7.248 -0.5275  0.0019 -0.4318
   19MOL   H39613392   6.702   5.106   7.150 -0.2933  0.3297 -0.8863
   19MOL   H39713393   6.495   5.155   7.279  0.2057  0.1621  2.5153
   19MOL   C39813394   7.153   5.901   7.368 -0.1150 -0.3398 -0.2203
   19MOL   O39913395   7.065   5.860   7.441 -0.2383 -0.1651 -0.0069
   19MOL   C40013396   7.128   6.025   7.281 -0.5087 -0.9407  0.4613
   19MOL   C40113397   7.001   6.081   7.269  0.1938 -1.2123 -0.2585
   19MOL   C40213398   6.981   6.202   7.203 -0.3034 -0.1077  0.0022
   19MOL   C40313399   7.089   6.277   7.143  0.1998  0.4086  0.8126
   19MOL   C40413400   7.060   6.401   7.065 -0.2887 -0.2417  0.1500
   19MOL   O40513401   6.952   6.425   7.018 -0.2755 -0.1175 -0.1376
   19MOL   N40613402   7.168   6.469   7.038  0.3337  0.1763  0.1605
   19MOL   C40713403   7.173   6.581   6.941 -0.5648 -0.2803 -0.2378
   19MOL   C40813404   7.234   6.524   6.818 -0.7060 -0.1353 -0.1964
   19MOL   C40913405   7.265   6.629   6.708  0.3916  0.0409  0.4362
   19MOL   C41013406   7.371   6.581   6.609  0.4891 -0.0945  0.5096
   19MOL   C41113407   7.434   6.690   6.520 -0.2212  0.0864  0.3184
   19MOL   C41213408   7.506   6.813   6.574  0.6039 -0.7672 -0.4487
   19MOL   N41313409   7.617   6.764   6.650  0.5658  0.3433  0.4842
   19MOL   C41413410   7.218   6.214   7.147 -0.3486  0.4759  0.0248
   19MOL   C41513411   7.236   6.091   7.221 -0.4763 -0.1929 -0.1750
   19MOL   H41613412   6.917   6.025   7.307  0.0786  0.6410  2.3249
   19MOL   H41713413   6.884   6.251   7.203  0.2123  0.9469  0.5601
   19MOL   H41813414   7.257   6.431   7.068  1.2624  0.8245 -1.6364
   19MOL   H41913415   7.078   6.627   6.917  0.6454  2.1489 -0.5754
   19MOL   H42013416   7.235   6.660   6.985 -0.6079 -0.4796  0.1819
   19MOL   H42113417   7.179   6.435   6.790  1.1630 -1.7597  1.1189
   19MOL   H42213418   7.331   6.488   6.853 -0.6394 -1.1170 -1.3884
   19MOL   H42313419   7.171   6.645   6.655 -0.1096 -0.1911  1.2406
   19MOL   H42413420   7.302   6.719   6.756 -0.8761  0.6994  0.2027
   19MOL   H42513421   7.337   6.501   6.543 -0.2810  1.1645 -0.6519
   19MOL   H42613422   7.460   6.542   6.657 -0.6508 -3.2759  0.1234
   19MOL   H42713423   7.349   6.709   6.454 -2.2567 -0.6125  2.6904
   19MOL   H42813424   7.501   6.635   6.453 -0.2251 -1.1262  1.2964
   19MOL   H42913425   7.522   6.877   6.487  0.4153 -0.5470 -0.3227
   19MOL   H43013426   7.443   6.866   6.645 -2.8788 -4.4857 -0.5586
   19MOL   H43113427   7.596   6.765   6.749  0.7369  2.5547  0.5223
   19MOL   H43213428   7.300   6.249   7.087  0.6875 -0.5456  0.8219
   19MOL   H43313429   7.334   6.048   7.221  0.8840  2.5838  3.0535
   19MOL   C43413430   7.739   6.720   6.608 -1.4734 -0.6160 -0.1446
   19MOL   O43513431   7.769   6.717   6.489  0.2579  0.4817  0.9191
   19MOL   C43613432   7.830   6.675   6.721  0.9674 -0.1515 -0.7926
   19MOL   C43713433   7.775   6.600   6.834 -0.1088 -0.2528 -0.2212
   19MOL   C43813434   7.863   6.544   6.925  0.4192 -0.3817  0.2722
   19MOL   C43913435   0.116   6.552   6.907 -0.2967  0.3311 -0.3765
   19MOL   C44013436   0.209   6.490   7.007  0.6583 -0.6129  0.4779
   19MOL   O44113437   0.325   6.535   7.013 -0.0298 -0.1554 -0.0551
   19MOL   N44213438   0.163   6.394   7.081  0.2942 -0.3219  0.0702
   19MOL   C44313439   0.235   6.316   7.184 -0.0299  0.3218  0.3187
   19MOL   C44413440   0.132   6.244   7.274 -0.2852 -0.4675  0.6231
   19MOL   C44513441   0.202   6.133   7.352 -0.0932  0.3539 -0.0012
   19MOL   C44613442   0.296   6.180   7.462 -0.2925  0.5231 -0.0745
   19MOL   C44713443   0.255   6.288   7.566  0.6136  0.1626 -0.2246
   19MOL   C44813444   0.356   6.316   7.677  0.1089 -0.7014  0.9623
   19MOL   N44913445   0.492   6.354   7.624 -0.1900 -0.5229  0.1041
   19MOL   C45013446   0.166   6.636   6.810 -0.0358 -0.1572  0.0355
   19MOL   C45113447   0.082   6.692   6.712  0.0551 -0.4365 -0.5523
   19MOL   H45213448   7.670   6.577   6.840 -0.1443 -0.1452 -0.4319
   19MOL   H45313449   7.815   6.493   7.008  0.8788 -1.0773  0.1178
   19MOL   H45413450   0.067   6.380   7.052  0.5321 -0.1388 -0.8280
   19MOL   H45513451   0.302   6.243   7.139 -1.1937 -1.5901  1.5565
   19MOL   H45613452   0.305   6.381   7.235  0.3707 -0.2696  0.5286
   19MOL   H45713453   0.047   6.209   7.216 -1.8841  0.9708  2.0271
   19MOL   H45813454   0.085   6.320   7.336  1.0982 -0.1174  1.2739
   19MOL   H45913455   0.129   6.074   7.408 -0.2677 -0.9480 -1.5601
   19MOL   H46013456   0.231   6.051   7.287 -1.1237  0.4271 -0.5605
   19MOL   H46113457   0.393   6.214   7.427  1.1620 -1.4631  1.9163
   19MOL   H46213458   0.320   6.094   7.525 -1.4732  0.8303  0.8173
   19MOL   H46313459   0.170   6.249   7.623  0.5839  1.9237  0.9884
   19MOL   H46413460   0.226   6.380   7.516 -2.9997  0.0258  1.4605
   19MOL   H46513461   0.303   6.394   7.731  0.9766  1.7407 -1.6035
   19MOL   H46613462   0.352   6.227   7.741 -2.8190 -0.7694  0.7443
   19MOL   H46713463   0.562   6.281   7.636  0.1207 -0.6349 -2.0978
   19MOL   H46813464   0.271   6.650   6.790 -0.0798  2.1292  1.2008
   19MOL   H46913465   0.124   6.738   6.624  1.0278 -1.8586 -0.8408
   19MOL   C47013466   0.523   6.465   7.554 -0.2158  0.2657  0.2771
   19MOL   O47113467   0.446   6.559   7.533  0.1711 -0.0333 -0.4043
   19MOL   C47213468   0.660   6.460   7.491 -0.5032  0.3597 -0.0561
   19MOL   C47313469   0.729   6.336   7.468 -0.5719  0.0395  0.1705
   19MOL   C47413470   0.857   6.337   7.403  0.3348  0.5117  0.2375
   19MOL   C47513471   0.920   6.461   7.366  0.6973 -0.3983  0.7542
   19MOL   C47613472   1.056   6.459   7.299  0.0518  0.3316 -0.2090
   19MOL   O47713473   1.153   6.392   7.346 -0.2173 -0.1498 -0.0566
   19MOL   N47813474   1.054   6.510   7.177  0.6528  0.3594 -0.0068
   19MOL   C47913475   1.163   6.510   7.082  0.4977 -0.1733  0.3846
   19MOL   C48013476   1.109   6.549   6.944 -0.2071 -0.8603  0.0246
   19MOL   C48113477   0.992   6.460   6.900 -0.0158  0.0653  0.4159
   19MOL   C48213478   0.930   6.490   6.761  0.5162 -0.8575  0.1729
   19MOL   C48313479   0.849   6.620   6.754  0.0962 -0.0424 -0.1823
   19MOL   C48413480   0.854   6.692   6.617  0.0169 -0.2023  0.4831
   19MOL   N48513481   0.776   6.813   6.624 -0.2273  0.6778  0.1712
   19MOL   C48613482   0.848   6.580   7.380 -0.6062 -0.8139  0.4481
   19MOL   C48713483   0.715   6.580   7.438 -0.1053  0.1205 -0.1445
   19MOL   H48813484   0.701   6.236   7.499 -0.7829  0.2345  0.6184
   19MOL   H48913485   0.906   6.241   7.399  0.1435  0.4686 -1.2814
   19MOL   H49013486   0.967   6.551   7.148 -0.3745 -0.4984  1.7485
   19MOL   H49113487   1.235   6.580   7.125  0.3896  1.1841 -1.5837
   19MOL   H49213488   1.215   6.414   7.086 -1.2290 -1.2000 -1.1198
   19MOL   H49313489   1.192   6.526   6.877  0.1060 -1.0234  0.4692
   19MOL   H49413490   1.084   6.655   6.933 -1.5234 -1.2982 -1.3616
   19MOL   H49513491   1.030   6.357   6.898 -0.8745 -0.2908  1.7696
   19MOL   H49613492   0.913   6.454   6.975 -0.7243 -0.5807 -0.3636
   19MOL   H49713493   0.869   6.409   6.720 -2.8529  1.2970  0.7379
   19MOL   H49813494   1.012   6.502   6.691  0.2835  0.4964  0.1301
   19MOL   H49913495   0.883   6.696   6.824 -0.1959  0.4579 -0.5794
   19MOL   H50013496   0.747   6.594   6.784  0.6428 -1.5109  0.4578
   19MOL   H50113497   0.955   6.725   6.593 -0.5013  0.5279 -0.7350
   19MOL   H50213498   0.819   6.619   6.545 -0.4472  0.0321  0.4709
   19MOL   H50313499   0.811   6.885   6.686 -0.0741  2.3366 -1.7617
   19MOL   H50413500   0.881   6.676   7.344 -0.2690 -1.1843 -0.2305
   19MOL   H50513501   0.665   6.675   7.448 -1.9693 -0.7924 -0.5930
   19MOL   C50613502   0.677   6.841   6.551 -0.4485 -0.2235 -1.2638
   19MOL   O50713503   0.625   6.760   6.479  0.1906 -0.5490 -0.0572
   19MOL   C50813504   0.629   6.982   6.547  0.3275 -0.3580 -0.4265
   19MOL   C50913505   0.671   7.080   6.638 -0.4712 -0.1840  0.4898
   19MOL   C51013506   0.650   7.218   6.604 -0.5619 -0.0809  0.1224
   19MOL   C51113507   0.588   7.257   6.488 -0.2500 -0.0521  1.0913
   19MOL   C51213508   0.576   7.402   6.467  0.4201 -0.4674  0.4855
   19MOL   O51313509   0.487   7.449   6.387  0.3355 -0.2224  0.6781
   19MOL   N51413510   0.668   7.476   6.519  0.3154  1.0667 -0.0833
   19MOL   C51513511   0.685   7.623   6.522  0.3307  0.1627  0.0710
   19MOL   C51613512   0.720   7.671   6.660 -0.2565 -0.1594  1.1895
   19MOL   C51713513   0.655   7.596   6.770  0.0295 -0.3645 -0.2059
   19MOL   C51813514   0.507   7.592   6.786  0.1253 -0.7011  0.3933
   19MOL   C51913515   0.464   7.501   6.902  0.0233  0.7563  0.7441
   19MOL   C52013516   0.319   7.533   6.954 -0.5959  0.0350  0.7430
   19MOL   N52113517   0.292   7.468   7.083  0.1268  0.2698 -0.2687
   19MOL   C52213518   0.544   7.161   6.395 -0.0007 -0.2765 -0.0912
   19MOL   C52313519   0.571   7.027   6.430 -0.1602 -0.8857 -0.0794
   19MOL   H52413520   0.737   7.047   6.718  0.3657 -2.0351 -0.9235
   19MOL   H52513521   0.694   7.287   6.675 -0.5714  2.0014 -1.8718
   19MOL   H52613522   0.743   7.417   6.553 -1.7848 -1.2688  0.7187
   19MOL   H52713523   0.750   7.669   6.448  0.1034  0.4927  0.0744
   19MOL   H52813524   0.593   7.674   6.494 -0.1253 -0.7362 -0.0988
   19MOL   H52913525   0.704   7.778   6.668  1.0331  0.0267  1.3498
   19MOL   H53013526   0.829   7.664   6.671  0.2583  0.1912 -2.9804
   19MOL   H53113527   0.694   7.496   6.783  1.2837  0.1533  0.1080
   19MOL   H53213528   0.703   7.649   6.853 -0.8769 -2.0303  1.3984
   19MOL   H53313529   0.458   7.559   6.694 -1.1429 -0.7414  1.0793
   19MOL   H53413530   0.468   7.693   6.798 -2.1675 -1.5145  0.0565
   19MOL   H53513531   0.531   7.525   6.985  0.3014  0.5828  0.5713
   19MOL   H53613532   0.470   7.394   6.885 -1.0748  0.7007  0.6782
   19MOL   H53713533   0.310   7.641   6.967  1.2665  0.1040  1.6171
   19MOL   H53813534   0.245   7.502   6.880 -0.4316 -1.6725  1.2711
   19MOL   H53913535   0.275   7.369   7.095  1.3395 -0.0578 -1.1812
   19MOL   H54013536   0.495   7.195   6.305 -0.1355 -1.1709 -0.3610
   19MOL   H54113537   0.534   6.947   6.367 -0.2874 -0.4083 -0.6128
   19MOL   C54213538   0.308   7.517   7.206  0.4299 -0.0306  0.5715
   19MOL   O54313539   0.297   7.636   7.225 -0.4051 -0.1110 -0.4930
   19MOL   C54413540   0.317   7.406   7.309  0.4498  0.1262 -0.4489
   19MOL   C54513541   0.281   7.441   7.444 -0.4123 -0.4255  0.6809
   19MOL   C54613542   0.271   7.351   7.547 -0.2610  0.2695  0.5613
   19MOL   C54713543   0.317   7.221   7.525 -0.3110  0.5135  0.2214
   19MOL   C54813544   0.302   7.125   7.639  0.5818  0.7682 -0.5046
   19MOL   O54913545   0.288   7.162   7.754  0.8219  0.1915 -0.3025
   19MOL   N55013546   0.289   6.997   7.601  0.1828  0.4175  0.3293
   19MOL   C55113547   0.280   6.878   7.693 -0.5242 -0.5221  0.6743
   19MOL   C55213548   0.148   6.869   7.776 -0.2260 -0.1271  0.6823
   19MOL   C55313549   0.023   6.827   7.702  0.0979  0.0177 -0.2204
   19MOL   C55413550   7.781   6.819   7.783 -0.1680 -0.2932 -0.2785
   19MOL   C55513551   7.726   6.965   7.827  0.2620  0.3444  0.3550
   19MOL   C55613552   7.581   6.963   7.873  0.3629 -0.1050 -0.0058
   19MOL   N55713553   7.545   7.103   0.013  0.5251 -0.2159  0.2261
   19MOL   C55813554   0.366   7.188   7.395  0.3640  0.6517 -0.7418
   19MOL   C55913555   0.367   7.277   7.286  0.1258  0.2188 -0.1823
   19MOL   H56013556   0.248   7.541   7.467  1.1845  0.0206  1.1389
   19MOL   H56113557   0.227   7.377   7.642 -0.7727  0.2201  0.3397
   19MOL   H56213558   0.304   6.973   7.504  1.4560  1.8556  0.1458
   19MOL   H56313559   0.283   6.784   7.637  1.9315  0.4105 -0.8093
   19MOL   H56413560   0.370   6.858   7.752  1.5686  2.2565 -1.4393
   19MOL   H56513561   0.128   6.965   7.824 -0.7901 -0.2125  0.6163
   19MOL   H56613562   0.163   6.801   7.859  1.5710  0.6193  0.9998
   19MOL   H56713563   0.013   6.888   7.613 -1.3870 -0.4179 -0.3710
   19MOL   H56813564   0.051   6.728   7.665 -1.4735 -0.9539  1.0987
   19MOL   H56913565   7.775   6.748   7.865  2.2956  0.5774  0.7194
   19MOL   H57013566   7.708   6.774   7.715  0.8006 -1.1607 -0.7802
   19MOL   H57113567   7.747   7.038   7.749  0.5792  0.9283  0.9810
   19MOL   H57213568   7.785   7.010   0.021  0.1608  1.6723 -0.3146
   19MOL   H57313569   7.526   6.920   7.790 -1.7832 -0.0015  1.3213
   19MOL   H57413570   7.571   6.903   0.078  1.7366  1.0827  0.9530
   19MOL   H57513571   7.620   7.170   0.024  0.2598 -0.1617  1.8359
   19MOL   H57613572   0.404   7.090   7.372 -2.8279 -0.2710 -2.3656
   19MOL   H57713573   0.411   7.252   7.190 -2.3805 -0.1926 -1.2440
   19MOL   C57813574   7.419   7.151   0.023  0.3059 -0.2101 -0.2944
   19MOL   O57913575   7.312   7.092   0.018  0.5295  0.1057  0.4210
   19MOL   C58013576   7.424   7.294   0.033  0.0982 -0.5201 -0.5240
   19MOL   C58113577   7.507   7.359   0.131  0.4672 -0.6043 -0.3421
   19MOL   C58213578   7.509   7.493   0.139  0.5449  0.4772 -0.2370
   19MOL   C58313579   7.437   7.575   0.051  0.5079 -0.2896 -0.0592
   19MOL   C58413580   7.430   7.725   0.069 -0.1428  0.0195  0.1551
   19MOL   O58513581   7.429   7.802   7.858 -0.6019  0.0006 -0.6374
   19MOL   N58613582   7.405   7.758   0.198 -1.3579 -0.7269 -0.6097
   19MOL   C58713583   7.418   0.012   0.244  0.0928 -0.8098  0.3466
   19MOL   C58813584   7.555   0.079   0.221  0.3709  0.3678  0.2556
   19MOL   C58913585   7.667   0.036   0.309  0.2691  0.0524  0.3335
   19MOL   C59013586   7.748   7.808   0.256  0.2969 -0.3024 -0.0866
   19MOL   C59113587   7.865   7.754   0.343  0.1362  0.0767  0.6362
   19MOL   C59213588   0.109   7.824   0.314 -0.1878  0.0019  0.2465
   19MOL   N59313589   0.126   0.079   0.357  0.7053  0.6209 -0.0314
   19MOL   C59413590   7.359   7.512   7.834  0.5203  0.2432  0.0217
   19MOL   C59513591   7.354   7.373   7.824 -0.2626  0.2525 -0.1477
   19MOL   H59613592   7.558   7.290   0.197  0.0532 -2.4384 -1.9019
   19MOL   H59713593   7.568   7.536   0.219 -1.5930  1.8452  0.6386
   19MOL   H59813594   7.403   7.696   0.277  1.4377 -0.6859 -0.4458
   19MOL   H59913595   7.343   0.078   0.200  4.6095  2.7947 -2.4923
   19MOL   H60013596   7.396   0.020   0.350 -2.4437 -1.4819 -0.0849
   19MOL   H60113597   7.542   0.184   0.248  1.8845  0.6371 -0.0548
   19MOL   H60213598   7.580   0.073   0.115  1.5698  1.1534  0.4919
   19MOL   H60313599   7.725   0.123   0.341 -2.2314  1.7083  0.5175
   19MOL   H60413600   7.623   7.883   0.401  2.2867 -0.3117  1.1664
   19MOL   H60513601   7.793   7.849   0.166  1.4720 -0.8483  0.2394
   19MOL   H60613602   7.680   7.725   0.234 -0.6871  0.6797 -0.7966
   19MOL   H60713603   7.868   7.646   0.327  1.1139  0.3137 -0.9132
   19MOL   H60813604   7.845   7.761   0.450 -1.4235 -0.3029  0.3693
   19MOL   H60913605   0.193   7.769   0.357 -0.3284  1.7614  2.9160
   19MOL   H61013606   0.136   7.831   0.209  1.5468 -0.0571  0.6758
   19MOL   H61113607   0.105   0.154   0.292 -0.4671  0.4132  0.0859
   19MOL   H61213608   7.308   7.569   7.757  1.9512  2.1277  0.4217
   19MOL   H61313609   7.302   7.328   7.740  1.4813  0.8321 -1.5909
   19MOL   C61413610   0.160   0.110   0.479 -0.7129 -0.2963  0.5401
   19MOL   O61513611   0.212   0.033   0.565 -0.2662  0.3731  0.2519
   19MOL   C61613612   0.131   0.252   0.520 -0.3615  0.0561 -0.7633
   19MOL   C61713613   0.057   0.341   0.439  0.4387 -0.3716  0.1391
   19MOL   C61813614   0.033   0.472   0.485 -0.4872  0.2811 -0.1651
   19MOL   C61913615   0.083   0.525   0.609 -0.6834 -0.2700 -0.3874
   19MOL   C62013616   0.049   0.667   0.652  0.1777  0.4226  0.2490
   19MOL   O62113617   0.024   0.753   0.570 -0.0473 -0.9047  0.4249
   19MOL   N62213618   0.052   0.687   0.785  0.4388 -0.0237  0.1372
   19MOL   C62313619   0.026   0.817   0.852  0.2134 -0.4798  0.5467
   19MOL   C62413620   7.820   0.781   0.973 -0.1715  0.5964 -0.1641
   19MOL   C62513621   7.778   0.910   1.056  0.4355  0.6003  0.5059
   19MOL   C62613622   7.681   0.874   1.165  0.1588  0.5629 -0.1653
   19MOL   C62713623   7.737   0.789   1.281  0.3274  0.4469 -0.0113
   19MOL   C62813624   7.623   0.766   1.383  0.1464  0.0060 -0.5645
   19MOL   N62913625   7.661   0.656   1.486  0.2899  0.0945  0.2745
   19MOL   C63013626   0.160   0.437   0.687 -0.0557  0.3513  0.6362
   19MOL   C63113627   0.172   0.301   0.645  0.0053 -0.8316  0.3695
   19MOL   H63213628   0.020   0.309   0.343  1.9558 -0.8037 -0.3122
   19MOL   H63313629   7.864   0.532   0.414 -1.7664 -1.1009 -0.3472
   19MOL   H63413630   0.083   0.610   0.843  2.7432 -0.4251 -1.5383
   19MOL   H63513631   0.127   0.852   0.873  0.1541 -0.3089  0.5459
   19MOL   H63613632   7.858   0.882   0.783 -0.8878 -1.0078  0.8997
   19MOL   H63713633   7.880   0.714   1.034 -1.5249  1.0690  1.7357
   19MOL   H63813634   7.738   0.715   0.943 -0.2248  0.6404 -0.1158
   19MOL   H63913635   7.871   0.943   1.103  0.9642  0.2177 -0.2661
   19MOL   H64013636   7.739   0.996   1.002 -0.0788  0.2307  0.2864
   19MOL   H64113637   7.585   0.842   1.124 -0.2408  0.8451  0.5429
   19MOL   H64213638   7.666   0.973   1.208  3.6317  1.6592 -1.3410
   19MOL   H64313639   7.822   0.828   1.337 -0.0867 -0.0802  0.9776
   19MOL   H64413640   7.764   0.689   1.248 -0.2949  0.8465 -1.8303
   19MOL   H64513641   7.587   0.856   1.433 -0.4108  0.2549 -1.4018
   19MOL   H64613642   7.530   0.732   1.339 -0.9800  3.0448 -0.6717
   19MOL   H64713643   7.748   0.613   1.458  0.2412  1.0251 -1.3727
   19MOL   H64813644   0.193   0.457   0.788  2.9456  0.4187 -0.3026
   19MOL   H64913645   0.224   0.226   0.703 -0.4884 -1.9538 -0.6049
   19MOL   C65013646   7.606   0.639   1.609 -0.1156 -0.8331  0.1019
   19MOL   O65113647   7.495   0.685   1.637  0.1653 -0.1478  0.0389
   19MOL   C65213648   7.675   0.548   1.707  0.5165  0.5448  0.5661
   19MOL   C65313649   7.602   0.452   1.776 -0.3952  0.2820 -0.0278
   19MOL   C65413650   7.663   0.376   1.881 -0.7291 -0.1241  0.8762
   19MOL   C65513651   7.796   0.397   1.915  0.1631  0.3800 -0.4452
   19MOL   C65613652   7.852   0.334   2.041  0.2168  0.1043  0.1273
   19MOL   O65713653   0.090   0.320   2.044 -0.4569 -0.4301  0.2331
   19MOL   N65813654   7.768   0.312   2.142 -0.1897  0.0964 -0.4305
   19MOL   C65913655   7.827   0.270   2.268  0.3055  0.3093  0.2598
   19MOL   C66013656   7.817   0.114   2.314  0.6834  0.2299 -0.2881
   19MOL   C66113657   7.676   0.075   2.354 -0.3717  0.5971 -0.1556
   19MOL   C66213658   7.642   0.101   2.500 -0.1959 -0.5308 -0.6019
   19MOL   C66313659   7.686   7.881   2.597 -0.0437 -0.4644 -0.0594
   19MOL   C66413660   7.634   0.012   2.739 -0.3419  0.9159  0.4776
   19MOL   N66513661   7.490   7.882   2.750  0.3193 -0.4740  0.4679
   19MOL   C66613662   7.876   0.476   1.828  1.0296 -0.1125 -0.1902
   19MOL   C66713663   7.812   0.564   1.737  0.6602  0.1345  0.1662
   19MOL   H66813664   7.495   0.445   1.759 -0.2022 -2.8471 -0.2416
   19MOL   H66913665   7.608   0.297   1.929 -1.4566  1.2418  2.3515
   19MOL   H67013666   7.668   0.323   2.131 -0.6367 -2.0274  1.1887
   19MOL   H67113667   0.044   0.302   2.284 -0.1699  2.1839 -0.3641
   19MOL   H67213668   7.775   0.333   2.341 -2.0256 -4.0752  2.6425
   19MOL   H67313669   0.008   0.092   2.388  0.9818 -3.3757 -1.5928
   19MOL   H67413670   7.830   0.065   2.218 -3.6257 -1.5017 -0.0970
   19MOL   H67513671   7.603   0.117   2.285 -0.3756  0.5425 -0.1849
   19MOL   H67613672   7.664   7.855   2.334  1.4364  0.7850 -2.3848
   19MOL   H67713673   7.534   0.088   2.502 -0.2476 -0.1053 -0.4836
   19MOL   H67813674   7.676   0.200   2.533  0.3494 -0.1403 -2.2866
   19MOL   H67913675   7.795   7.879   2.603 -0.0343 -1.9181 -0.7275
   19MOL   H68013676   7.648   7.787   2.559  0.1163 -0.8136  0.6455
   19MOL   H68113677   7.669   7.814   2.799  1.2015  0.8663 -0.4609
   19MOL   H68213678   7.682   0.100   2.782  2.6190 -0.5644  0.3271
   19MOL   H68313679   7.456   7.788   2.733 -0.6119 -0.1014  0.2064
   19MOL   H68413680   0.097   0.476   1.840  0.9485  2.4528  0.7757
   19MOL   H68513681   7.864   0.639   1.679  1.1031 -0.0654  0.3021
   19MOL   C68613682   7.409   0.096   2.777 -0.0308 -0.0966  0.0087
   19MOL   O68713683   7.440   0.216   2.783 -0.5415 -0.0767  0.3534
   19MOL   C68813684   7.261   0.052   2.800 -1.0882 -0.1902 -0.5175
   19MOL   C68913685   7.157   0.127   2.750 -1.4358 -0.5136 -0.6213
   19MOL   C69013686   7.022   0.092   2.769 -0.2169 -0.5251  0.2859
   19MOL   C69113687   6.987   7.866   2.855  0.4707 -0.0707  0.3055
   19MOL   C69213688   6.843   7.823   2.885 -0.2999 -0.3134 -0.0894
   19MOL   O69313689   6.803   7.708   2.904 -0.4701  0.1760 -0.2425
   19MOL   N69413690   6.764   0.046   2.893  0.7227  0.6960  0.4165
   19MOL   C69513691   6.632   0.040   2.954 -0.3976  0.1799  0.0564
   19MOL   C69613692   6.542   0.161   2.924  0.2129  0.0650 -0.2155
   19MOL   C69713693   6.398   0.141   2.979  0.4040 -1.0143  0.1002
   19MOL   C69813694   6.395   0.145   3.129 -0.1392  0.4758  0.7328
   19MOL   C69913695   6.251   0.170   3.183 -0.1470 -0.1717  0.0578
   19MOL   C70013696   6.260   0.188   3.331  0.8387 -0.2529  0.5000
   19MOL   N70113697   6.140   0.183   3.405 -0.1137 -0.4349  0.1478
   19MOL   C70213698   7.096   7.784   2.900 -0.0434 -0.1240  0.3387
   19MOL   C70313699   7.231   7.820   2.877  0.2426 -0.0144 -0.0586
   19MOL   H70413700   7.184   0.212   2.689  0.2605 -0.1491  0.6200
   19MOL   H70513701   6.954   0.159   2.720  0.2567 -0.9519 -0.9672
   19MOL   H70613702   6.814   0.132   2.910  0.6276  0.4444  2.0042
   19MOL   H70713703   6.582   7.836   2.917  0.6443  0.5428 -2.3086
   19MOL   H70813704   6.641   0.028   3.062  0.8106 -0.6248 -0.1275
   19MOL   H70913705   6.552   0.165   2.815  3.1286  0.8731  0.0176
   19MOL   H71013706   6.584   0.258   2.952  0.6568 -0.3262  0.4754
   19MOL   H71113707   6.324   0.202   2.927  1.4128  0.3122  0.2032
   19MOL   H71213708   6.356   0.046   2.945 -3.8442  0.8632 -0.2508
   19MOL   H71313709   6.459   0.224   3.170  0.1988  0.2994  0.5490
   19MOL   H71413710   6.431   0.051   3.171  1.2192 -0.0190 -1.4605
   19MOL   H71513711   6.197   0.081   3.150  0.6039 -1.0291  1.1077
   19MOL   H71613712   6.213   0.265   3.146 -1.7128 -0.7222  0.2361
   19MOL   H71713713   6.327   0.106   3.358  1.4585  0.1441  0.1790
   19MOL   H71813714   6.314   0.280   3.350  0.6673  0.2310 -1.2792
   19MOL   H71913715   6.165   0.175   3.503  1.0509 -3.9570 -0.3706
   19MOL   H72013716   7.072   7.697   2.959  1.2296 -0.0642  0.9663
   19MOL   H72113717   7.308   7.764   2.927  0.0155  0.7932  1.2308
   19MOL   H72213718   6.095   0.094   3.386  1.3767 -1.0213 -0.7454
   20MOL     C113719   7.027   2.579   0.686  0.3274  0.7557  0.5221
   20MOL     O213720   7.010   2.551   0.804  0.0629 -0.1348  0.2276
   20MOL     C313721   6.971   2.510   0.569 -0.0148  0.4489 -0.4757
   20MOL     C413722   6.895   2.394   0.588  0.0324  0.2772 -0.4162
   20MOL     C513723   6.829   2.328   0.485 -0.5280 -0.1219  0.2343
   20MOL     C613724   6.834   2.387   0.356 -0.1395  0.2900 -0.1334
   20MOL     C713725   6.764   2.324   0.240 -0.0743 -0.0406 -0.4906
   20MOL     O813726   6.809   2.337   0.129 -0.2904  0.3742  0.2349
   20MOL     N913727   6.650   2.253   0.265  0.2679  0.5529 -0.6547
   20MOL    C1013728   6.553   2.207   0.162 -0.0510  0.5445 -0.1397
   20MOL    C1113729   6.546   2.056   0.149 -0.0324  0.4818  0.6868
   20MOL    C1213730   6.470   2.001   0.032 -0.1814  0.1294 -0.7049
   20MOL    C1313731   6.462   1.850   0.027  0.1277 -0.2721  0.1059
   20MOL    C1413732   6.316   1.798   7.885  0.0224 -0.0788 -0.5100
   20MOL    C1513733   6.315   1.645   7.874 -0.7352  0.1762 -0.6128
   20MOL    N1613734   6.319   1.587   0.119 -0.2329  1.0965  0.0192
   20MOL    C1713735   6.913   2.505   0.335  0.5305  0.0322 -0.3841
   20MOL    C1813736   6.970   2.568   0.444  0.2169 -0.2795 -0.8839
   20MOL    H1913737   6.883   2.354   0.688 -1.9675  0.4194 -0.5718
   20MOL    H2013738   6.776   2.235   0.501 -0.6782  0.3123  2.4032
   20MOL    H2113739   6.624   2.234   0.361 -3.4547 -1.5600 -1.9574
   20MOL    H2213740   6.457   2.255   0.179  0.0607  1.0603 -0.9595
   20MOL    H2313741   6.589   2.243   0.065 -2.5988  0.7477 -1.0410
   20MOL    H2413742   6.488   2.015   0.232  0.3491 -1.6073 -0.0628
   20MOL    H2513743   6.644   2.010   0.154 -0.3908 -0.2548  1.0943
   20MOL    H2613744   6.373   2.050   0.029 -1.0211 -1.5751 -1.3777
   20MOL    H2713745   6.514   2.036   7.824  0.5654 -0.1039 -0.4462
   20MOL    H2813746   6.499   1.811   0.122  1.8222 -0.9210 -0.8015
   20MOL    H2913747   6.539   1.817   7.843  2.3412 -1.9241  3.1686
   20MOL    H3013748   6.286   1.843   7.791  0.0264  1.7580  0.3455
   20MOL    H3113749   6.241   1.820   0.076 -1.5600 -0.0138 -2.0531
   20MOL    H3213750   6.219   1.616   7.833 -1.1346  1.5105 -0.6335
   20MOL    H3313751   6.401   1.609   7.817  0.0701 -0.0930  0.7351
   20MOL    H3413752   6.249   1.600   0.191  0.0710  1.5591  0.2336
   20MOL    H3513753   6.907   2.556   0.239 -0.2852 -0.7196 -0.7403
   20MOL    H3613754   7.014   2.666   0.435 -4.2021  1.6973 -2.2968
   20MOL    H3713755   7.086   2.667   0.660  0.2645  0.6295 -0.0580
   20MOL    C3813756   6.429   1.547   0.176  0.4234  0.0900 -0.0750
   20MOL    O3913757   6.534   1.543   0.122 -0.5219 -1.0026  0.0001
   20MOL    C4013758   6.413   1.499   0.316 -0.4875  0.0683  0.7553
   20MOL    C4113759   6.523   1.521   0.402  0.0359 -0.4044 -0.3751
   20MOL    C4213760   6.522   1.463   0.530 -0.3673 -0.1760  0.4728
   20MOL    C4313761   6.414   1.384   0.578 -0.5024 -0.9310  0.7036
   20MOL    C4413762   6.412   1.321   0.715  0.1107 -0.1105  0.1373
   20MOL    O4513763   6.427   1.388   0.816 -0.6737  0.1595 -0.7081
   20MOL    N4613764   6.408   1.184   0.699 -0.2227  0.1693  0.2752
   20MOL    C4713765   6.456   1.104   0.813 -0.2079 -0.2186 -0.2515
   20MOL    C4813766   6.473   0.954   0.772 -0.3152  0.6101  0.3992
   20MOL    C4913767   6.509   0.874   0.899  0.0177  0.1230 -0.1803
   20MOL    C5013768   6.655   0.887   0.939  0.5710 -0.0367 -0.0421
   20MOL    C5113769   6.697   0.779   1.042  0.7469 -0.3786  0.4777
   20MOL    C5213770   6.840   0.803   1.097 -0.1483  0.5109  0.3805
   20MOL    N5313771   6.925   0.820   0.980  0.2107 -0.1210  0.2533
   20MOL    C5413772   6.303   1.362   0.487  0.0546  0.5879 -0.1392
   20MOL    C5513773   6.306   1.422   0.359  0.9197  0.0326 -0.2978
   20MOL    H5613774   6.600   1.590   0.372  0.3880 -0.3969  0.5359
   20MOL    H5713775   6.597   1.491   0.602 -0.1597 -0.7063  0.4701
   20MOL    H5813776   6.367   1.140   0.618  1.2270 -0.1980 -0.2761
   20MOL    H5913777   6.548   1.143   0.857 -1.0350  0.6439  0.7718
   20MOL    H6013778   6.383   1.112   0.894  1.7250 -2.1571  1.7442
   20MOL    H6113779   6.551   0.928   0.700 -0.7532  1.1680 -0.2697
   20MOL    H6213780   6.385   0.909   0.726 -0.6827  1.2509  0.4758
   20MOL    H6313781   6.437   0.914   0.970  1.1676 -1.5360  1.9794
   20MOL    H6413782   6.484   0.772   0.870 -0.3656  0.9941 -3.1720
   20MOL    H6513783   6.653   0.980   0.995 -1.5891  1.1207 -1.9356
   20MOL    H6613784   6.713   0.895   0.847 -0.9112 -2.3109 -1.2243
   20MOL    H6713785   6.692   0.687   0.983 -2.2124  0.4635 -0.6604
   20MOL    H6813786   6.617   0.768   1.115 -1.4979  1.8273 -1.5764
   20MOL    H6913787   6.832   0.892   1.159 -1.0425  1.4556 -1.0612
   20MOL    H7013788   6.868   0.715   1.155  2.2184  0.8748 -0.1377
   20MOL    H7113789   6.910   0.904   0.926 -0.7603  0.1405  0.9193
   20MOL    H7213790   6.219   1.299   0.513  1.9366 -2.1536 -0.5956
   20MOL    H7313791   6.230   1.409   0.283  0.6431  2.0442 -0.3910
   20MOL    C7413792   6.977   0.721   0.912 -0.2638  0.0585 -0.5467
   20MOL    O7513793   6.974   0.608   0.955 -0.1015 -0.4701 -0.1169
   20MOL    C7613794   7.035   0.757   0.779  0.3030 -0.1349  0.7349
   20MOL    C7713795   7.073   0.888   0.757  0.6944 -0.6881  0.0993
   20MOL    C7813796   7.153   0.919   0.643  0.1959 -0.3501  0.0859
   20MOL    C7913797   7.186   0.817   0.548 -0.3157 -0.3328  0.1569
   20MOL    C8013798   7.287   0.841   0.436  0.0967  0.0249 -0.6596
   20MOL    O8113799   7.377   0.760   0.426 -0.6306  0.2093 -0.3013
   20MOL    N8213800   7.268   0.948   0.358  0.5052 -0.1773 -0.2830
   20MOL    C8313801   7.330   0.994   0.237 -0.4244  0.1707  0.4368
   20MOL    C8413802   7.218   1.068   0.168  0.0215  0.0401  0.4032
   20MOL    C8513803   7.253   1.130   0.030  0.5050  0.2335 -0.2804
   20MOL    C8613804   7.160   1.247   7.870 -0.1974  0.8778  0.3534
   20MOL    C8713805   7.014   1.209   7.858 -0.4975 -0.4671  0.3530
   20MOL    C8813806   6.915   1.323   7.885  0.4824  0.0107 -0.5593
   20MOL    N8913807   6.898   1.323   0.143  0.2642  0.4843 -0.0160
   20MOL    C9013808   7.134   0.690   0.566  0.3653 -0.1302 -0.0135
   20MOL    C9113809   7.067   0.657   0.690  0.8296  0.3051 -0.5112
   20MOL    H9213810   7.062   0.968   0.830  1.5930 -1.5739  1.2179
   20MOL    H9313811   7.190   1.020   0.635 -1.0104  0.1640  0.8679
   20MOL    H9413812   7.194   1.003   0.399  0.3112 -0.7183  0.1131
   20MOL    H9513813   7.414   1.055   0.271  0.8437 -1.0316 -0.4961
   20MOL    H9613814   7.373   0.919   0.170 -5.3524 -0.1258 -2.6218
   20MOL    H9713815   7.183   1.151   0.229  1.0465 -0.0598  1.1492
   20MOL    H9813816   7.129   1.007   0.154 -0.7082  0.8842  1.3122
   20MOL    H9913817   7.358   1.153   0.013  0.0739  1.3433 -1.4922
   20MOL   H10013818   7.242   1.050   7.843  0.5882 -0.4077  0.4017
   20MOL   H10113819   7.194   1.299   7.780  2.5865 -0.7359  0.4184
   20MOL   H10213820   7.164   1.328   0.057 -0.7521  1.6873 -0.4907
   20MOL   H10313821   6.979   1.130   0.039  1.4605  0.4612  2.5429
   20MOL   H10413822   7.012   1.166   7.758 -0.5518 -0.0131  0.1618
   20MOL   H10513823   6.954   1.417   7.846 -2.9698  2.0131  0.5926
   20MOL   H10613824   6.823   1.313   7.826 -0.6466 -0.5417  1.2403
   20MOL   H10713825   6.980   1.355   0.195  0.3243  0.1121  0.1185
   20MOL   H10813826   7.155   0.616   0.490  1.4403  2.5079 -2.3566
   20MOL   H10913827   7.037   0.555   0.709  0.8342  0.4018  0.0108
   20MOL   C11013828   6.816   1.248   0.215 -0.0826  0.5875 -0.1754
   20MOL   O11113829   6.716   1.198   0.161 -0.3536 -0.2947 -0.3470
   20MOL   C11213830   6.838   1.239   0.363  0.3704  0.1485  1.1439
   20MOL   C11313831   6.747   1.159   0.436  0.8701  0.6556 -0.4348
   20MOL   C11413832   6.771   1.151   0.577  0.3535 -0.0977 -0.2113
   20MOL   C11513833   6.869   1.226   0.647  0.5213  0.3249 -0.7496
   20MOL   C11613834   6.877   1.213   0.795  0.3289 -0.3626  0.2997
   20MOL   O11713835   6.840   1.109   0.850  0.0669 -0.1479  0.6370
   20MOL   N11813836   6.926   1.318   0.868 -0.6784  0.1725 -0.2631
   20MOL   C11913837   6.913   1.328   1.014  0.0089 -0.7997 -0.2293
   20MOL   C12013838   6.788   1.411   1.034 -0.3747  0.0099  0.7784
   20MOL   C12113839   6.767   1.439   1.182  0.6944 -0.5960  0.5135
   20MOL   C12213840   6.621   1.489   1.217 -0.5434  0.7403  0.4362
   20MOL   C12313841   6.610   1.537   1.365 -0.0290  0.3464 -0.1589
   20MOL   C12413842   6.464   1.574   1.403 -0.5758 -0.5780  0.0498
   20MOL   N12513843   6.442   1.635   1.537  0.8674  0.7003 -0.1612
   20MOL   C12613844   6.961   1.294   0.576 -0.1840  0.0563 -0.0390
   20MOL   C12713845   6.946   1.301   0.436 -0.2152  0.2946  0.7972
   20MOL   H12813846   6.660   1.104   0.401  0.2640  0.3192  1.5062
   20MOL   H12913847   6.689   1.098   0.623  0.5645 -0.4501 -0.2363
   20MOL   H13013848   6.956   1.398   0.814  2.7990 -0.7089  0.2495
   20MOL   H13113849   6.901   1.231   1.062  0.1927 -1.5042 -1.5719
   20MOL   H13213850   7.009   1.366   1.051 -0.5135 -0.2216  0.5361
   20MOL   H13313851   6.707   1.355   0.986  0.2171 -0.0417 -0.1699
   20MOL   H13413852   6.792   1.507   0.984  0.6304 -1.1070 -1.3495
   20MOL   H13513853   6.798   1.353   1.242  0.7865 -1.1998 -0.3914
   20MOL   H13613854   6.843   1.514   1.203 -0.9869  2.1020 -2.5534
   20MOL   H13713855   6.542   1.422   1.181  0.5593 -1.3949  1.8609
   20MOL   H13813856   6.611   1.575   1.151  0.7685  0.6304  0.0876
   20MOL   H13913857   6.670   1.625   1.387  1.1853 -0.1528 -1.4288
   20MOL   H14013858   6.654   1.464   1.432 -0.5185  0.3181  0.1346
   20MOL   H14113859   6.426   1.636   1.322 -1.4383 -0.1598  0.7627
   20MOL   H14213860   6.402   1.485   1.405  0.3120 -1.1777  1.2087
   20MOL   H14313861   6.413   1.574   1.612 -2.2648  1.4206 -0.7237
   20MOL   H14413862   7.044   1.349   0.619  0.0624 -0.4434  0.1328
   20MOL   H14513863   7.017   1.355   0.375 -0.7158  0.0981  0.0318
   20MOL   C14613864   6.451   1.767   1.560 -0.9003  0.5641  0.1182
   20MOL   O14713865   6.476   1.850   1.475  0.0583 -0.1146 -0.3887
   20MOL   C14813866   6.435   1.813   1.704 -0.1277  0.6065 -0.2884
   20MOL   C14913867   6.386   1.724   1.804 -0.0464 -0.5261  0.0821
   20MOL   C15013868   6.343   1.773   1.928  0.1764  0.5823 -0.7126
   20MOL   C15113869   6.342   1.916   1.947 -0.3633 -0.0957  0.0185
   20MOL   C15213870   6.259   1.977   2.051  0.0285 -0.3732  0.2231
   20MOL   O15313871   6.162   1.919   2.103 -0.5840  0.4166  1.1140
   20MOL   N15413872   6.308   2.092   2.099  0.0906 -0.0630 -0.0381
   20MOL   C15513873   6.239   2.168   2.202 -0.2484  0.1808  1.0041
   20MOL   C15613874   6.318   2.293   2.242  0.0086 -0.1201  0.5020
   20MOL   C15713875   6.228   2.386   2.328 -0.3696 -0.3171  0.6807
   20MOL   C15813876   6.313   2.501   2.380 -0.3272 -0.1408  0.2187
   20MOL   C15913877   6.231   2.583   2.477 -0.3874 -0.2858 -0.8970
   20MOL   C16013878   6.284   2.725   2.521 -0.1730 -0.3843  0.4045
   20MOL   N16113879   6.186   2.804   2.600 -0.0467 -0.4471  0.0726
   20MOL   C16213880   6.395   2.005   1.855  0.8343  0.1022  0.8307
   20MOL   C16313881   6.445   1.951   1.733 -0.1742 -0.5652 -0.4266
   20MOL   H16413882   6.375   1.617   1.794 -1.1058 -0.3833 -0.2827
   20MOL   H16513883   6.315   1.714   2.014  0.2175  2.7339  0.8208
   20MOL   H16613884   6.395   2.134   2.068  1.3058 -1.1081  1.8716
   20MOL   H16713885   6.136   2.187   2.173  0.0393 -1.3196 -1.1539
   20MOL   H16813886   6.253   2.093   2.280  4.4037 -1.5660 -1.2917
   20MOL   H16913887   6.341   2.345   2.149 -1.9573 -0.8477 -0.4008
   20MOL   H17013888   6.420   2.267   2.273  0.2742 -0.4576 -0.6458
   20MOL   H17113889   6.145   2.423   2.267  0.4308 -0.9792 -0.8366
   20MOL   H17213890   6.196   2.330   2.416  0.3270 -1.2741  0.3280
   20MOL   H17313891   6.341   2.560   2.293  2.0293 -0.7619  0.5146
   20MOL   H17413892   6.405   2.458   2.420  0.0881  0.2035 -0.3592
   20MOL   H17513893   6.189   2.520   2.556  1.9986 -0.5668  0.1810
   20MOL   H17613894   6.142   2.605   2.418 -0.0479  1.2015 -0.8787
   20MOL   H17713895   6.366   2.711   2.591 -1.6452  2.2032  2.7932
   20MOL   H17813896   6.329   2.778   2.437  0.3840 -0.3528  0.7172
   20MOL   H17913897   6.188   2.804   2.701 -0.9825  0.5583  0.1020
   20MOL   H18013898   6.394   2.112   1.866  2.0260  0.1669  0.4013
   20MOL   H18113899   6.472   2.021   1.654 -0.9441  0.6979  0.4065
   20MOL   C18213900   6.077   2.865   2.552 -1.5094  0.2491 -0.3020
   20MOL   O18313901   6.049   2.855   2.438 -0.1494  0.2620  0.2534
   20MOL   C18413902   5.985   2.945   2.645  0.5150 -1.0439  0.6798
   20MOL   C18513903   6.016   2.965   2.783  0.4105 -0.3679  0.6157
   20MOL   C18613904   5.936   3.043   2.865  0.2158  0.0217  0.9303
   20MOL   C18713905   5.828   3.116   2.808 -0.4564 -0.0897  0.1296
   20MOL   C18813906   5.756   3.222   2.886  0.4292 -0.6443 -0.0523
   20MOL   O18913907   5.635   3.228   2.873  0.2642  0.4572  0.2512
   20MOL   N19013908   5.827   3.305   2.956 -0.7699 -0.0831  0.6173
   20MOL   C19113909   5.780   3.431   3.008  0.1897  0.0443  0.0238
   20MOL   C19213910   5.891   3.512   3.066  0.6860  0.3493 -0.7969
   20MOL   C19313911   5.998   3.548   2.962 -0.7530  0.1014  0.3091
   20MOL   C19413912   6.118   3.635   2.998 -0.2203 -0.1922 -0.7592
   20MOL   C19513913   6.206   3.570   3.102  0.5442  0.0996  0.1044
   20MOL   C19613914   6.357   3.597   3.083 -0.0660  0.3147  0.2051
   20MOL   N19713915   6.444   3.533   3.184 -0.1384  0.6968 -0.2339
   20MOL   C19813916   5.797   3.097   2.673  0.2370  0.0559 -0.7890
   20MOL   C19913917   5.878   3.015   2.589  0.3589 -0.1185 -1.2226
   20MOL   H20013918   6.095   2.909   2.830 -0.6990 -1.5086  1.1804
   20MOL   H20113919   5.970   3.039   2.967  1.0388 -0.0434  0.6556
   20MOL   H20213920   5.925   3.284   2.963 -1.1044 -2.1679 -0.4815
   20MOL   H20313921   5.728   3.489   2.931  1.6318 -1.0239 -1.8087
   20MOL   H20413922   5.703   3.412   3.082 -0.4157  2.0118 -0.0653
   20MOL   H20513923   5.937   3.465   3.153 -1.9203 -0.8659 -0.0168
   20MOL   H20613924   5.855   3.608   3.102 -1.1025 -0.9685  1.0560
   20MOL   H20713925   6.042   3.456   2.922 -0.1616  0.6184 -0.2253
   20MOL   H20813926   5.953   3.592   2.874  0.3324 -0.5493 -0.5839
   20MOL   H20913927   6.077   3.729   3.032  0.4174 -0.3401  0.4706
   20MOL   H21013928   6.176   3.655   2.908  1.6211  1.8580  0.8290
   20MOL   H21113929   6.195   3.462   3.091  4.0931 -0.3376  0.2813
   20MOL   H21213930   6.168   3.596   3.201 -1.2487  2.1805 -1.0654
   20MOL   H21313931   6.376   3.562   2.982  0.7619  1.0228  0.1140
   20MOL   H21413932   6.375   3.704   3.086 -1.1895  0.6450 -3.2537
   20MOL   H21513933   6.472   3.582   3.267  0.7486  0.5457 -0.4386
   20MOL   H21613934   5.715   3.157   2.639  0.1942  0.8559  0.6739
   20MOL   H21713935   5.858   3.009   2.483 -2.5800  2.6873 -0.9048
   20MOL   C21813936   6.527   3.429   3.158  0.4994 -0.9633 -0.2965
   20MOL   O21913937   6.524   3.366   3.055 -0.5097 -0.1504  0.2028
   20MOL   C22013938   6.632   3.406   3.264  0.2120 -0.8617 -0.5166
   20MOL   C22113939   6.759   3.369   3.217  0.2262 -0.0883  0.2820
   20MOL   C22213940   6.866   3.353   3.306 -0.0489  0.7796  0.7731
   20MOL   C22313941   6.837   3.334   3.445  0.6544  0.4534 -0.2970
   20MOL   C22413942   6.941   3.288   3.541 -0.0782  0.1579 -0.1230
   20MOL   O22513943   7.056   3.334   3.545  0.8079 -0.1237  0.2549
   20MOL   N22613944   6.896   3.195   3.625  0.1527 -0.4982  0.0266
   20MOL   C22713945   6.968   3.119   3.731 -0.6165  0.9883  0.4647
   20MOL   C22813946   6.910   2.973   3.731 -0.0934 -0.2841  0.1888
   20MOL   C22913947   6.962   2.878   3.841  0.2817  0.9722 -0.4863
   20MOL   C23013948   6.926   2.734   3.818  0.1967  0.0311  0.5267
   20MOL   C23113949   6.942   2.675   3.678  0.5630  0.6018 -0.3802
   20MOL   C23213950   7.079   2.677   3.623 -0.1329 -0.5943 -0.1439
   20MOL   N23313951   7.090   2.612   3.490  0.3964  0.5412 -0.6922
   20MOL   C23413952   6.707   3.376   3.497 -0.0838 -0.1745  0.1255
   20MOL   C23513953   6.606   3.410   3.405 -0.7688  0.6384  0.3193
   20MOL   H23613954   6.774   3.364   3.111 -2.0356 -1.0567 -0.0158
   20MOL   H23713955   6.956   3.306   3.268 -2.3328 -0.7033 -3.1982
   20MOL   H23813956   6.798   3.174   3.616  0.0239 -0.2560  0.8220
   20MOL   H23913957   7.074   3.120   3.708 -0.3666  2.4878  1.5661
   20MOL   H24013958   6.958   3.150   3.835 -0.8645  0.0171  0.7372
   20MOL   H24113959   6.919   2.936   3.629 -0.2010 -2.5486  0.9840
   20MOL   H24213960   6.803   2.977   3.750  0.1866  1.0036  1.6398
   20MOL   H24313961   7.069   2.897   3.854  0.0293  1.6517  0.7571
   20MOL   H24413962   6.933   2.919   3.938 -0.6087 -2.8280  0.9387
   20MOL   H24513963   6.821   2.725   3.847 -0.2485  2.7414 -0.1483
   20MOL   H24613964   6.974   2.669   3.892  2.3127 -0.9235 -1.6112
   20MOL   H24713965   6.872   2.722   3.609  1.8228 -0.7157 -2.6098
   20MOL   H24813966   6.901   2.574   3.676  2.0240 -0.1214  3.0581
   20MOL   H24913967   7.113   2.780   3.614 -1.3548 -0.1970 -0.3138
   20MOL   H25013968   7.153   2.634   3.691 -0.4337  2.5423  2.2663
   20MOL   H25113969   7.046   2.665   3.417  0.4120  1.4148 -0.0744
   20MOL   H25213970   6.683   3.368   3.601 -1.4926 -0.0819 -0.1815
   20MOL   H25313971   6.507   3.432   3.444 -0.8571 -1.7625  1.5801
   20MOL   C25413972   7.170   2.507   3.458 -0.0209 -0.2142  0.7601
   20MOL   O25513973   7.220   2.435   3.547  0.5553 -0.1598  0.1827
   20MOL   C25613974   7.187   2.467   3.318 -0.4805 -0.0398 -0.0074
   20MOL   C25713975   7.099   2.514   3.218 -0.5148 -0.2429 -0.5989
   20MOL   C25813976   7.119   2.473   3.088  0.2406  0.3658  0.7285
   20MOL   C25913977   7.228   2.395   3.043 -0.5006 -0.1831 -0.1467
   20MOL   C26013978   7.242   2.350   2.900  0.3333  0.0219 -0.1799
   20MOL   O26113979   7.188   2.403   2.801  0.1894  0.4167  0.3377
   20MOL   N26213980   7.309   2.240   2.894 -0.2722 -0.1295  0.1973
   20MOL   C26313981   7.363   2.184   2.774  0.8019 -0.2597  0.1281
   20MOL   C26413982   7.271   2.067   2.739 -0.1037  0.2343  0.0896
   20MOL   C26513983   7.352   1.968   2.658  0.7570 -0.1421  0.0233
   20MOL   C26613984   7.416   2.022   2.531 -0.3514  0.4613 -0.0731
   20MOL   C26713985   7.491   1.909   2.463 -0.1865  0.4125  0.3481
   20MOL   C26813986   7.582   1.958   2.342 -0.1160  0.1577  0.2014
   20MOL   N26913987   7.705   2.020   2.391  0.4643 -0.5771  0.0158
   20MOL   C27013988   7.325   2.354   3.144  0.2523  0.7879  1.0102
   20MOL   C27113989   7.300   2.391   3.278  0.2771 -0.4426  1.3524
   20MOL   H27213990   7.009   2.570   3.242 -0.8126 -0.5302 -1.0496
   20MOL   H27313991   7.041   2.510   3.023  1.1840  3.7804  1.4036
   20MOL   H27413992   7.351   2.196   2.975  0.0562  0.5408  0.4017
   20MOL   H27513993   7.368   2.255   2.691 -2.7136 -2.0273 -1.6897
   20MOL   H27613994   7.465   2.155   2.800  1.1248  1.0317  0.3500
   20MOL   H27713995   7.188   2.112   2.685  1.5053  0.7537 -2.0095
   20MOL   H27813996   7.226   2.014   2.823  1.4249 -2.6327 -0.8154
   20MOL   H27913997   7.423   1.933   2.733  0.7351  0.4705  0.3286
   20MOL   H28013998   7.295   1.879   2.630  1.9690 -0.3105 -2.0259
   20MOL   H28113999   7.485   2.103   2.555  0.7724 -0.4316 -0.2715
   20MOL   H28214000   7.343   2.061   2.459 -2.2060  0.2932  1.6678
   20MOL   H28314001   7.421   1.831   2.433  2.2846 -1.7917  0.1596
   20MOL   H28414002   7.537   1.856   2.546  2.4214  1.5340 -0.3170
   20MOL   H28514003   7.616   1.880   2.274  0.0798 -0.5809  1.1343
   20MOL   H28614004   7.522   2.018   2.274 -1.1283  1.0138  1.8169
   20MOL   H28714005   7.780   1.966   2.432 -0.1121  0.0241  1.9213
   20MOL   H28814006   7.410   2.295   3.117 -0.9203 -0.1880 -0.6370
   20MOL   H28914007   7.359   2.356   3.362 -0.7743 -1.5521  1.6415
   20MOL   C29014008   7.727   2.151   2.392 -0.1051 -0.3999 -0.5846
   20MOL   O29114009   7.651   2.236   2.353  0.0506  0.1631 -0.0754
   20MOL   C29214010   7.863   2.195   2.444  0.5918 -0.1157 -0.4791
   20MOL   C29314011   0.024   2.153   2.571 -0.0076 -0.3054  0.1909
   20MOL   C29414012   0.160   2.157   2.597 -0.6653 -0.7129 -0.3871
   20MOL   C29514013   0.250   2.222   2.513 -0.0707 -0.0330  0.6548
   20MOL   C29614014   0.389   2.240   2.558  0.7764  0.2478 -0.2508
   20MOL   O29714015   0.481   2.204   2.484  0.5482  0.4179 -0.0602
   20MOL   N29814016   0.409   2.290   2.684  0.4070  0.6492  0.0727
   20MOL   C29914017   0.536   2.340   2.747 -0.5966  0.5805  0.0274
   20MOL   C30014018   0.593   2.230   2.838 -0.0758  0.4375 -0.4656
   20MOL   C30114019   0.727   2.268   2.913 -0.3146  0.2254 -0.4521
   20MOL   C30214020   0.788   2.164   2.999 -0.1257  0.3021  0.6047
   20MOL   C30314021   0.937   2.179   3.036  0.1054 -1.1770  0.6705
   20MOL   C30414022   0.991   2.060   3.127  0.4143  0.1892 -0.1887
   20MOL   N30514023   0.993   1.931   3.065  0.2280 -0.2800  0.5673
   20MOL   C30614024   0.205   2.278   2.391  0.1448  0.2697 -0.0530
   20MOL   C30714025   0.070   2.270   2.360 -0.5115 -0.1250  0.2516
   20MOL   H30814026   7.845   2.110   2.645  0.2663 -1.8655 -0.4507
   20MOL   H30914027   0.202   2.126   2.692  1.3238  1.1429 -0.6488
   20MOL   H31014028   0.337   2.319   2.749  0.4877 -1.3730  1.1131
   20MOL   H31114029   0.605   2.366   2.667 -2.3023  0.7169 -1.4223
   20MOL   H31214030   0.517   2.433   2.801  2.6805  0.7887  0.9358
   20MOL   H31314031   0.615   2.146   2.772  1.1346  0.4860 -0.1382
   20MOL   H31414032   0.516   2.191   2.905 -0.7013 -1.1498 -2.0734
   20MOL   H31514033   0.792   2.302   2.833 -0.8968  2.7029  0.0935
   20MOL   H31614034   0.714   2.358   2.973  0.5058 -0.1537  0.2999
   20MOL   H31714035   0.792   2.074   2.937  2.7941  0.8794 -0.1601
   20MOL   H31814036   0.725   2.140   3.085 -0.5386 -4.2673 -0.8371
   20MOL   H31914037   0.944   2.273   3.090 -1.1282 -0.1670 -0.8594
   20MOL   H32014038   0.994   2.181   2.943 -1.0455  0.4921 -0.0289
   20MOL   H32114039   1.086   2.087   3.172  0.2208  0.9885 -0.2360
   20MOL   H32214040   0.919   2.045   3.208  1.7586  0.2156  1.0205
   20MOL   H32314041   0.904   1.887   3.047  0.3468  0.1462 -1.1572
   20MOL   H32414042   0.281   2.327   2.331 -1.1636  3.5938  0.9014
   20MOL   H32514043   0.044   2.318   2.267 -2.4153 -1.3693  0.0988
   20MOL   C32614044   1.105   1.883   3.006  0.1174 -0.1982 -0.8581
   20MOL   O32714045   1.217   1.927   3.036  0.3737  0.0464 -0.1170
   20MOL   C32814046   1.091   1.761   2.914 -0.2221  0.1883 -0.1282
   20MOL   C32914047   1.197   1.663   2.910 -0.0208  0.8922 -0.4092
   20MOL   C33014048   1.183   1.547   2.827  0.9436  0.5087  0.0227
   20MOL   C33114049   1.069   1.532   2.743  0.3527 -0.2080 -0.4737
   20MOL   C33214050   1.055   1.402   2.667  0.1379  0.1741  1.1100
   20MOL   O33314051   1.120   1.303   2.695  0.6383  0.2958  0.0621
   20MOL   N33414052   0.973   1.421   2.569  0.8671 -0.4176  0.3963
   20MOL   C33514053   0.923   1.312   2.484 -0.1046  0.0692  0.2519
   20MOL   C33614054   1.016   1.293   2.361 -0.6291  0.5303 -0.2854
   20MOL   C33714055   0.959   1.193   2.254 -0.3548  0.4755 -0.1381
   20MOL   C33814056   0.867   1.257   2.145  0.5538  0.4081  0.5526
   20MOL   C33914057   0.717   1.251   2.180  0.2233 -0.7282 -0.3326
   20MOL   C34014058   0.639   1.145   2.106  0.3239 -0.0597 -0.3897
   20MOL   N34114059   0.697   1.014   2.137 -0.0625 -0.4310 -0.1395
   20MOL   C34214060   0.963   1.631   2.745  0.2098  0.1273  0.3781
   20MOL   C34314061   0.977   1.741   2.827 -0.6219  0.5072 -0.2030
   20MOL   H34414062   1.290   1.663   2.965  0.7878 -0.1828 -1.7415
   20MOL   H34514063   1.263   1.474   2.817  0.4001 -0.0443 -0.3547
   20MOL   H34614064   0.932   1.512   2.555 -0.5764 -0.4815  3.7680
   20MOL   H34714065   0.919   1.222   2.546  0.4733 -1.3687 -1.7501
   20MOL   H34814066   0.825   1.336   2.443 -0.4617  0.8054  1.4912
   20MOL   H34914067   1.106   1.244   2.398 -0.7670  1.4330  1.2592
   20MOL   H35014068   1.033   1.393   2.320 -2.0325  0.3475 -1.3709
   20MOL   H35114069   1.037   1.136   2.205 -0.9366  0.5565 -1.1669
   20MOL   H35214070   0.907   1.112   2.305  1.0850 -0.5482 -0.2661
   20MOL   H35314071   0.877   1.206   2.050 -0.0837 -0.7027  1.0798
   20MOL   H35414072   0.901   1.357   2.118  1.3857 -0.4174 -1.5278
   20MOL   H35514073   0.680   1.348   2.146 -1.9913 -1.3373  0.2917
   20MOL   H35614074   0.702   1.255   2.288  1.5371  3.3444 -0.2173
   20MOL   H35714075   0.532   1.152   2.128  0.1981  1.2826 -1.4149
   20MOL   H35814076   0.649   1.183   2.005  0.6404  0.2534 -0.2419
   20MOL   H35914077   0.677   0.976   2.228 -1.3142  0.5773  0.0217
   20MOL   H36014078   0.874   1.617   2.686 -0.0832  1.3542  0.5091
   20MOL   H36114079   0.902   1.818   2.827  0.3093  1.4230 -0.7402
   20MOL   C36214080   0.764   0.951   2.047 -0.3454  0.9039  0.0991
   20MOL   O36314081   0.786   0.994   1.930 -0.1565  0.3534  0.0409
   20MOL   C36414082   0.816   0.815   2.090 -0.7399  0.2127 -0.2583
   20MOL   C36514083   0.955   0.791   2.120  0.3089 -0.6459 -0.3982
   20MOL   C36614084   0.992   0.668   2.169  0.8047 -0.7844  0.4583
   20MOL   C36714085   0.903   0.560   2.184 -0.4213  0.2705 -0.3082
   20MOL   C36814086   0.958   0.428   2.233 -0.3535  0.3222 -0.1831
   20MOL   O36914087   1.082   0.409   2.225 -0.2298 -0.1522 -0.3239
   20MOL   N37014088   0.872   0.341   2.293 -0.0134 -0.4780  0.0011
   20MOL   C37114089   0.906   0.209   2.344  0.2715 -0.4272 -0.0251
   20MOL   C37214090   0.779   0.130   2.358 -0.5544 -0.2638  0.0992
   20MOL   C37314091   0.794   7.866   2.366 -0.3053  0.3139 -0.0214
   20MOL   C37414092   0.673   7.802   2.430  0.0502 -0.0206 -0.8044
   20MOL   C37514093   0.685   7.649   2.426 -0.4893  1.1789 -0.0260
   20MOL   C37614094   0.560   7.582   2.484 -0.1880  0.8463 -0.3297
   20MOL   N37714095   0.574   7.444   2.450 -0.2045  0.0878  0.1363
   20MOL   C37814096   0.766   0.577   2.151 -0.0081 -0.0340 -0.3341
   20MOL   C37914097   0.721   0.706   2.107 -0.1961 -0.3676 -0.2065
   20MOL   H38014098   1.029   0.867   2.102 -0.6776  0.1809 -1.0441
   20MOL   H38114099   1.099   0.662   2.186  0.9997  1.6552  0.2189
   20MOL   H38214100   0.783   0.385   2.315  0.8381  1.7664 -0.8803
   20MOL   H38314101   0.968   0.171   2.263 -0.2473  5.0604 -3.1815
   20MOL   H38414102   0.959   0.204   2.440 -0.9712 -4.0637  0.5484
   20MOL   H38514103   0.698   0.158   2.291 -1.8448  0.8306  2.0775
   20MOL   H38614104   0.742   0.179   2.448  2.9280  3.7303 -0.4490
   20MOL   H38714105   0.788   7.839   2.261  0.7870  1.6762 -0.4515
   20MOL   H38814106   0.887   7.836   2.414 -0.3624  0.9634  0.5039
   20MOL   H38914107   0.581   7.846   2.392 -1.6543 -2.6335  0.1438
   20MOL   H39014108   0.665   7.827   2.536 -2.6096 -1.6088 -0.5989
   20MOL   H39114109   0.773   7.606   2.473 -1.3503 -1.2287 -0.5793
   20MOL   H39214110   0.684   7.616   2.322 -2.0771  0.1361  0.2984
   20MOL   H39314111   0.561   7.583   2.593 -0.7084 -0.4473 -0.2958
   20MOL   H39414112   0.459   7.615   2.458 -0.6575 -1.1277 -1.1087
   20MOL   H39514113   0.545   7.408   2.360  1.2943 -0.7839 -0.0148
   20MOL   H39614114   0.692   0.499   2.156  2.2911 -2.1975  1.6032
   20MOL   H39714115   0.618   0.727   2.081 -0.0087  0.9312  0.0939
   20MOL   C39814116   0.615   7.346   2.533 -0.1681 -0.8977  0.0439
   20MOL   O39914117   0.677   7.359   2.637  0.3039 -0.1901 -0.2889
   20MOL   C40014118   0.577   7.210   2.487 -0.7228 -0.1665  0.5333
   20MOL   C40114119   0.557   7.109   2.581 -0.8662 -0.0588  0.4519
   20MOL   C40214120   0.532   6.972   2.541 -0.6703  1.2042  0.2059
   20MOL   C40314121   0.512   6.936   2.404 -0.1706 -0.3096  0.4091
   20MOL   C40414122   0.487   6.799   2.348  0.2406  0.4812  0.2631
   20MOL   O40514123   0.494   6.780   2.226  0.0055 -0.1714 -0.2133
   20MOL   N40614124   0.462   6.706   2.438 -1.0533 -0.0762 -0.0932
   20MOL   C40714125   0.455   6.560   2.415 -0.0174  0.1026 -0.4205
   20MOL   C40814126   0.488   6.488   2.548 -0.0281 -0.4645 -0.4079
   20MOL   C40914127   0.623   6.521   2.608 -0.9105 -0.2193 -0.3186
   20MOL   C41014128   0.735   6.482   2.518  0.0880 -0.2701 -0.5015
   20MOL   C41114129   0.866   6.546   2.571 -0.1445  0.4263  0.3234
   20MOL   C41214130   0.999   6.509   2.492  0.0560  0.0861 -0.1165
   20MOL   N41314131   1.090   6.627   2.499 -0.4120 -0.7194  0.1948
   20MOL   C41414132   0.522   7.044   2.311 -0.7444 -0.9065 -0.1301
   20MOL   C41514133   0.558   7.176   2.350  0.9443  0.2687 -0.4159
   20MOL   H41614134   0.561   7.123   2.688 -0.1970 -0.0963  0.4290
   20MOL   H41714135   0.528   6.903   2.624  0.7628  2.1715  1.1099
   20MOL   H41814136   0.445   6.738   2.533  0.1052  0.6459 -0.1242
   20MOL   H41914137   0.356   6.532   2.379 -2.2675  2.0422  3.8939
   20MOL   H42014138   0.528   6.526   2.342  0.6966  1.4032 -0.3351
   20MOL   H42114139   0.491   6.380   2.531  2.0396 -0.6319  0.7846
   20MOL   H42214140   0.406   6.501   2.618  1.2036 -0.2569  1.0165
   20MOL   H42314141   0.633   6.629   2.620 -0.6491 -0.3620  0.8112
   20MOL   H42414142   0.631   6.493   2.713  0.8750 -0.7038 -0.5714
   20MOL   H42514143   0.719   6.517   2.416  4.0755  0.4253 -0.9641
   20MOL   H42614144   0.744   6.374   2.505 -0.2211 -0.4791  1.0082
   20MOL   H42714145   0.882   6.519   2.675  0.2183  0.7600  0.3537
   20MOL   H42814146   0.841   6.652   2.570 -2.2499 -0.0083  2.3749
   20MOL   H42914147   1.040   6.424   2.548  0.2212  0.9978  1.1670
   20MOL   H43014148   0.974   6.475   2.392  3.1395  1.7588 -1.5281
   20MOL   H43114149   1.062   6.721   2.522  1.0547  0.2357 -1.8466
   20MOL   H43214150   0.521   7.032   2.204 -0.2844  1.9156 -0.4943
   20MOL   H43314151   0.570   7.255   2.277  0.3716 -1.0532 -1.9921
   20MOL   C43414152   1.224   6.622   2.485  0.5682  1.3722 -0.5555
   20MOL   O43514153   1.279   6.513   2.463 -0.8621  0.0884  0.5155
   20MOL   C43614154   1.286   6.756   2.488 -0.7813 -0.0997  0.1182
   20MOL   C43714155   1.232   6.865   2.559  0.0647  0.1443 -0.1172
   20MOL   C43814156   1.281   6.998   2.544 -0.4585 -0.1429  0.2100
   20MOL   C43914157   1.394   7.022   2.474  0.3393  0.1007  0.2050
   20MOL   C44014158   1.443   7.166   2.456  0.4077 -1.0409  0.8395
   20MOL   O44114159   1.541   7.186   2.381 -0.3510 -0.7717 -0.6134
   20MOL   N44214160   1.368   7.260   2.513 -0.1863  0.2670  0.2715
   20MOL   C44314161   1.392   7.407   2.500 -0.7133  0.3605  0.4768
   20MOL   C44414162   1.492   7.453   2.615  0.1547 -0.2583 -0.9969
   20MOL   C44514163   1.581   7.565   2.564 -0.2517  0.3686  0.2203
   20MOL   C44614164   1.693   7.584   2.665 -0.1552 -0.3504  0.0917
   20MOL   C44714165   1.791   7.694   2.622  0.5727 -0.2938 -0.6157
   20MOL   C44814166   1.874   7.753   2.741 -0.3101 -0.2128  0.3953
   20MOL   N44914167   1.966   7.858   2.698  0.3324  0.3203 -0.4596
   20MOL   C45014168   1.463   6.916   2.410  0.2711 -0.1349  0.9811
   20MOL   C45114169   1.409   6.783   2.419  0.4248 -0.6022 -0.4807
   20MOL   H45214170   1.148   6.849   2.625  0.2342  0.2303  0.1202
   20MOL   H45314171   1.235   7.080   2.597  0.3445 -0.1234  0.8923
   20MOL   H45414172   1.294   7.227   2.574  0.9849 -0.0517  1.5662
   20MOL   H45514173   1.437   7.431   2.403 -0.2971 -1.3903  0.2134
   20MOL   H45614174   1.298   7.462   2.498 -0.3606  0.9553  0.3671
   20MOL   H45714175   1.547   7.368   2.654  1.6339  1.5878  1.0377
   20MOL   H45814176   1.428   7.485   2.697 -0.4882 -1.2514 -1.1054
   20MOL   H45914177   1.620   7.535   2.467 -2.0055 -0.0837 -0.3584
   20MOL   H46014178   1.525   7.655   2.539  1.8844  1.5992 -0.2983
   20MOL   H46114179   1.731   7.482   2.672 -0.7064 -0.6256 -0.9005
   20MOL   H46214180   1.647   7.612   2.760  2.5925 -1.3024  1.7447
   20MOL   H46314181   1.743   7.781   2.576  0.7625  0.7057  1.0587
   20MOL   H46414182   1.858   7.648   2.549  0.3086  0.7660 -1.5492
   20MOL   H46514183   1.804   7.801   2.810 -0.3564  0.5561 -0.1762
   20MOL   H46614184   1.930   7.682   2.803  0.2936  0.2455  0.3840
   20MOL   H46714185   1.947   0.024   2.613 -1.9059 -0.0452 -0.2141
   20MOL   H46814186   1.553   6.929   2.350  0.0598 -1.1173  0.4449
   20MOL   H46914187   1.442   6.703   2.355  1.5508 -0.5964  0.0908
   20MOL   C47014188   2.067   0.023   2.769  0.5552  0.3653  0.7336
   20MOL   O47114189   2.128   7.841   2.854 -0.3007 -0.6372  0.0632
   20MOL   C47214190   2.114   0.161   2.731 -0.5027 -0.7871  0.5166
   20MOL   C47314191   2.175   0.246   2.824 -0.2308  0.2466  0.2159
   20MOL   C47414192   2.235   0.368   2.782 -0.1585 -0.5293  0.2532
   20MOL   C47514193   2.223   0.406   2.649  0.0086 -0.5285 -0.2127
   20MOL   C47614194   2.266   0.542   2.603 -0.2129  0.6122  0.1607
   20MOL   O47714195   2.314   0.556   2.485  0.1882 -0.2029 -0.2565
   20MOL   N47814196   2.275   0.638   2.694  0.4044 -0.0494 -0.4860
   20MOL   C47914197   2.308   0.779   2.651  0.8036  0.7473  0.9099
   20MOL   C48014198   2.179   0.856   2.613  0.6712 -0.4179  0.0090
   20MOL   C48114199   2.216   1.001   2.577  0.0007  0.6454 -0.0165
   20MOL   C48214200   2.103   1.100   2.578  0.6436 -0.4698  0.8731
   20MOL   C48314201   1.989   1.085   2.473 -0.5946  0.4410  0.2511
   20MOL   C48414202   1.878   1.197   2.480 -0.6145  0.2083 -0.4315
   20MOL   N48514203   1.926   1.329   2.449 -0.1440 -0.1783  0.0860
   20MOL   C48614204   2.171   0.314   2.554  0.0707  0.0562 -0.5261
   20MOL   C48714205   2.118   0.192   2.597 -0.6412 -0.0131 -0.6082
   20MOL   H48814206   2.168   0.211   2.926  0.4414  2.0131  0.8920
   20MOL   H48914207   2.276   0.440   2.852  2.6416 -1.3612 -0.4947
   20MOL   H49014208   2.235   0.632   2.786  3.8449  2.0716  1.2225
   20MOL   H49114209   2.360   0.833   2.730  1.5804  2.3048 -0.6477
   20MOL   H49214210   2.381   0.780   2.571  0.7167  1.6615  0.8437
   20MOL   H49314211   2.106   0.856   2.694  0.3342 -1.0869 -0.2912
   20MOL   H49414212   2.125   0.811   2.530  0.0855 -0.8812  0.6441
   20MOL   H49514213   2.291   1.028   2.651  2.7634  0.4562 -2.6491
   20MOL   H49614214   2.270   1.002   2.483 -1.2398  1.5477 -0.7368
   20MOL   H49714215   2.144   1.198   2.555  0.7626 -1.1507 -2.0001
   20MOL   H49814216   2.049   1.092   2.672  1.5543  1.9438  1.6205
   20MOL   H49914217   1.926   0.997   2.477 -2.8096  2.0138  0.8288
   20MOL   H50014218   2.036   1.094   2.375  2.1813  2.5436  1.6825
   20MOL   H50114219   1.803   1.160   2.410  0.8653 -0.0814 -1.8803
   20MOL   H50214220   1.824   1.192   2.575 -1.3997  1.8589 -0.7784
   20MOL   H50314221   1.916   1.354   2.352  0.6573  1.9880  0.5356
   20MOL   H50414222   2.164   0.341   2.450 -1.0507  1.6701 -0.0359
   20MOL   H50514223   2.078   0.122   2.526 -0.1618 -0.1832 -0.7151
   20MOL   C50614224   1.989   1.410   2.528  0.0351 -0.0149 -0.1021
   20MOL   O50714225   1.989   1.394   2.649  0.8760 -0.4058  0.1248
   20MOL   C50814226   2.041   1.529   2.458 -0.6542  0.1428  0.1948
   20MOL   C50914227   2.117   1.514   2.341  0.3823 -0.2717  0.1267
   20MOL   C51014228   2.195   1.623   2.301 -0.4744 -0.1544 -0.1526
   20MOL   C51114229   2.193   1.747   2.366  0.1063  0.3340 -0.6733
   20MOL   C51214230   2.282   1.858   2.315 -0.6944  0.6867 -0.1523
   20MOL   O51314231   2.370   1.837   2.224 -0.2719  0.1387 -0.9873
   20MOL   N51414232   2.258   1.971   2.376  0.2227 -0.3330  0.3158
   20MOL   C51514233   2.339   2.097   2.351  0.0697 -0.5197  0.1942
   20MOL   C51614234   2.450   2.115   2.460  0.3265 -0.6099 -0.9294
   20MOL   C51714235   2.393   2.114   2.605 -0.3245 -0.0064  0.2038
   20MOL   C51814236   2.501   2.124   2.708  0.3819  0.5665  0.1687
   20MOL   C51914237   2.455   2.120   2.850 -0.2898  0.1415 -1.0749
   20MOL   C52014238   2.560   2.148   2.952  0.2507 -0.7712 -0.2143
   20MOL   N52114239   2.675   2.063   2.955 -0.2651  0.1979 -0.3025
   20MOL   C52214240   2.102   1.760   2.473 -0.1337  0.4463 -0.3664
   20MOL   C52314241   2.026   1.653   2.521  0.7826 -0.2392 -0.1965
   20MOL   H52414242   2.124   1.415   2.298 -1.0921  0.1986 -1.2016
   20MOL   H52514243   2.258   1.614   2.213  0.5186  1.1780  0.3953
   20MOL   H52614244   2.182   1.976   2.443  1.3962  1.3271  1.5637
   20MOL   H52714245   2.388   2.097   2.253 -1.2234  1.8459 -0.4950
   20MOL   H52814246   2.277   2.185   2.336  1.8251  0.5731 -0.7300
   20MOL   H52914247   2.496   2.212   2.441 -0.5532  0.0524  0.2377
   20MOL   H53014248   2.532   2.044   2.448 -0.7886 -1.7349 -2.0271
   20MOL   H53114249   2.318   2.193   2.607  1.1051  1.3508  0.9220
   20MOL   H53214250   2.349   2.016   2.626 -0.5852 -0.2507 -1.4313
   20MOL   H53314251   2.566   2.208   2.681 -0.3634  0.5171 -1.8087
   20MOL   H53414252   2.573   2.043   2.696  0.9463  1.3424 -2.0114
   20MOL   H53514253   2.412   2.027   2.888 -0.4964  0.6130 -0.1309
   20MOL   H53614254   2.377   2.192   2.875 -0.3857 -0.5764  0.7643
   20MOL   H53714255   2.588   2.250   2.927 -0.0717 -0.7532 -0.5006
   20MOL   H53814256   2.514   2.147   3.051  0.1762 -0.0197 -0.2417
   20MOL   H53914257   2.647   1.970   2.985  0.1265  0.6408  1.4782
   20MOL   H54014258   2.095   1.858   2.519  1.3256  1.0986 -1.4701
   20MOL   H54114259   1.954   1.674   2.599  2.3064  0.8219  0.9532
   20MOL   C54214260   2.800   2.107   2.959 -0.5240 -0.4589  0.0898
   20MOL   O54314261   2.835   2.227   2.960 -0.2418 -0.3823  0.4440
   20MOL   C54414262   2.905   1.994   2.981  0.3540 -0.5990  0.2048
   20MOL   C54514263   3.026   2.027   3.045  0.3665  0.3494  0.2162
   20MOL   C54614264   3.119   1.922   3.068 -0.2385  0.1816  0.2576
   20MOL   C54714265   3.096   1.795   3.011  0.0113  0.5129 -0.2159
   20MOL   C54814266   3.201   1.691   3.031  0.7948 -0.9873  0.0002
   20MOL   O54914267   3.267   1.679   3.138 -0.2743  0.1142  0.2898
   20MOL   N55014268   3.237   1.628   2.921  0.3793 -0.4866 -0.2334
   20MOL   C55114269   3.352   1.532   2.913  0.3135  0.2635 -0.3606
   20MOL   C55214270   3.404   1.521   2.774 -0.1538 -0.0444  0.3941
   20MOL   C55314271   3.520   1.418   2.757 -0.0763 -0.2156  0.5693
   20MOL   C55414272   3.556   1.422   2.609 -0.1649 -0.7884  0.1200
   20MOL   C55514273   3.651   1.302   2.562  0.2442  0.1861  0.5478
   20MOL   C55614274   3.773   1.272   2.653 -0.3547 -0.5256  0.3396
   20MOL   N55714275   3.852   1.391   2.682  0.4093 -0.2263  0.4097
   20MOL   C55814276   2.973   1.766   2.949  0.5344 -0.5821 -0.4827
   20MOL   C55914277   2.874   1.864   2.933  0.1164  0.4423 -0.3660
   20MOL   H56014278   3.052   2.125   3.082 -0.2628  0.9936 -0.9907
   20MOL   H56114279   3.212   1.939   3.120 -0.0954 -0.8211  0.3448
   20MOL   H56214280   3.181   1.641   2.838  0.9571  0.2198 -0.5254
   20MOL   H56314281   3.431   1.563   2.982  0.2981 -1.4434  0.4479
   20MOL   H56414282   3.322   1.434   2.950 -1.4488  0.8721 -0.1284
   20MOL   H56514283   3.449   1.611   2.731  1.2975  0.2563  2.4450
   20MOL   H56614284   3.329   1.484   2.706 -0.5864  0.0911  0.7960
   20MOL   H56714285   3.606   1.444   2.819  0.3656 -1.7577  0.6239
   20MOL   H56814286   3.484   1.321   2.790  2.4376 -1.7113 -0.9227
   20MOL   H56914287   3.605   1.516   2.587  0.3914 -1.0771  0.1310
   20MOL   H57014288   3.467   1.420   2.546  1.3569  0.2608 -2.0878
   20MOL   H57114289   3.677   1.307   2.456 -1.8487 -1.8301 -0.0819
   20MOL   H57214290   3.597   1.208   2.563 -0.4360  0.5794  1.3723
   20MOL   H57314291   3.739   1.222   2.744  0.0404  0.2957  0.9425
   20MOL   H57414292   3.835   1.195   2.606 -1.3624 -2.1017  1.5354
   20MOL   H57514293   3.880   1.409   2.777 -0.2560  2.4527  0.1351
   20MOL   H57614294   2.957   1.669   2.904  1.8951 -0.6202 -0.8911
   20MOL   H57714295   2.794   1.839   2.865  0.7932  1.0365 -1.3997
   20MOL   C57814296   3.932   1.453   2.591 -1.0374 -0.5703  0.0739
   20MOL   O57914297   3.927   1.428   2.472  0.4262  1.0075  0.4907
   20MOL   C58014298   4.040   1.552   2.644  0.7127 -0.0253 -0.2776
   20MOL   C58114299   4.015   1.623   2.766 -1.1244  0.0156 -0.0804
   20MOL   C58214300   4.121   1.706   2.815 -0.0990  0.7236  0.4158
   20MOL   C58314301   4.241   1.720   2.750  0.0251  1.0087 -0.3658
   20MOL   C58414302   4.362   1.785   2.816 -0.1815  0.4766  0.0715
   20MOL   O58514303   4.477   1.740   2.791  0.8121  1.1744 -0.4584
   20MOL   N58614304   4.351   1.892   2.892 -0.8560 -0.3122 -0.2818
   20MOL   C58714305   4.458   1.948   2.975 -0.2140  0.4305  0.4394
   20MOL   C58814306   4.399   2.053   3.069  0.6091  0.0665  0.1565
   20MOL   C58914307   4.511   2.084   3.176  0.2184 -0.1315  0.4493
   20MOL   C59014308   4.473   2.212   3.246  0.1255  0.3404 -0.5267
   20MOL   C59114309   4.575   2.249   3.353  0.1725 -0.1776 -0.0346
   20MOL   C59214310   4.515   2.354   3.447 -0.8041 -0.2160  0.9807
   20MOL   N59314311   4.621   2.428   3.512  0.6067  0.2454  0.4886
   20MOL   C59414312   4.256   1.671   2.624 -0.3632 -0.2587  0.1344
   20MOL   C59514313   4.159   1.579   2.575 -0.0033  0.0385  0.5477
   20MOL   H59614314   3.928   1.610   2.828 -0.5077 -1.3670  0.4992
   20MOL   H59714315   4.108   1.758   2.908  1.3152 -1.4649  1.8952
   20MOL   H59814316   4.263   1.942   2.889 -1.4691 -1.2054  1.9956
   20MOL   H59914317   4.507   1.874   3.038  1.9137 -0.1146 -1.7875
   20MOL   H60014318   4.541   1.982   2.913  0.0888 -1.3890 -0.1690
   20MOL   H60114319   4.319   2.000   3.121  1.0950 -0.9149 -0.0734
   20MOL   H60214320   4.382   2.141   3.007  3.6508  0.0656 -0.7763
   20MOL   H60314321   4.512   2.004   3.251  0.6068 -0.8946 -0.3616
   20MOL   H60414322   4.613   2.093   3.139 -0.4382 -2.2715 -1.9913
   20MOL   H60514323   4.383   2.195   3.305  1.1517 -1.2473  0.6131
   20MOL   H60614324   4.457   2.294   3.175 -0.4755 -0.5714 -1.4576
   20MOL   H60714325   4.673   2.281   3.316  0.4029 -1.1116 -0.2448
   20MOL   H60814326   4.598   2.166   3.419 -1.3080 -1.4637 -1.0898
   20MOL   H60914327   4.469   2.429   3.381  2.9948  1.9320  0.6375
   20MOL   H61014328   4.444   2.319   3.522 -0.8134 -2.0732  0.1198
   20MOL   H61114329   4.618   2.529   3.508  0.4779  0.2248 -0.0352
   20MOL   H61214330   4.347   1.697   2.571  0.5333  0.1506  1.8614
   20MOL   H61314331   4.177   1.540   2.475  1.3706 -3.4273  2.0435
   20MOL   C61414332   4.717   2.381   3.588  0.6167 -0.0163  0.3655
   20MOL   O61514333   4.745   2.265   3.605  0.3498 -0.6941  0.9776
   20MOL   C61614334   4.801   2.488   3.652 -0.1890 -0.2097 -0.1928
   20MOL   C61714335   4.810   2.618   3.603  0.0951 -0.3335 -0.8927
   20MOL   C61814336   4.886   2.721   3.669  0.5253  0.0899  0.7274
   20MOL   C61914337   4.965   2.684   3.779  0.2353  0.5812 -0.3500
   20MOL   C62014338   5.067   2.777   3.833 -0.2170 -0.4779 -0.0760
   20MOL   O62114339   5.087   2.782   3.955  0.2069 -0.6944  0.4691
   20MOL   N62214340   5.146   2.839   3.743  0.4690  0.1048 -0.0023
   20MOL   C62314341   5.248   2.936   3.787  0.0228  0.5836 -0.2868
   20MOL   C62414342   5.198   3.051   3.870 -0.3714  0.7066  0.0268
   20MOL   C62514343   5.098   3.130   3.789 -0.6756  0.0173 -0.1302
   20MOL   C62614344   5.034   3.235   3.882  0.6088 -0.2225 -0.2433
   20MOL   C62714345   4.933   3.322   3.813 -0.4825 -0.4895 -0.1834
   20MOL   C62814346   4.990   3.425   3.715 -0.0793  0.9440  0.4589
   20MOL   N62914347   4.882   3.511   3.658  0.0435  0.1872 -0.2181
   20MOL   C63014348   4.944   2.555   3.838 -0.2660  0.1391 -0.3076
   20MOL   C63114349   4.856   2.462   3.778  0.0607  0.1970  0.1467
   20MOL   H63214350   4.752   2.645   3.516 -1.3896 -1.2035 -0.2053
   20MOL   H63314351   4.875   2.822   3.632 -1.1395 -0.4850 -0.4467
   20MOL   H63414352   5.126   2.835   3.644  2.2373 -2.0605 -0.3124
   20MOL   H63514353   5.324   2.877   3.838 -2.3403 -0.8783  1.6783
   20MOL   H63614354   5.288   2.973   3.693 -1.9810  1.5849 -0.7674
   20MOL   H63714355   5.280   3.114   3.903  0.3513  0.3035 -0.9821
   20MOL   H63814356   5.153   3.015   3.962  1.5604 -0.0592  0.6882
   20MOL   H63914357   5.146   3.186   3.708 -1.4253  0.3600 -0.3416
   20MOL   H64014358   5.016   3.072   3.747 -0.2621 -0.8842  0.3049
   20MOL   H64114359   5.101   3.296   3.944  1.2077 -0.3182 -0.7902
   20MOL   H64214360   4.972   3.185   3.956  0.0546 -0.6349 -0.9764
   20MOL   H64314361   4.883   3.381   3.890  0.2175 -0.1964  0.0551
   20MOL   H64414362   4.861   3.260   3.759 -0.4783  0.3462 -1.1659
   20MOL   H64514363   5.068   3.488   3.759 -0.3699  2.6887 -1.4562
   20MOL   H64614364   5.044   3.371   3.638 -1.5469  0.3091 -0.1425
   20MOL   H64714365   4.850   3.478   3.568 -0.3016  0.1893 -0.0946
   20MOL   H64814366   5.002   2.525   3.924 -1.7352 -1.5263  0.1298
   20MOL   H64914367   4.821   2.378   3.836  0.2065 -0.6993 -1.0694
   20MOL   C65014368   4.825   3.619   3.715  0.2925  0.2770 -0.7436
   20MOL   O65114369   4.862   3.658   3.823 -0.5458  0.3412 -0.2500
   20MOL   C65214370   4.695   3.671   3.651  0.5333 -0.7987  0.2513
   20MOL   C65314371   4.610   3.752   3.728  0.1870  0.1068  0.1594
   20MOL   C65414372   4.497   3.804   3.663 -0.0614  0.8233  0.3358
   20MOL   C65514373   4.453   3.768   3.532 -0.6222 -0.0117 -0.3034
   20MOL   C65614374   4.323   3.816   3.470 -0.4777  0.2108  0.0149
   20MOL   O65714375   4.282   3.933   3.491  0.4273 -0.6099  0.5293
   20MOL   N65814376   4.258   3.711   3.412 -0.6779  0.8785  0.1044
   20MOL   C65914377   4.120   3.728   3.360 -0.0280  0.1500 -0.0203
   20MOL   C66014378   4.098   3.671   3.219  0.2930 -0.2793 -0.4201
   20MOL   C66114379   4.220   3.708   3.123 -0.6572  0.2143  0.2252
   20MOL   C66214380   4.196   3.674   2.980 -0.3205  0.2693 -0.1390
   20MOL   C66314381   4.254   3.777   2.880  0.3067 -0.2461  0.3885
   20MOL   C66414382   4.253   3.758   2.730  0.3187  0.2238  0.0447
   20MOL   N66514383   4.127   3.712   2.686 -0.3944  0.1436 -0.4534
   20MOL   C66614384   4.548   3.698   3.458  0.2232  0.7813 -0.0186
   20MOL   C66714385   4.663   3.645   3.518  0.5423  0.3070 -0.5421
   20MOL   H66814386   4.635   3.789   3.826 -0.3938 -0.6621  0.6082
   20MOL   H66914387   4.441   3.875   3.722 -0.1406  1.1700 -0.1520
   20MOL   H67014388   4.300   3.619   3.419  0.2589  1.3255  0.4474
   20MOL   H67114389   4.047   3.671   3.418 -0.2041  0.0246 -0.3622
   20MOL   H67214390   4.090   3.832   3.367 -0.0727  0.2194 -1.2041
   20MOL   H67314391   4.002   3.708   3.182  0.0375  1.6239  2.0031
   20MOL   H67414392   4.094   3.562   3.223  0.2330 -0.2249  1.8789
   20MOL   H67514393   4.228   3.817   3.124 -0.9524  0.2350  1.2732
   20MOL   H67614394   4.315   3.670   3.161 -0.3389  0.3677 -0.4136
   20MOL   H67714395   4.088   3.664   2.970 -0.4950  1.6951  0.1737
   20MOL   H67814396   4.233   3.575   2.956  1.6377  1.2733 -1.4046
   20MOL   H67914397   4.354   3.809   2.907 -0.5237  2.1888  0.7147
   20MOL   H68014398   4.195   3.868   2.890 -0.7667 -0.7267 -1.3867
   20MOL   H68114399   4.272   3.856   2.685 -1.2930  0.2417 -0.6549
   20MOL   H68214400   4.330   3.689   2.695 -0.8621 -1.3909  0.5843
   20MOL   H68314401   4.083   3.636   2.736 -0.2978 -0.8054 -1.7822
   20MOL   H68414402   4.544   3.681   3.352  0.8428 -1.1574  0.2478
   20MOL   H68514403   4.726   3.585   3.454  0.2301  1.0201 -1.5289
   20MOL   C68614404   4.064   3.737   2.569 -0.4940  0.3361  0.0108
   20MOL   O68714405   4.116   3.805   2.483  0.1993 -0.1146 -0.0464
   20MOL   C68814406   3.924   3.693   2.556 -0.1678 -0.0613 -0.1391
   20MOL   C68914407   3.860   3.614   2.657  1.1613  0.0536  0.7483
   20MOL   C69014408   3.724   3.588   2.656  0.5866  0.5005  0.2346
   20MOL   C69114409   3.645   3.609   2.543 -0.0223 -0.1212 -0.0195
   20MOL   C69214410   3.497   3.584   2.533 -0.4373  0.5402 -0.1594
   20MOL   O69314411   3.439   3.524   2.621  0.2641  0.3036  0.0004
   20MOL   N69414412   3.430   3.622   2.421  0.7883 -0.1581 -0.1011
   20MOL   C69514413   3.300   3.575   2.376  0.3160 -0.2851 -0.3211
   20MOL   C69614414   3.197   3.685   2.376  0.6937 -0.2947  0.2245
   20MOL   C69714415   3.071   3.624   2.318 -0.6645 -0.1814 -0.4235
   20MOL   C69814416   2.956   3.716   2.304 -0.3838  0.3254 -0.2206
   20MOL   C69914417   2.829   3.637   2.257 -0.0832 -0.0034  0.3682
   20MOL   C70014418   2.826   3.581   2.113 -0.3672  0.6778 -0.4126
   20MOL   N70114419   2.891   3.450   2.105 -0.4757 -0.3893 -0.9041
   20MOL   C70214420   3.704   3.699   2.450  0.3748 -0.3815 -0.4584
   20MOL   C70314421   3.840   3.735   2.450 -0.3844  0.1114  0.3350
   20MOL   H70414422   3.904   3.586   2.752  0.7304  1.5445  1.3999
   20MOL   H70514423   3.686   3.529   2.738 -0.3666 -1.1338 -1.3670
   20MOL   H70614424   3.470   3.681   2.349 -0.2430  0.2292 -0.3765
   20MOL   H70714425   3.314   3.530   2.278 -1.5303 -2.4837  0.3639
   20MOL   H70814426   3.267   3.487   2.433 -1.5768 -0.6520 -1.9286
   20MOL   H70914427   3.224   3.779   2.329 -1.1444  0.2212  0.1468
   20MOL   H71014428   3.164   3.714   2.476 -1.4107  0.3815 -0.6472
   20MOL   H71114429   3.085   3.579   2.219 -4.1291 -1.7133 -0.2940
   20MOL   H71214430   3.040   3.544   2.385 -2.5993 -1.2221 -2.4474
   20MOL   H71314431   2.974   3.787   2.224 -1.2524  0.0602 -0.6632
   20MOL   H71414432   2.946   3.780   2.392  0.7490  0.5254 -0.2381
   20MOL   H71514433   2.745   3.701   2.284 -0.8255 -0.6810 -0.3112
   20MOL   H71614434   2.815   3.564   2.337  1.6540 -2.2878 -1.3399
   20MOL   H71714435   2.724   3.561   2.079  0.9406 -1.5911 -3.2982
   20MOL   H71814436   2.864   3.653   2.041  1.6131  0.8895  0.8277
   20MOL   H71914437   2.989   3.460   2.131 -0.8728 -1.1335  0.9570
   20MOL   H72014438   3.647   3.737   2.367 -1.5436  1.2318  1.5359
   20MOL   H72114439   3.877   3.795   2.369  1.1492  0.1616  1.0539
   20MOL   H72214440   2.868   3.384   2.179 -1.7015  0.2504 -0.7177
   21MOL     C114441   1.920   4.240   2.967  0.2546 -0.4758  0.7440
   21MOL     O214442   1.978   4.274   3.073 -0.7387 -0.1866  0.1328
   21MOL     C314443   1.949   4.118   2.885 -0.7746  0.0579 -0.6298
   21MOL     C414444   2.051   4.026   2.928  0.1613  0.4324  0.3454
   21MOL     C514445   2.071   3.912   2.849  0.1659  0.5086  1.1721
   21MOL     C614446   1.981   3.877   2.740 -0.0200  0.2148  0.4756
   21MOL     C714447   1.980   3.740   2.681 -0.0049 -0.1544 -0.1953
   21MOL     O814448   1.934   3.725   2.565 -0.0672  0.1718 -0.3751
   21MOL     N914449   2.044   3.639   2.746  0.3761  0.1616 -0.1853
   21MOL    C1014450   2.067   3.505   2.688  0.0342 -0.6610  0.6701
   21MOL    C1114451   2.192   3.500   2.595  0.7813 -0.2597 -0.4421
   21MOL    C1214452   2.222   3.360   2.543 -0.5067  0.3480 -0.0782
   21MOL    C1314453   2.120   3.322   2.437  0.2138  0.5639  0.4952
   21MOL    C1414454   2.151   3.191   2.364 -0.3747 -0.4634 -0.3519
   21MOL    C1514455   2.030   3.155   2.275  0.7833  0.0407 -0.1648
   21MOL    N1614456   2.054   3.042   2.182  0.4885  0.1907  0.7799
   21MOL    C1714457   1.888   3.972   2.700  0.1338  0.4293  0.8059
   21MOL    C1814458   1.875   4.090   2.772 -0.0848 -0.8767 -0.3680
   21MOL    H1914459   2.117   4.043   3.011  0.2635 -1.8285  0.7612
   21MOL    H2014460   2.153   3.848   2.881 -0.2574 -0.2829  0.6864
   21MOL    H2114461   2.052   3.651   2.846 -0.9866 -3.3743  0.4327
   21MOL    H2214462   2.077   3.434   2.769  1.6136 -1.2915 -0.0380
   21MOL    H2314463   1.979   3.480   2.629  1.0134 -1.3481 -0.5376
   21MOL    H2414464   2.280   3.545   2.642 -0.0133 -0.2373  1.0385
   21MOL    H2514465   2.193   3.571   2.512  2.8808 -1.7139 -1.7041
   21MOL    H2614466   2.323   3.361   2.500 -1.1271 -1.9137 -1.6906
   21MOL    H2714467   2.228   3.280   2.617  2.0492 -0.6964 -1.3287
   21MOL    H2814468   2.108   3.404   2.366  0.7096  0.9512  0.8585
   21MOL    H2914469   2.033   3.316   2.502  0.5413 -2.0543  0.7511
   21MOL    H3014470   2.166   3.117   2.442 -1.1449 -0.6622 -0.3881
   21MOL    H3114471   2.251   3.195   2.321  0.1257 -2.0211  0.6074
   21MOL    H3214472   1.941   3.127   2.331  1.2862 -0.6174  0.3234
   21MOL    H3314473   2.004   3.237   2.209  3.6320  0.4226 -0.8827
   21MOL    H3414474   2.003   2.958   2.205  1.9844 -1.0528 -0.3344
   21MOL    H3514475   1.816   3.943   2.626 -1.2596  0.6647  2.0439
   21MOL    H3614476   1.796   4.163   2.763 -1.1130 -1.7705  1.1734
   21MOL    H3714477   1.837   4.297   2.927  0.9567 -0.0586 -0.1598
   21MOL    C3814478   2.152   3.038   2.089 -0.6669  0.6937  0.2379
   21MOL    O3914479   2.228   3.132   2.077  0.1602 -0.6861 -0.0059
   21MOL    C4014480   2.175   2.910   2.012  0.2798  0.3703 -0.1734
   21MOL    C4114481   2.305   2.858   1.994  0.4432 -0.2613 -0.0988
   21MOL    C4214482   2.327   2.750   1.910  0.3441 -0.9763 -0.0139
   21MOL    C4314483   2.218   2.676   1.862  0.0218 -0.2151 -0.0589
   21MOL    C4414484   2.242   2.559   1.776 -1.1234  0.5721  0.8781
   21MOL    O4514485   2.336   2.485   1.791  0.3768  0.2112 -0.3725
   21MOL    N4614486   2.163   2.532   1.670  0.0455 -0.3889  0.0314
   21MOL    C4714487   2.182   2.419   1.578 -0.7794 -0.5141 -0.4460
   21MOL    C4814488   2.266   2.450   1.455  0.6338  0.2725  0.4499
   21MOL    C4914489   2.284   2.339   1.351  1.0444 -0.2595  0.3388
   21MOL    C5014490   2.400   2.351   1.252  0.0500  0.2497 -0.6477
   21MOL    C5114491   2.374   2.474   1.156 -0.1988 -0.1085 -0.3338
   21MOL    C5214492   2.255   2.452   1.058  1.2446 -0.4353 -0.0231
   21MOL    N5314493   2.250   2.559   0.951 -0.5087  0.0944 -1.1479
   21MOL    C5414494   2.087   2.723   1.882 -0.6619  0.0916  0.3504
   21MOL    C5514495   2.067   2.850   1.950  0.2572  0.6765  0.3230
   21MOL    H5614496   2.389   2.901   2.046 -0.5549  1.5954  0.0403
   21MOL    H5714497   2.429   2.719   1.891 -0.3803 -3.3624 -0.1819
   21MOL    H5814498   2.081   2.591   1.669  2.1535  2.6412 -0.4845
   21MOL    H5914499   2.238   2.340   1.629 -0.4500 -1.2502 -1.9400
   21MOL    H6014500   2.083   2.385   1.546 -1.3882 -1.0053  1.8124
   21MOL    H6114501   2.364   2.472   1.497  0.4704  2.0743 -0.0653
   21MOL    H6214502   2.233   2.548   1.421 -2.5214 -0.7309  0.4414
   21MOL    H6314503   2.301   2.250   1.411 -0.6179  0.7367  2.3545
   21MOL    H6414504   2.193   2.323   1.293  1.3042  1.8169 -0.7255
   21MOL    H6514505   2.402   2.254   1.202  1.0077 -1.3418  2.3851
   21MOL    H6614506   2.490   2.360   1.314 -2.2552  0.5244  2.7707
   21MOL    H6714507   2.466   2.480   1.098 -0.5361 -0.4421 -0.9024
   21MOL    H6814508   2.362   2.556   1.226 -0.8864  0.7691 -1.4833
   21MOL    H6914509   2.250   2.354   1.011 -1.7884  0.7658 -2.3986
   21MOL    H7014510   2.159   2.467   1.108  0.9936  0.5603 -0.7797
   21MOL    H7114511   2.290   2.648   0.977  2.5367 -2.0244  1.7276
   21MOL    H7214512   2.007   2.664   1.838 -0.1492 -0.6077  0.3548
   21MOL    H7314513   1.964   2.879   1.957  0.7214  2.3705  0.3248
   21MOL    C7414514   2.185   2.552   0.833  0.7092  0.0066  0.0732
   21MOL    O7514515   2.120   2.454   0.797  0.6233 -0.1968  0.0872
   21MOL    C7614516   2.195   2.674   0.745 -0.1407  0.1312 -0.9067
   21MOL    C7714517   2.074   2.738   0.698 -0.0617  0.9245 -0.3246
   21MOL    C7814518   2.086   2.853   0.616 -0.1033 -0.4755  0.5431
   21MOL    C7914519   2.214   2.910   0.587  0.3697 -0.3418 -0.1663
   21MOL    C8014520   2.231   3.044   0.517 -1.0130  0.0162  0.1701
   21MOL    O8114521   2.341   3.089   0.485 -0.1430  0.3192  1.1159
   21MOL    N8214522   2.122   3.114   0.496 -0.6305  0.7626 -0.1848
   21MOL    C8314523   2.109   3.256   0.458 -1.1468  0.4682 -0.2348
   21MOL    C8414524   2.038   3.346   0.569 -0.4720  0.3401  0.2544
   21MOL    C8514525   2.023   3.491   0.521 -0.2273 -0.0211  0.1639
   21MOL    C8614526   1.945   3.586   0.617 -0.2326  0.0578  0.0572
   21MOL    C8714527   1.923   3.730   0.565 -0.6094  0.0174 -0.4307
   21MOL    C8814528   1.825   3.820   0.639  0.8046  0.1795  0.4495
   21MOL    N8914529   1.818   3.951   0.577 -0.5070 -0.5635  0.4385
   21MOL    C9014530   2.326   2.835   0.617 -0.0935  0.1471  1.1342
   21MOL    C9114531   2.322   2.719   0.703  0.2605 -0.1445 -0.1833
   21MOL    H9214532   1.977   2.706   0.733 -0.1434  1.1581 -0.3350
   21MOL    H9314533   1.996   2.899   0.579  1.0732  0.7277 -0.9126
   21MOL    H9414534   2.034   3.077   0.530  0.8259 -3.0058 -0.3014
   21MOL    H9514535   2.201   3.308   0.435  0.2303 -1.9004 -0.2179
   21MOL    H9614536   2.046   3.265   0.369  0.0840  1.9230 -0.9838
   21MOL    H9714537   2.103   3.343   0.656  1.5037  2.0578 -1.1033
   21MOL    H9814538   1.941   3.303   0.595 -1.2414  1.1498 -1.1987
   21MOL    H9914539   2.120   3.537   0.505 -0.5134  0.1188 -1.2052
   21MOL   H10014540   1.976   3.489   0.422  1.4357  1.3201 -0.6783
   21MOL   H10114541   1.992   3.584   0.715  1.0718  0.0807 -0.5513
   21MOL   H10214542   1.841   3.555   0.629 -1.2270  3.6590  1.4190
   21MOL   H10314543   1.882   3.729   0.464 -1.3492  0.9257 -0.1493
   21MOL   H10414544   2.022   3.775   0.549 -0.4047 -0.1882  0.2427
   21MOL   H10514545   1.724   3.779   0.640  1.8175 -2.4324  1.1059
   21MOL   H10614546   1.857   3.842   0.741 -0.3909  0.4351  0.7740
   21MOL   H10714547   1.888   4.014   0.614  0.4504 -1.0474 -0.5263
   21MOL   H10814548   2.421   2.878   0.588 -0.5701 -0.6328 -1.7671
   21MOL   H10914549   2.410   2.670   0.743  1.7903 -0.5573 -3.8510
   21MOL   C11014550   1.740   3.999   0.475  0.3242 -0.9043 -0.2366
   21MOL   O11114551   1.653   3.921   0.424  0.0211  0.1185  0.4281
   21MOL   C11214552   1.768   4.140   0.436 -0.0393 -0.7102  0.4817
   21MOL   C11314553   1.809   4.245   0.524  0.2834  0.5935 -0.0063
   21MOL   C11414554   1.831   4.377   0.477 -0.0637  0.0668 -0.2674
   21MOL   C11514555   1.800   4.417   0.345 -0.0139  0.2835 -0.4499
   21MOL   C11614556   1.835   4.556   0.289 -0.3949  0.0458 -0.2264
   21MOL   O11714557   1.783   4.600   0.185  0.3574  0.0219  0.8966
   21MOL   N11814558   1.946   4.605   0.345  0.5341 -0.1383  0.1066
   21MOL   C11914559   2.014   4.728   0.317  0.0304 -1.0231  0.4668
   21MOL   C12014560   2.110   4.773   0.437 -0.0009  0.3032  0.0122
   21MOL   C12114561   2.072   4.697   0.564 -0.7227  0.4872 -0.0617
   21MOL   C12214562   2.162   4.758   0.670 -0.2905 -0.3143 -0.2585
   21MOL   C12314563   2.148   4.691   0.813 -0.0840  0.3505  0.1714
   21MOL   C12414564   2.035   4.764   0.894  0.4632 -0.3900 -0.2544
   21MOL   N12514565   1.910   4.685   0.873 -0.0477  0.2104 -0.2173
   21MOL   C12614566   1.743   4.313   0.264 -0.4048  0.4833 -0.3121
   21MOL   C12714567   1.733   4.179   0.312  0.0986  0.3826  0.5200
   21MOL   H12814568   1.830   4.222   0.627 -1.0600 -0.0194  0.1441
   21MOL   H12914569   1.871   4.442   0.553 -0.5020  1.4930 -1.2491
   21MOL   H13014570   1.987   4.547   0.417  0.5240 -2.0351 -1.3999
   21MOL   H13114571   2.045   4.735   0.213  0.3389  0.1362  0.6367
   21MOL   H13214572   1.939   4.807   0.319  0.6384 -0.4390  0.5155
   21MOL   H13314573   2.093   4.880   0.455  2.1093  0.6706 -0.0174
   21MOL   H13414574   2.213   4.765   0.402 -0.8419  1.2289 -2.7473
   21MOL   H13514575   1.965   4.700   0.583 -0.6031 -2.0939  1.2589
   21MOL   H13614576   2.099   4.591   0.558 -2.5509 -0.0426  0.7725
   21MOL   H13714577   2.151   4.865   0.689  1.2305 -0.0519 -0.8217
   21MOL   H13814578   2.266   4.747   0.640 -0.9188 -1.1294 -2.2096
   21MOL   H13914579   2.239   4.709   0.870 -1.7140  1.1909  2.5529
   21MOL   H14014580   2.137   4.583   0.802 -1.1318  0.5520 -0.8781
   21MOL   H14114581   2.057   4.757   1.000 -2.3388  1.3079  0.4946
   21MOL   H14214582   2.024   4.867   0.860 -0.6193 -0.8525 -1.3358
   21MOL   H14314583   1.914   4.587   0.899 -0.1019  0.0154 -0.9355
   21MOL   H14414584   1.711   4.332   0.163 -4.8668 -1.1066  0.7093
   21MOL   H14514585   1.692   4.116   0.234  0.3567 -0.2617  0.9090
   21MOL   C14614586   1.803   4.722   0.804  0.3268  0.4910 -0.2932
   21MOL   O14714587   1.788   4.835   0.754 -0.1442 -0.5472  0.2835
   21MOL   C14814588   1.700   4.616   0.776 -0.4669  0.1406  0.7440
   21MOL   C14914589   1.597   4.650   0.691  0.2729  0.6356  0.5827
   21MOL   C15014590   1.509   4.543   0.650 -1.1895  0.1550 -0.1108
   21MOL   C15114591   1.519   4.410   0.702 -0.0071  0.6973  0.5464
   21MOL   C15214592   1.427   4.303   0.661  0.1934 -0.0830 -0.6324
   21MOL   O15314593   1.394   4.298   0.545  0.4168  0.3382  0.0825
   21MOL   N15414594   1.382   4.215   0.757  0.2816 -0.3557 -0.1159
   21MOL   C15514595   1.265   4.128   0.758  0.4535  0.0424 -0.1592
   21MOL   C15614596   1.308   3.988   0.805  0.4268  0.3743  0.0060
   21MOL   C15714597   1.423   3.936   0.721  0.2029  0.3182 -0.0894
   21MOL   C15814598   1.420   3.780   0.694  1.1594  0.9200  0.4074
   21MOL   C15914599   1.447   3.691   0.816 -0.5285  0.3417 -0.5943
   21MOL   C16014600   1.426   3.549   0.781 -0.5491 -0.2609  0.5122
   21MOL   N16114601   1.479   3.460   0.880  0.2666 -0.7198 -0.1493
   21MOL   C16214602   1.619   4.384   0.795 -0.1381 -0.1685  0.5504
   21MOL   C16314603   1.714   4.486   0.827  0.0180 -0.1374 -0.4971
   21MOL   H16414604   1.586   4.745   0.643  2.0671 -0.1902 -1.5085
   21MOL   H16514605   1.435   4.568   0.575 -0.4911 -1.4834 -1.3739
   21MOL   H16614606   1.426   4.243   0.843  0.0830  0.0358 -0.1383
   21MOL   H16714607   1.190   4.173   0.823  1.3113  0.2051  0.7330
   21MOL   H16814608   1.233   4.124   0.654 -1.5350  4.3841  0.1910
   21MOL   H16914609   1.224   3.920   0.791  0.1343  0.8093 -0.3615
   21MOL   H17014610   1.331   3.980   0.912 -1.5277 -1.3372  0.3377
   21MOL   H17114611   1.431   3.989   0.626 -0.0957  0.7940  0.1452
   21MOL   H17214612   1.512   3.962   0.778 -0.5121 -0.6470  1.4963
   21MOL   H17314613   1.502   3.760   0.625  1.0133  0.3115  0.4123
   21MOL   H17414614   1.337   3.749   0.631  1.7578  0.3691 -0.1228
   21MOL   H17514615   1.392   3.716   0.907  1.2199  0.7905  0.3535
   21MOL   H17614616   1.553   3.705   0.838 -0.7032  0.7232  0.0106
   21MOL   H17714617   1.320   3.528   0.763 -0.1727 -1.8017  0.0347
   21MOL   H17814618   1.473   3.522   0.687 -0.2392 -0.8591  0.8393
   21MOL   H17914619   1.577   3.437   0.880 -0.0325 -2.0711 -1.1074
   21MOL   H18014620   1.636   4.288   0.842  1.5160  0.0499  0.4379
   21MOL   H18114621   1.800   4.459   0.886 -0.2910 -0.0701 -0.0121
   21MOL   C18214622   1.405   3.394   0.969  0.9422  0.2468 -0.2342
   21MOL   O18314623   1.282   3.423   0.983  0.0813 -0.1245 -0.2588
   21MOL   C18414624   1.467   3.288   1.055  0.1396  0.1551 -0.2648
   21MOL   C18514625   1.590   3.302   1.120  0.1600 -0.7278  0.5095
   21MOL   C18614626   1.642   3.200   1.202  0.5827 -0.6146 -0.8710
   21MOL   C18714627   1.560   3.085   1.236  0.0866  0.0433  0.2345
   21MOL   C18814628   1.617   2.957   1.296 -0.0335  0.4256 -0.0177
   21MOL   O18914629   1.729   2.926   1.263 -0.2144  0.0570  0.0908
   21MOL   N19014630   1.542   2.891   1.379 -0.0607 -0.1538 -0.8413
   21MOL   C19114631   1.576   2.759   1.431  0.0785  0.4246  0.3293
   21MOL   C19214632   1.521   2.653   1.331  0.5958 -0.4739 -0.3633
   21MOL   C19314633   1.502   2.514   1.397 -0.3482 -0.2311 -0.1787
   21MOL   C19414634   1.453   2.413   1.283 -0.4881 -0.2226  0.4298
   21MOL   C19514635   1.301   2.435   1.259 -0.7452  0.6267 -0.0852
   21MOL   C19614636   1.249   2.352   1.141  0.3850  0.1817  0.4458
   21MOL   N19714637   1.288   2.413   1.012 -0.0468 -0.0243  0.5626
   21MOL   C19814638   1.431   3.082   1.184 -0.3033 -0.1728 -0.3707
   21MOL   C19914639   1.390   3.181   1.097 -0.0170  0.1825 -0.2190
   21MOL   H20014640   1.646   3.393   1.107 -0.1524 -0.7449 -1.0032
   21MOL   H20114641   1.743   3.200   1.241  0.5747  0.7358 -0.8391
   21MOL   H20214642   1.465   2.934   1.429  0.3877 -3.1831  2.6571
   21MOL   H20314643   1.681   2.754   1.459  1.1347  1.6235 -3.1598
   21MOL   H20414644   1.523   2.756   1.526 -0.5547  0.7266 -0.0076
   21MOL   H20514645   1.587   2.651   1.245 -0.6274  0.0337 -1.3296
   21MOL   H20614646   1.426   2.693   1.295  0.0258  0.0170  1.5912
   21MOL   H20714647   1.598   2.477   1.432 -0.1507 -0.1638 -0.6519
   21MOL   H20814648   1.431   2.510   1.480 -2.0854  1.8112 -1.5156
   21MOL   H20914649   1.470   2.308   1.305  1.2116  0.0473  0.4505
   21MOL   H21014650   1.519   2.426   1.197 -0.6734  0.7156  0.4175
   21MOL   H21114651   1.280   2.539   1.237 -1.3567  0.2931 -1.1483
   21MOL   H21214652   1.250   2.411   1.352 -2.3015  0.3478 -0.9884
   21MOL   H21314653   1.300   2.258   1.163  1.2737  1.0061  1.9571
   21MOL   H21414654   1.141   2.335   1.143  0.0827  1.8853 -0.7613
   21MOL   H21514655   1.317   2.509   0.995  1.0095 -0.4217  0.0660
   21MOL   H21614656   1.371   2.994   1.202 -1.6295  0.6786 -0.5945
   21MOL   H21714657   1.287   3.173   1.065 -0.8895  1.6815  2.0999
   21MOL   C21814658   1.257   2.353   0.897 -0.1200  0.1643  0.5852
   21MOL   O21914659   1.201   2.245   0.885 -0.1022 -0.3331 -0.0860
   21MOL   C22014660   1.316   2.432   0.774  0.6787 -0.1077 -0.5929
   21MOL   C22114661   1.432   2.503   0.784 -0.7982  0.0715 -0.3740
   21MOL   C22214662   1.490   2.558   0.665 -0.4635  0.0652  0.1915
   21MOL   C22314663   1.415   2.565   0.545 -0.1700  0.3264  0.2216
   21MOL   C22414664   1.493   2.613   0.429  0.3093  0.0675  0.7773
   21MOL   O22514665   1.490   2.544   0.327  0.6099  0.1602 -0.0260
   21MOL   N22614666   1.561   2.726   0.432  0.0334  0.3454  0.2003
   21MOL   C22714667   1.646   2.777   0.330 -0.3550  0.3097  0.2111
   21MOL   C22814668   1.789   2.775   0.382 -0.1117  0.3741  0.3445
   21MOL   C22914669   1.875   2.840   0.272 -0.4202 -0.3691  0.2972
   21MOL   C23014670   1.881   2.765   0.139  0.1148 -0.2317  0.3060
   21MOL   C23114671   1.793   2.823   0.028  0.3423 -0.2828 -0.6346
   21MOL   C23214672   1.872   2.889   7.801  0.5331  0.2988  0.2125
   21MOL   N23314673   1.973   2.980   7.851 -0.6537 -0.0982  0.0823
   21MOL   C23414674   1.288   2.499   0.535  0.8367  0.0380 -0.3127
   21MOL   C23514675   1.247   2.435   0.651  0.1360  0.0886 -1.0693
   21MOL   H23614676   1.483   2.513   0.878 -0.9169  1.5027 -0.4412
   21MOL   H23714677   1.591   2.598   0.665 -0.4035 -0.0853  0.8808
   21MOL   H23814678   1.539   2.786   0.510 -0.5721  2.5254 -1.5847
   21MOL   H23914679   1.632   2.720   0.238  0.2063  2.4469 -1.2397
   21MOL   H24014680   1.609   2.879   0.324  0.8594  0.7529  0.2594
   21MOL   H24114681   1.820   2.679   0.421 -0.0716  0.3005  0.1289
   21MOL   H24214682   1.787   2.847   0.465 -1.4908 -0.3479  0.9463
   21MOL   H24314683   1.826   2.936   0.254  0.7648  0.3591  0.9076
   21MOL   H24414684   1.975   2.849   0.314 -0.9126  2.0908  1.0506
   21MOL   H24514685   1.850   2.662   0.161 -2.6729  0.9540  2.2555
   21MOL   H24614686   1.987   2.754   0.113  0.4471  1.9360  0.6465
   21MOL   H24714687   1.724   2.897   0.069  2.1156  1.7674 -1.2728
   21MOL   H24814688   1.722   2.750   7.875 -0.1026  0.5160 -1.3429
   21MOL   H24914689   1.914   2.812   7.736 -1.6136  0.3924 -1.3271
   21MOL   H25014690   1.803   2.947   7.740 -1.3632 -1.2710  0.8239
   21MOL   H25114691   2.067   2.963   7.819 -0.7716 -0.0394 -0.3067
   21MOL   H25214692   1.229   2.480   0.446  1.2620 -0.2476 -0.5362
   21MOL   H25314693   1.150   2.387   0.652 -0.3469  1.0584  1.8578
   21MOL   C25414694   1.954   3.100   0.027  0.0262  0.3711  0.1837
   21MOL   O25514695   1.840   3.141   0.046  0.3422 -0.5577  0.6186
   21MOL   C25614696   2.072   3.176   0.076  0.0320  0.1420 -0.0278
   21MOL   C25714697   2.182   3.107   0.124 -0.7496  0.1546  0.3320
   21MOL   C25814698   2.298   3.176   0.168 -0.5588  0.2263  0.4673
   21MOL   C25914699   2.306   3.317   0.161 -0.5327 -0.4057 -0.5390
   21MOL   C26014700   2.421   3.393   0.206  0.2590 -0.6895 -0.2440
   21MOL   O26114701   2.419   3.519   0.198 -0.5659 -0.2826 -0.1362
   21MOL   N26214702   2.517   3.321   0.261 -0.0578 -0.6756 -0.0036
   21MOL   C26314703   2.642   3.389   0.293  0.2732 -0.1498  0.1179
   21MOL   C26414704   2.723   3.308   0.399  0.0632 -0.3605  0.3078
   21MOL   C26514705   2.874   3.346   0.407 -0.1010  1.1206 -0.2663
   21MOL   C26614706   2.961   3.247   0.480 -0.5344  0.3508 -0.2412
   21MOL   C26714707   2.954   3.257   0.640  0.1992  0.4931 -0.2857
   21MOL   C26814708   3.025   3.142   0.719  0.1246  0.0233 -0.2112
   21MOL   N26914709   3.148   3.189   0.776 -0.7454  0.2940 -0.3711
   21MOL   C27014710   2.193   3.388   0.116  0.4290 -0.0157 -0.6018
   21MOL   C27114711   2.074   3.316   0.081 -0.2036 -0.1976  0.1900
   21MOL   H27214712   2.185   2.999   0.120 -2.7471  0.1500 -2.5193
   21MOL   H27314713   2.381   3.119   0.207 -0.9991  0.6533  2.0727
   21MOL   H27414714   2.504   3.222   0.280  1.6273 -0.6223  1.5209
   21MOL   H27514715   2.703   3.404   0.204 -0.4156 -0.0621 -0.3429
   21MOL   H27614716   2.625   3.486   0.339  0.3717 -0.3220  0.5239
   21MOL   H27714717   2.711   3.204   0.369 -1.4042  0.2748 -1.3245
   21MOL   H27814718   2.685   3.331   0.499  2.1743 -2.0352  1.5398
   21MOL   H27914719   2.913   3.355   0.306  1.1082  1.8829  0.2665
   21MOL   H28014720   2.880   3.448   0.445  2.3963  0.6457  0.6629
   21MOL   H28114721   3.063   3.278   0.458 -0.5064  0.7532  0.4363
   21MOL   H28214722   2.950   3.142   0.451  3.7325  0.4802 -2.6358
   21MOL   H28314723   2.849   3.235   0.657  0.4317 -0.0336  0.4955
   21MOL   H28414724   2.969   3.362   0.665 -1.3959  0.5161  0.5827
   21MOL   H28514725   2.960   3.127   0.806  0.6700  0.8913  0.3565
   21MOL   H28614726   3.037   3.051   0.660  1.2372  0.0947 -0.0997
   21MOL   H28714727   3.146   3.198   0.876 -0.4979 -1.4491 -0.1961
   21MOL   H28814728   2.196   3.493   0.093  1.7115 -0.1433 -1.0382
   21MOL   H28914729   1.998   3.379   0.037  0.0855 -0.2114 -0.3262
   21MOL   C29014730   3.273   3.201   0.726  0.0683 -0.1631 -0.5194
   21MOL   O29114731   3.301   3.193   0.609 -0.7387 -0.4529  0.3093
   21MOL   C29214732   3.382   3.222   0.824 -0.5050 -0.3111  0.1448
   21MOL   C29314733   3.363   3.183   0.960  0.2263  0.3596 -0.6282
   21MOL   C29414734   3.469   3.190   1.049  0.4037 -0.5813  0.0448
   21MOL   C29514735   3.595   3.241   1.013  0.2302 -0.4662  0.2185
   21MOL   C29614736   3.705   3.238   1.116  0.3073 -0.4073  0.8101
   21MOL   O29714737   3.684   3.224   1.237 -0.1134  0.1838  0.1703
   21MOL   N29814738   3.824   3.269   1.066  0.5153 -0.5236 -0.2211
   21MOL   C29914739   3.949   3.282   1.149 -0.9140  0.0543 -0.3158
   21MOL   C30014740   4.002   3.431   1.166 -0.0774 -0.2024 -0.8377
   21MOL   C30114741   3.902   3.516   1.256  0.1906  0.1367 -0.8259
   21MOL   C30214742   3.813   3.606   1.171 -0.4505  1.2650 -0.2589
   21MOL   C30314743   3.727   3.684   1.264 -0.7025  0.3161  0.5467
   21MOL   C30414744   3.610   3.732   1.187  0.3671 -0.3218 -0.2126
   21MOL   N30514745   3.521   3.808   1.274 -0.1164 -0.0435 -0.3156
   21MOL   C30614746   3.616   3.282   0.881  0.9300  0.1186 -0.0678
   21MOL   C30714747   3.505   3.277   0.795  0.3530 -0.2574  0.5328
   21MOL   H30814748   3.265   3.146   0.987  0.1718  0.0511 -1.2349
   21MOL   H30914749   3.451   3.159   1.151  0.5690 -0.5486  0.0847
   21MOL   H31014750   3.838   3.275   0.966 -0.1894  0.6380 -0.2570
   21MOL   H31114751   3.920   3.255   1.251 -2.2027 -1.5997 -1.1016
   21MOL   H31214752   4.025   3.215   1.111  0.1595  0.9732  0.1807
   21MOL   H31314753   4.026   3.480   1.072  2.5806 -1.2404 -0.7383
   21MOL   H31414754   4.089   3.423   1.231 -0.8680  0.6191  0.3579
   21MOL   H31514755   3.843   3.453   1.322  0.9974 -0.0213 -0.2535
   21MOL   H31614756   3.950   3.586   1.324 -0.1562  0.4165 -0.8662
   21MOL   H31714757   3.753   3.553   1.097 -2.1133  0.6915  1.4752
   21MOL   H31814758   3.876   3.668   1.106  1.5621 -0.5417 -0.0677
   21MOL   H31914759   3.772   3.769   1.315 -1.1237  0.2900  0.9549
   21MOL   H32014760   3.687   3.619   1.342  0.3627 -0.0059  0.8338
   21MOL   H32114761   3.649   3.799   1.110  0.0492  0.0936 -0.0129
   21MOL   H32214762   3.555   3.653   1.136  0.1492 -0.5989  0.4462
   21MOL   H32314763   3.457   3.751   1.328 -0.9329 -0.1741 -1.3874
   21MOL   H32414764   3.709   3.313   0.836  0.8198 -0.2175 -0.5313
   21MOL   H32514765   3.524   3.316   0.697 -0.9320 -0.3239  0.2482
   21MOL   C32614766   3.523   3.940   1.283 -0.3710  0.0532  0.4428
   21MOL   O32714767   3.592   4.005   1.207 -0.5214  0.2137  0.0071
   21MOL   C32814768   3.434   4.000   1.381  0.4270 -0.3793  0.5531
   21MOL   C32914769   3.385   4.138   1.358  0.4159  0.6934  0.7925
   21MOL   C33014770   3.290   4.194   1.448 -0.1722  0.9976  0.2955
   21MOL   C33114771   3.250   4.120   1.560  0.2618  0.2642  0.5717
   21MOL   C33214772   3.145   4.187   1.650 -0.3994  0.2912 -0.1674
   21MOL   O33314773   3.123   4.156   1.765 -0.1671  0.4067 -0.1598
   21MOL   N33414774   3.080   4.292   1.593 -0.0426  0.2908  0.1170
   21MOL   C33514775   2.980   4.377   1.659 -0.3086  0.2141  0.2710
   21MOL   C33614776   2.835   4.367   1.609 -0.0578  1.2657  0.5313
   21MOL   C33714777   2.740   4.471   1.672 -0.2382 -0.4154 -0.7960
   21MOL   C33814778   2.618   4.491   1.586 -0.0322  0.0288  0.1421
   21MOL   C33914779   2.528   4.364   1.572 -0.4825 -0.2832  0.1448
   21MOL   C34014780   2.388   4.400   1.526 -0.2355 -0.7810 -0.0963
   21MOL   N34114781   2.310   4.274   1.526 -0.0527 -0.3033 -0.1585
   21MOL   C34214782   3.304   3.993   1.586 -0.0017 -0.0469 -0.0953
   21MOL   C34314783   3.397   3.933   1.499 -0.0018 -0.1541  0.7874
   21MOL   H34414784   3.414   4.198   1.273 -0.1165  0.4378  0.4375
   21MOL   H34514785   3.249   4.292   1.432 -0.2175  1.0169  0.5398
   21MOL   H34614786   3.106   4.312   1.498  1.4437 -0.2899  0.3886
   21MOL   H34714787   2.987   4.358   1.767  2.2404 -0.8778 -0.0516
   21MOL   H34814788   3.022   4.475   1.643  0.0272 -0.2107 -1.5188
   21MOL   H34914789   2.797   4.268   1.634 -3.7321  1.7237 -2.7248
   21MOL   H35014790   2.826   4.361   1.500 -1.2655 -1.4528  0.7359
   21MOL   H35114791   2.712   4.429   1.768  2.7732 -1.7545 -0.4452
   21MOL   H35214792   2.796   4.564   1.667  0.9457 -1.0729  0.2046
   21MOL   H35314793   2.642   4.538   1.491 -0.4332  0.7318  0.3804
   21MOL   H35414794   2.557   4.556   1.650 -0.5730 -2.0783  1.8306
   21MOL   H35514795   2.530   4.318   1.671 -0.8837 -0.0221  0.2740
   21MOL   H35614796   2.574   4.289   1.507  0.5782  1.0865 -0.6975
   21MOL   H35714797   2.353   4.473   1.599 -0.2855 -2.3250  1.4620
   21MOL   H35814798   2.390   4.449   1.428  1.5602 -0.9319 -0.1534
   21MOL   H35914799   2.363   4.189   1.535  0.1650 -0.1546 -0.0126
   21MOL   H36014800   3.272   3.940   1.674  0.2114  1.0426  0.6400
   21MOL   H36114801   3.423   3.830   1.518 -0.5469 -0.4353  0.0651
   21MOL   C36214802   2.180   4.253   1.534 -0.8437 -0.4217  0.3410
   21MOL   O36314803   2.087   4.338   1.523 -0.9748 -0.2125  0.0616
   21MOL   C36414804   2.151   4.108   1.566  0.4017  0.0127 -0.3266
   21MOL   C36514805   2.223   4.032   1.663  0.3183  0.0991 -0.2784
   21MOL   C36614806   2.185   3.903   1.706 -0.4633  0.6947 -0.1012
   21MOL   C36714807   2.069   3.849   1.641  0.2419  0.4218  0.1340
   21MOL   C36814808   2.027   3.714   1.680 -0.3959 -0.5158 -0.3524
   21MOL   O36914809   1.990   3.632   1.599 -0.2856 -0.2951 -0.4375
   21MOL   N37014810   2.020   3.695   1.809  1.0552 -0.2642 -0.1166
   21MOL   C37114811   1.982   3.571   1.874  0.0380  0.2686 -0.1194
   21MOL   C37214812   1.940   3.592   2.020  0.2964  0.3099 -0.1407
   21MOL   C37314813   1.842   3.494   2.077  0.4870 -0.2259  0.5957
   21MOL   C37414814   1.833   3.503   2.234 -0.7625 -0.2248  0.1199
   21MOL   C37514815   1.734   3.396   2.285  0.8425  0.4563 -0.1279
   21MOL   C37614816   1.734   3.391   2.433 -0.2604  0.2854 -0.1397
   21MOL   N37714817   1.689   3.511   2.501  0.3913  0.6810 -0.4889
   21MOL   C37814818   2.007   3.914   1.532 -0.1605  0.0850 -0.3820
   21MOL   C37914819   2.053   4.041   1.496 -0.6068 -0.4541  0.0277
   21MOL   H38014820   2.291   4.086   1.727  1.5458 -1.0729 -0.5625
   21MOL   H38114821   2.240   3.849   1.781 -1.0728 -4.2969 -3.0540
   21MOL   H38214822   2.045   3.777   1.862 -0.8279 -0.8152  1.6471
   21MOL   H38314823   1.904   3.521   1.817  0.8441 -2.2992  0.9306
   21MOL   H38414824   2.068   3.503   1.873  0.1690  0.4343 -2.3309
   21MOL   H38514825   1.898   3.692   2.033 -3.4704 -1.0846 -1.0771
   21MOL   H38614826   2.036   3.590   2.072  0.5453 -0.4356 -0.6121
   21MOL   H38714827   1.747   3.508   2.024  0.7770  0.0757  0.1550
   21MOL   H38814828   1.863   3.392   2.048  0.5742  0.6943 -2.7390
   21MOL   H38914829   1.811   3.606   2.261  1.1510  1.4881 -4.3024
   21MOL   H39014830   1.927   3.479   2.282 -0.1991  1.1914 -0.2387
   21MOL   H39114831   1.770   3.300   2.249  1.8626  0.7884 -0.0136
   21MOL   H39214832   1.633   3.417   2.247  0.8104  2.4626  0.9773
   21MOL   H39314833   1.674   3.306   2.468  0.3714  0.0151  0.2779
   21MOL   H39414834   1.830   3.357   2.471  0.3714 -1.0901 -2.8084
   21MOL   H39514835   1.706   3.596   2.449  2.1981  0.2703 -0.6168
   21MOL   H39614836   1.921   3.881   1.476 -1.1763 -0.7783  1.6080
   21MOL   H39714837   2.000   4.094   1.419 -0.5897 -2.5981 -1.4882
   21MOL   C39814838   1.640   3.525   2.621  0.3501 -0.5056 -0.1080
   21MOL   O39914839   1.625   3.433   2.706 -0.2557 -0.1760 -0.1778
   21MOL   C40014840   1.607   3.664   2.658 -0.2796 -0.0292 -0.1846
   21MOL   C40114841   1.544   3.750   2.562 -0.5153 -0.3102  0.4298
   21MOL   C40214842   1.510   3.882   2.601 -0.8794  0.6147  0.2039
   21MOL   C40314843   1.545   3.929   2.734 -0.0091  0.0604  0.7507
   21MOL   C40414844   1.514   4.072   2.774  0.2614  0.2864 -0.8325
   21MOL   O40514845   1.572   4.124   2.870 -0.6226  0.4532  0.0928
   21MOL   N40614846   1.419   4.131   2.701  0.2437  0.1307 -0.3052
   21MOL   C40714847   1.377   4.263   2.724  0.0656 -0.0312 -0.1016
   21MOL   C40814848   1.244   4.288   2.654 -0.5070  0.3600  0.1423
   21MOL   C40914849   1.218   4.207   2.522  0.0197  0.0135  0.5324
   21MOL   C41014850   1.098   4.252   2.441  0.1801 -0.0094 -0.1064
   21MOL   C41114851   1.049   4.157   2.326 -0.1519 -0.0207 -0.0402
   21MOL   C41214852   1.164   4.144   2.224  0.3559  0.0683  0.2681
   21MOL   N41314853   1.135   4.031   2.139 -0.0172  0.5656  0.6698
   21MOL   C41414854   1.593   3.838   2.830 -0.0604 -0.5549  0.4902
   21MOL   C41514855   1.629   3.704   2.792  0.4176 -0.0855  0.3348
   21MOL   H41614856   1.529   3.714   2.461 -1.5885  0.0217  0.4638
   21MOL   H41714857   1.473   3.954   2.530 -2.1716 -2.8800 -2.8302
   21MOL   H41814858   1.373   4.074   2.631  2.3066  0.4395 -1.9685
   21MOL   H41914859   1.373   4.287   2.830 -0.2814  2.8004 -0.6909
   21MOL   H42014860   1.445   4.329   2.670  0.8775  0.1269  1.0907
   21MOL   H42114861   1.230   4.393   2.628 -1.2105  0.5526  1.2440
   21MOL   H42214862   1.155   4.257   2.709  1.1289 -1.6984  1.6893
   21MOL   H42314863   1.300   4.213   2.451 -0.4318  0.8971  0.0760
   21MOL   H42414864   1.192   4.103   2.541 -1.1278 -0.0012 -1.0025
   21MOL   H42514865   1.118   4.348   2.394 -1.4231 -0.0373 -0.8638
   21MOL   H42614866   1.014   4.271   2.507  0.0200  1.1226 -0.6283
   21MOL   H42714867   0.957   4.191   2.279  0.0354  0.5240 -0.0090
   21MOL   H42814868   1.022   4.061   2.371  0.2914  0.1360  0.5653
   21MOL   H42914869   1.186   4.232   2.164 -2.3772  0.3890 -0.2930
   21MOL   H43014870   1.260   4.115   2.268 -0.7449 -1.3038  1.8548
   21MOL   H43114871   1.045   3.986   2.151  0.6886 -1.0188  0.0664
   21MOL   H43214872   1.612   3.867   2.933  1.0524 -1.7754  0.6374
   21MOL   H43314873   1.672   3.640   2.868 -1.5004 -1.4909  0.2795
   21MOL   C43414874   1.219   3.975   2.050  0.3604  0.7089 -0.3047
   21MOL   O43514875   1.339   4.002   2.041  0.3618  1.0418  0.1943
   21MOL   C43614876   1.171   3.859   1.968  0.7328 -0.2790  0.7047
   21MOL   C43714877   1.250   3.804   1.862 -1.0181 -0.1868  0.3689
   21MOL   C43814878   1.210   3.688   1.794 -0.5507 -0.3323 -0.2231
   21MOL   C43914879   1.090   3.624   1.828 -0.3239  0.3045  0.2481
   21MOL   C44014880   1.045   3.503   1.755 -0.3093 -0.3674 -0.3104
   21MOL   O44114881   1.042   3.508   1.633  0.1718  0.2881  0.5645
   21MOL   N44214882   1.009   3.403   1.830 -0.4224 -0.0062 -0.2127
   21MOL   C44314883   0.942   3.277   1.784 -0.6218 -0.2940  0.8241
   21MOL   C44414884   0.880   3.211   1.907  0.2906 -0.3721  0.3145
   21MOL   C44514885   0.828   3.068   1.888 -0.1713  0.2447 -0.1093
   21MOL   C44614886   0.773   3.008   2.018  0.2678  0.5746  0.3565
   21MOL   C44714887   0.733   2.864   2.001 -0.1013 -0.1217 -0.6136
   21MOL   C44814888   0.608   2.843   1.915 -0.3847 -0.1640 -0.2534
   21MOL   N44914889   0.490   2.909   1.970  0.1890  0.0750 -0.2677
   21MOL   C45014890   1.005   3.692   1.913  0.1883  0.0398 -0.2554
   21MOL   C45114891   1.044   3.800   1.994  0.5970  0.2591  0.4585
   21MOL   H45214892   1.351   3.839   1.845 -0.8269 -1.8304 -2.0769
   21MOL   H45314893   1.271   3.648   1.714  1.0307 -0.8445  1.1944
   21MOL   H45414894   1.056   3.410   1.919  1.3986  0.1389 -1.1555
   21MOL   H45514895   0.860   3.308   1.720  2.0828  1.9135 -1.6737
   21MOL   H45614896   1.014   3.211   1.736  2.0230  1.9704  1.5706
   21MOL   H45714897   0.801   3.277   1.944 -1.0381 -0.6071 -2.0361
   21MOL   H45814898   0.957   3.210   1.984 -0.0561 -0.2619  0.6617
   21MOL   H45914899   0.749   3.075   1.813 -0.0887 -0.2971 -0.2476
   21MOL   H46014900   0.908   3.005   1.851 -0.0322  1.1030 -1.3251
   21MOL   H46114901   0.694   3.071   2.059  0.1639 -0.1540  1.2913
   21MOL   H46214902   0.857   3.016   2.088 -1.1007  2.3932  1.8241
   21MOL   H46314903   0.702   2.829   2.099  0.7822 -1.2593 -0.7346
   21MOL   H46414904   0.818   2.813   1.956  0.2300 -0.3666  0.2970
   21MOL   H46514905   0.624   2.864   1.809  2.1146 -1.0676 -0.0970
   21MOL   H46614906   0.592   2.735   1.909 -3.4152  0.2051  0.4639
   21MOL   H46714907   0.476   3.003   1.937 -0.8473  0.2324  0.5887
   21MOL   H46814908   0.903   3.659   1.931 -0.2760  1.5240 -0.0248
   21MOL   H46914909   0.979   3.839   2.070  0.3950 -1.4013  1.1572
   21MOL   C47014910   0.387   2.850   2.033 -0.1500  0.1012 -0.1066
   21MOL   O47114911   0.377   2.731   2.044 -0.2612 -0.0901  0.5248
   21MOL   C47214912   0.276   2.938   2.087 -0.0322  0.1155 -0.7986
   21MOL   C47314913   0.273   3.078   2.066  0.3935  0.7400  0.0669
   21MOL   C47414914   0.171   3.159   2.119 -0.7404 -0.9954  0.3650
   21MOL   C47514915   0.063   3.092   2.179 -0.3935  0.7161  0.3753
   21MOL   C47614916   7.823   3.169   2.213 -0.6070  0.3081  0.3536
   21MOL   O47714917   7.794   3.282   2.165 -0.0854  0.2556 -0.4027
   21MOL   N47814918   7.743   3.118   2.301 -0.2647  0.0323  0.1290
   21MOL   C47914919   7.612   3.172   2.325  0.0149 -0.2269 -0.0074
   21MOL   C48014920   7.508   3.088   2.254 -0.4561 -0.5671  0.2226
   21MOL   C48114921   7.526   2.934   2.284 -0.2798  0.6839 -0.0615
   21MOL   C48214922   7.429   2.838   2.214 -0.4367 -0.1602 -0.3460
   21MOL   C48314923   7.470   2.808   2.064  0.6737  0.0038  0.1103
   21MOL   C48414924   7.391   2.699   1.997 -0.2539  0.6226  0.2166
   21MOL   N48514925   7.469   2.658   1.876 -0.1616 -0.4773 -0.4227
   21MOL   C48614926   0.069   2.952   2.199 -0.5034  0.4763  0.5257
   21MOL   C48714927   0.180   2.875   2.168 -0.0879  0.1166  0.3162
   21MOL   H48814928   0.355   3.133   2.021  0.0610  1.7617  0.6924
   21MOL   H48914929   0.166   3.264   2.096  2.0785 -0.8786  0.1168
   21MOL   H49014930   7.775   3.034   2.347 -1.0838  0.1357  0.8847
   21MOL   H49114931   7.599   3.163   2.433 -1.0706  1.2491  0.0030
   21MOL   H49214932   7.597   3.276   2.297  0.9851 -0.4610 -1.4107
   21MOL   H49314933   7.520   3.107   2.147  1.8263  0.2620  0.6077
   21MOL   H49414934   7.407   3.119   2.282 -0.3916  0.1355 -0.3068
   21MOL   H49514935   7.622   2.894   2.251 -0.1391 -0.1502  1.3119
   21MOL   H49614936   7.537   2.919   2.391  0.3361  1.5030 -0.0063
   21MOL   H49714937   7.327   2.876   2.207 -0.8319 -1.1416 -0.1100
   21MOL   H49814938   7.431   2.744   2.270  0.2169  0.5429  0.8420
   21MOL   H49914939   7.576   2.782   2.072 -0.1076 -3.4776 -0.2147
   21MOL   H50014940   7.475   2.902   2.008  0.7145 -1.3023 -2.1504
   21MOL   H50114941   7.372   2.610   2.057  0.7754  0.5221  0.4088
   21MOL   H50214942   7.294   2.736   1.965  0.1588 -0.7873 -2.8112
   21MOL   H50314943   7.540   2.723   1.845 -0.0515  0.1345  1.0809
   21MOL   H50414944   7.873   2.897   2.243 -0.2977 -0.9930 -0.8957
   21MOL   H50514945   0.184   2.773   2.204  0.0979 -0.2738 -0.8096
   21MOL   C50614946   7.460   2.536   1.819  1.0477 -0.1492  0.2482
   21MOL   O50714947   7.376   2.446   1.857  0.0408 -0.1278 -0.8697
   21MOL   C50814948   7.561   2.506   1.717  0.4748  0.4900 -0.3009
   21MOL   C50914949   7.596   2.604   1.622  0.5830 -0.0982 -0.6432
   21MOL   C51014950   7.699   2.572   1.537 -0.3599 -0.2620  0.3188
   21MOL   C51114951   7.770   2.454   1.541  0.5279 -0.3666 -0.0890
   21MOL   C51214952   0.020   2.438   1.475  0.3451  0.1547  0.0170
   21MOL   O51314953   0.045   2.453   1.354 -0.1838  1.4538 -0.2397
   21MOL   N51414954   0.118   2.407   1.560  0.3778 -0.8961 -0.2128
   21MOL   C51514955   0.254   2.362   1.528  0.2549 -0.0825 -0.0501
   21MOL   C51614956   0.341   2.480   1.481  0.2202 -0.1428 -0.2316
   21MOL   C51714957   0.356   2.578   1.599  0.8547 -0.5120  0.2101
   21MOL   C51814958   0.387   2.711   1.539 -0.7180 -0.3184 -0.2746
   21MOL   C51914959   0.532   2.734   1.498  0.7059  0.4605 -0.0767
   21MOL   C52014960   0.558   2.883   1.449  0.1173 -0.3926  0.4190
   21MOL   N52114961   0.503   2.923   1.322 -0.1652  0.5058  0.1715
   21MOL   C52214962   7.720   2.352   1.625  0.0500  0.5901 -0.2381
   21MOL   C52314963   7.616   2.372   1.716 -0.1102 -0.6199 -0.3682
   21MOL   H52414964   7.541   2.697   1.620  1.5337  0.4738 -0.1452
   21MOL   H52514965   7.749   2.642   1.471  1.3728 -0.8758  0.9620
   21MOL   H52614966   0.104   2.398   1.659  0.4209  0.5513 -0.0651
   21MOL   H52714967   0.295   2.308   1.613  3.0563  0.3893 -1.0579
   21MOL   H52814968   0.241   2.295   1.443  3.5598  0.3700 -0.9941
   21MOL   H52914969   0.307   2.531   1.390 -1.4001  1.3040  1.1570
   21MOL   H53014970   0.438   2.442   1.448  0.2026  0.2241 -0.7140
   21MOL   H53114971   0.265   2.589   1.658  0.7631 -0.8214  0.1301
   21MOL   H53214972   0.436   2.545   1.664  0.4272 -1.4252  0.2826
   21MOL   H53314973   0.356   2.786   1.613 -1.0542 -2.7196  2.0823
   21MOL   H53414974   0.311   2.740   1.466 -0.7299 -0.5190 -0.3413
   21MOL   H53514975   0.566   2.662   1.423 -1.0514 -1.4133  0.8930
   21MOL   H53614976   0.603   2.723   1.580  1.0456  1.3843 -0.2370
   21MOL   H53714977   0.532   2.954   1.527  2.0527  2.3277 -1.3272
   21MOL   H53814978   0.666   2.898   1.451  0.5003 -2.3062 -2.8756
   21MOL   H53914979   0.420   2.979   1.312  0.3842  1.8884  2.9438
   21MOL   H54014980   7.766   2.255   1.637 -1.5072 -0.0584  0.6044
   21MOL   H54114981   7.574   2.291   1.774  0.2471 -2.5266 -2.7180
   21MOL   C54214982   0.568   2.887   1.212  0.3769  0.5084  0.1701
   21MOL   O54314983   0.669   2.813   1.210 -0.4215 -0.1305 -0.3687
   21MOL   C54414984   0.528   2.954   1.083  0.0220  0.4451  0.0929
   21MOL   C54514985   0.597   2.925   0.966 -0.8095 -0.5071 -0.5574
   21MOL   C54614986   0.553   2.985   0.848  0.1237  0.8515  0.5744
   21MOL   C54714987   0.451   3.085   0.843 -0.1408  0.8134 -0.3456
   21MOL   C54814988   0.430   3.146   0.707 -0.1591  0.3415  0.8562
   21MOL   O54914989   0.495   3.114   0.603  0.1143  0.2308  0.0226
   21MOL   N55014990   0.343   3.245   0.712 -0.7518 -0.5305  0.0728
   21MOL   C55114991   0.320   3.340   0.600 -0.2259  0.4063  0.3880
   21MOL   C55214992   0.168   3.365   0.578 -0.6690 -0.2010  0.4814
   21MOL   C55314993   0.079   3.245   0.572 -0.2020  0.5758  0.5239
   21MOL   C55414994   7.837   3.267   0.485  0.4783  0.3679 -0.2232
   21MOL   C55514995   7.739   3.160   0.444 -0.2501  0.0359  0.4854
   21MOL   C55614996   7.666   3.101   0.567 -0.2372  0.2804  0.4217
   21MOL   N55714997   7.754   3.031   0.655  0.1364  0.4603  0.0316
   21MOL   C55814998   0.378   3.108   0.955 -0.5935  0.1254  0.2361
   21MOL   C55914999   0.411   3.035   1.075  0.2809  0.2837  0.4194
   21MOL   H56015000   0.670   2.846   0.960 -1.1718 -0.7346 -2.2751
   21MOL   H56115001   0.593   2.951   0.754  0.7523  3.1667 -0.0215
   21MOL   H56215002   0.306   3.276   0.801  1.1777 -0.6727  0.9386
   21MOL   H56315003   0.364   3.437   0.623 -0.1611  0.3179  0.6483
   21MOL   H56415004   0.371   3.306   0.510  0.7745  0.2953  0.9929
   21MOL   H56515005   0.162   3.421   0.485  1.0760 -0.8365 -0.0461
   21MOL   H56615006   0.133   3.433   0.655 -0.9151 -0.6067  0.7308
   21MOL   H56715007   0.124   3.162   0.518 -2.0759 -0.7654  0.9744
   21MOL   H56815008   0.060   3.207   0.673 -1.0929  0.6568  0.3836
   21MOL   H56915009   7.860   3.319   0.392 -0.2646  0.8953 -0.1238
   21MOL   H57015010   7.779   3.345   0.535  0.8286  1.3941 -1.3734
   21MOL   H57115011   7.784   3.076   0.392 -0.5656 -0.9354  1.7445
   21MOL   H57215012   7.674   3.213   0.375  0.6070 -0.0773 -0.4253
   21MOL   H57315013   7.611   3.176   0.625  0.0931  0.2707  0.7515
   21MOL   H57415014   7.588   3.042   0.518 -0.9762  1.8660 -0.3299
   21MOL   H57515015   7.775   3.069   0.746 -1.2058  0.0483  0.5310
   21MOL   H57615016   0.292   3.174   0.957 -0.4955  0.3027 -0.9333
   21MOL   H57715017   0.352   3.048   1.165  0.2352  0.6948  0.3287
   21MOL   C57815018   7.817   2.919   0.623 -0.7667  0.2105 -0.9969
   21MOL   O57915019   7.807   2.854   0.520  0.3774 -0.4735 -0.3871
   21MOL   C58015020   0.020   2.870   0.734 -0.0852 -0.7456  0.3006
   21MOL   C58115021   0.039   2.939   0.855 -0.4936 -0.6562 -0.6940
   21MOL   C58215022   0.107   2.880   0.958  0.1785 -0.4238  0.2659
   21MOL   C58315023   0.172   2.758   0.944  0.3549  0.8624  0.5452
   21MOL   C58415024   0.252   2.691   1.060  0.5415  0.6523  1.3126
   21MOL   O58515025   0.225   2.721   1.176  0.7600  0.1147 -1.1301
   21MOL   N58615026   0.348   2.603   1.019  0.4064  0.1080 -0.6878
   21MOL   C58715027   0.422   2.514   1.112  0.1072  0.6499  0.3746
   21MOL   C58815028   0.541   2.442   1.051  0.4047  0.5635  0.4924
   21MOL   C58915029   0.649   2.539   1.009 -0.0978  0.4427  0.7957
   21MOL   C59015030   0.776   2.463   0.951 -0.5550  0.1740 -1.0518
   21MOL   C59115031   0.864   2.555   0.876  0.0463  0.3281  0.1499
   21MOL   C59215032   0.806   2.644   0.760 -0.6773 -0.8018  0.1172
   21MOL   N59315033   0.913   2.710   0.679 -0.3544 -0.4359  0.0374
   21MOL   C59415034   0.162   2.689   0.825 -0.0759  0.1385  0.5610
   21MOL   C59515035   0.087   2.741   0.721 -0.0291 -0.3021 -0.4432
   21MOL   H59615036   7.881   3.036   0.870 -0.0579 -0.4021 -1.0353
   21MOL   H59715037   0.085   2.924   1.054  0.2658 -0.8515  0.4830
   21MOL   H59815038   0.374   2.596   0.922  2.6504  1.2928 -0.1987
   21MOL   H59915039   0.448   2.570   1.202  0.0522  2.3433 -0.6469
   21MOL   H60015040   0.355   2.440   1.158  1.7986 -0.5401  0.9628
   21MOL   H60115041   0.516   2.382   0.963  1.7251  0.7297 -0.0151
   21MOL   H60215042   0.588   2.373   1.121  1.7841  1.4848  0.4973
   21MOL   H60315043   0.604   2.598   0.929 -1.9161 -2.0068 -0.0515
   21MOL   H60415044   0.681   2.604   1.091  0.1195  0.8844  0.3662
   21MOL   H60515045   0.744   2.385   0.882  0.9091 -1.8516  0.5288
   21MOL   H60615046   0.823   2.415   1.037  0.4233  0.4728 -1.4128
   21MOL   H60715047   0.957   2.509   0.844  1.0349 -0.2761  3.6081
   21MOL   H60815048   0.891   2.628   0.952 -1.9456  1.6082 -0.3428
   21MOL   H60915049   0.741   2.591   0.691  0.6027 -3.2709  0.7691
   21MOL   H61015050   0.741   2.721   0.803  1.7028  0.6153  1.2883
   21MOL   H61115051   0.976   2.654   0.624  2.0432 -0.1608  2.3703
   21MOL   H61215052   0.211   2.595   0.801 -0.4837  0.4375 -1.4767
   21MOL   H61315053   0.079   2.677   0.635 -0.4037  1.6927 -1.9141
   21MOL   C61415054   0.915   2.843   0.661 -0.6772 -0.0754  0.1459
   21MOL   O61515055   0.845   2.919   0.724  0.5789  0.2539  0.0009
   21MOL   C61615056   1.015   2.901   0.563 -0.2809 -0.2143  0.3534
   21MOL   C61715057   1.134   2.829   0.527  0.6149 -0.3194  0.9600
   21MOL   C61815058   1.221   2.894   0.438 -0.1369  0.4270  0.3722
   21MOL   C61915059   1.196   3.020   0.378  0.7378  0.5903 -0.1064
   21MOL   C62015060   1.298   3.083   0.287  0.6875  0.5214  0.0005
   21MOL   O62115061   1.415   3.106   0.323  0.0885  0.2816 -0.3970
   21MOL   N62215062   1.263   3.099   0.161 -0.7354 -0.5021  0.2008
   21MOL   C62315063   1.360   3.125   0.055  0.5952  0.3989  0.0771
   21MOL   C62415064   1.357   3.008   7.839  0.2392 -0.8487 -0.1762
   21MOL   C62515065   1.405   2.876   0.012 -0.1369  0.0605 -0.2926
   21MOL   C62615066   1.412   2.766   7.794 -0.5566 -0.1996  0.7925
   21MOL   C62715067   1.431   2.629   7.846  0.3830  0.6959 -0.2019
   21MOL   C62815068   1.413   2.523   7.742  0.8071 -0.0142  0.2086
   21MOL   N62915069   1.358   2.395   7.806 -0.4439  0.6064  0.1160
   21MOL   C63015070   1.079   3.083   0.420 -0.5373  0.6087 -0.0150
   21MOL   C63115071   0.983   3.027   0.508  0.8456  0.2443  0.9553
   21MOL   H63215072   1.154   2.729   0.564  3.3593 -0.0695  0.2243
   21MOL   H63315073   1.309   2.839   0.410 -0.1318  0.4439  0.3539
   21MOL   H63415074   1.171   3.072   0.128 -1.6417  4.2923 -1.6109
   21MOL   H63515075   1.332   3.225   0.019  0.4996  0.4029  0.1613
   21MOL   H63615076   1.462   3.135   0.093  0.9369  1.1429 -0.9987
   21MOL   H63715077   1.422   3.033   7.755 -1.5579  3.6752 -0.3272
   21MOL   H63815078   1.253   2.994   7.807  0.4115 -1.3026 -0.5471
   21MOL   H63915079   1.504   2.887   0.057 -0.7193 -3.1145  1.9542
   21MOL   H64015080   1.340   2.836   0.089 -1.0434  1.9497 -0.0635
   21MOL   H64115081   1.500   2.792   7.736 -0.4358 -2.3881 -0.0709
   21MOL   H64215082   1.322   2.768   7.732 -1.2070  0.0819  1.7293
   21MOL   H64315083   1.340   2.614   0.018  0.1862  0.5485 -0.5451
   21MOL   H64415084   1.517   2.616   0.025 -2.3727 -0.4202  3.4055
   21MOL   H64515085   1.341   2.546   7.663  2.9788  1.3020 -1.4360
   21MOL   H64615086   1.508   2.514   7.690  0.2091 -0.5355 -0.7909
   21MOL   H64715087   1.365   2.382   0.020 -2.2672  3.4477  0.6505
   21MOL   H64815088   1.073   3.187   0.390  0.8653  0.5820 -0.4127
   21MOL   H64915089   0.891   3.075   0.538  0.8592 -1.1259  3.2637
   21MOL   C65015090   1.334   2.285   7.735  0.0747 -0.1021  0.3012
   21MOL   O65115091   1.340   2.289   7.614  0.1094  0.1464  0.2355
   21MOL   C65215092   1.286   2.163   7.810  0.2103 -0.1391 -0.2672
   21MOL   C65315093   1.195   2.074   7.748  0.9096  0.1478  0.0326
   21MOL   C65415094   1.163   1.946   7.809  0.0879  0.2200 -0.6592
   21MOL   C65515095   1.235   1.904   0.040  0.4771 -0.1697  0.5001
   21MOL   C65615096   1.223   1.761   0.089  0.4355 -0.2083  0.0015
   21MOL   O65715097   1.135   1.683   0.046  0.1790 -0.6450 -0.1910
   21MOL   N65815098   1.326   1.724   0.166 -0.4339  0.3219 -0.7788
   21MOL   C65915099   1.343   1.590   0.208  0.0863 -0.1708 -0.6630
   21MOL   C66015100   1.492   1.564   0.230  0.2072  0.4530 -0.6162
   21MOL   C66115101   1.543   1.591   0.375  0.0560  1.1456 -0.6036
   21MOL   C66215102   1.529   1.471   0.470 -0.4574  1.0729 -0.0542
   21MOL   C66315103   1.579   1.490   0.611 -0.0207 -0.1870 -0.0090
   21MOL   C66415104   1.733   1.461   0.639 -0.1216  0.7690  0.2671
   21MOL   N66515105   1.757   1.443   0.777  0.0361 -0.6851  0.1698
   21MOL   C66615106   1.322   1.999   0.106  0.2690  0.4615  0.0399
   21MOL   C66715107   1.349   2.119   0.045 -0.1860  0.0215 -0.8666
   21MOL   H66815108   1.146   2.109   7.658 -1.4015 -1.7639  0.4818
   21MOL   H66915109   1.086   1.880   7.774 -2.2107  2.5475 -0.1363
   21MOL   H67015110   1.404   1.787   0.167  0.4594 -0.7736  0.3489
   21MOL   H67115111   1.295   1.569   0.303 -0.2831  2.2696 -0.2693
   21MOL   H67215112   1.302   1.526   0.130  2.2161 -0.8632 -1.2454
   21MOL   H67315113   1.548   1.618   0.154 -1.4665  1.6830 -1.0099
   21MOL   H67415114   1.524   1.460   0.222  2.1619  0.9440  0.4252
   21MOL   H67515115   1.651   1.607   0.373  0.3806 -0.8462 -0.2233
   21MOL   H67615116   1.496   1.675   0.425 -0.5826  0.3091  0.2245
   21MOL   H67715117   1.569   1.380   0.425 -1.4224  0.2185  0.7903
   21MOL   H67815118   1.422   1.460   0.484 -0.2881  0.3786  0.7488
   21MOL   H67915119   1.514   1.430   0.674  1.2556 -1.8628 -0.2530
   21MOL   H68015120   1.564   1.592   0.647  2.1436 -0.2147  1.0622
   21MOL   H68115121   1.750   1.370   0.581 -1.3592  1.9372 -1.9796
   21MOL   H68215122   1.799   1.530   0.587  3.6153 -3.7806 -1.4161
   21MOL   H68315123   1.717   1.499   0.851  2.4997  0.1405  0.9227
   21MOL   H68415124   1.383   1.978   0.193  0.1735  0.1670  0.0389
   21MOL   H68515125   1.430   2.175   0.089  0.0609 -0.4469 -0.7322
   21MOL   C68615126   1.845   1.363   0.828 -1.1048 -0.4512  0.0456
   21MOL   O68715127   1.916   1.288   0.754  0.4345  0.3390 -0.0476
   21MOL   C68815128   1.858   1.381   0.973 -0.2678 -0.4411 -0.1871
   21MOL   C68915129   1.752   1.434   1.052 -0.8294  0.2656  0.9593
   21MOL   C69015130   1.773   1.458   1.188  0.6675 -0.1724  0.2491
   21MOL   C69115131   1.893   1.416   1.252  0.7786 -0.7456  0.3522
   21MOL   C69215132   1.912   1.449   1.403 -0.0564 -0.4829  0.0895
   21MOL   O69315133   1.823   1.417   1.484  0.2105 -1.2542  0.2113
   21MOL   N69415134   2.029   1.513   1.428  0.2524 -0.1425 -0.2876
   21MOL   C69515135   2.069   1.555   1.560 -0.3029  0.0310  0.3767
   21MOL   C69615136   2.217   1.530   1.576  0.2103  0.1344 -0.0112
   21MOL   C69715137   2.272   1.542   1.714 -1.0672 -0.4527 -0.2111
   21MOL   C69815138   2.222   1.421   1.795 -0.7887  0.2993 -1.2191
   21MOL   C69915139   2.292   1.412   1.933 -0.3153 -0.5263 -0.7746
   21MOL   C70015140   2.231   1.301   2.014 -0.1862 -0.3083  0.4317
   21MOL   N70115141   2.338   1.240   2.086 -0.0257  0.7712 -0.2821
   21MOL   C70215142   1.992   1.363   1.175  0.0766  0.7346  0.3533
   21MOL   C70315143   1.978   1.343   1.039 -0.6420  1.2665 -0.2529
   21MOL   H70415144   1.654   1.452   1.011 -0.1260 -0.1269 -0.9491
   21MOL   H70515145   1.706   1.518   1.248  2.5726  0.4832  1.7741
   21MOL   H70615146   2.088   1.538   1.350 -2.2115 -1.1336 -2.5451
   21MOL   H70715147   2.047   1.661   1.577 -2.5881 -0.5554  1.3237
   21MOL   H70815148   2.020   1.503   1.643  0.2700  0.0543  0.7343
   21MOL   H70915149   2.271   1.603   1.516  0.6201  0.0224  0.2233
   21MOL   H71015150   2.240   1.431   1.538 -0.2428 -0.0830  0.2693
   21MOL   H71115151   2.379   1.542   1.694 -0.9157  0.2214  0.5961
   21MOL   H71215152   2.254   1.635   1.768 -0.0808 -1.0475  1.1436
   21MOL   H71315153   2.237   1.341   1.722  2.1809  1.6561 -2.1666
   21MOL   H71415154   2.114   1.425   1.812 -0.8510 -1.3800 -1.1327
   21MOL   H71515155   2.294   1.503   1.993 -1.4047  0.8846 -2.8407
   21MOL   H71615156   2.398   1.392   1.917  0.0793 -1.0005  2.0434
   21MOL   H71715157   2.158   1.335   2.088  0.4563  0.6854  0.6209
   21MOL   H71815158   2.183   1.227   1.950  0.5519 -1.2182  0.9160
   21MOL   H71915159   2.376   1.314   2.142 -0.9715  1.6441 -0.7784
   21MOL   H72015160   2.077   1.319   1.225  1.2423  1.3221 -1.0522
   21MOL   H72115161   2.052   1.298   0.975 -1.0207  0.3330 -0.0372
   21MOL   H72215162   2.303   1.168   2.147  0.6130 -1.0620 -2.0086
   22MOL     C115163   1.974   1.355   4.582  0.1111 -0.2044 -0.6675
   22MOL     O215164   2.022   1.371   4.693 -0.1717  0.1087  0.7122
   22MOL     C315165   1.856   1.434   4.537 -0.5145  0.7078  0.5494
   22MOL     C415166   1.812   1.545   4.608  0.4547  0.2081  0.1727
   22MOL     C515167   1.704   1.631   4.566  0.3185 -0.1028  0.4941
   22MOL     C615168   1.625   1.589   4.460 -0.5310 -0.2872 -0.1519
   22MOL     C715169   1.501   1.663   4.423 -0.0637 -0.2067  1.0298
   22MOL     O815170   1.403   1.608   4.370  0.1635  0.0075  0.2750
   22MOL     N915171   1.507   1.792   4.444  0.7469  0.2986 -0.0505
   22MOL    C1015172   1.412   1.894   4.401 -0.1829 -0.4241 -0.7992
   22MOL    C1115173   1.474   2.028   4.391  0.2370  0.2909  0.3166
   22MOL    C1215174   1.393   2.135   4.312 -0.6464  0.3204 -0.2149
   22MOL    C1315175   1.477   2.257   4.267  0.4019  0.0995  0.3305
   22MOL    C1415176   1.500   2.348   4.380  0.5098 -0.4042 -0.2791
   22MOL    C1515177   1.572   2.477   4.331 -0.3446  0.2482  0.0875
   22MOL    N1615178   1.629   2.541   4.449  0.4427  0.1480 -0.6405
   22MOL    C1715179   1.662   1.472   4.393 -0.6325  0.4643  0.6789
   22MOL    C1815180   1.777   1.395   4.424 -0.7411 -0.0260 -0.0344
   22MOL    H1915181   1.878   1.570   4.690 -0.7613  0.2253  1.1563
   22MOL    H2015182   1.685   1.723   4.619 -1.1096  1.2358 -2.2333
   22MOL    H2115183   1.573   1.830   4.511  0.3222 -2.3766  1.9679
   22MOL    H2215184   1.378   1.862   4.303 -0.2726 -2.5459 -0.1053
   22MOL    H2315185   1.319   1.889   4.458  0.6232 -2.8014  0.3674
   22MOL    H2415186   1.577   2.031   4.355  0.4838 -0.4317  0.9137
   22MOL    H2515187   1.486   2.063   4.494 -1.9588 -2.4745  1.6064
   22MOL    H2615188   1.356   2.101   4.215 -0.9878 -2.3659  0.8200
   22MOL    H2715189   1.310   2.177   4.369 -0.2448 -0.2320  0.7831
   22MOL    H2815190   1.424   2.308   4.186  0.7759  1.4199  0.8974
   22MOL    H2915191   1.570   2.233   4.215 -0.9725 -2.8195 -0.9266
   22MOL    H3015192   1.559   2.292   4.454  1.2924  0.4459 -0.2546
   22MOL    H3115193   1.409   2.369   4.436  1.4671  1.8334  0.4843
   22MOL    H3215194   1.657   2.447   4.269 -0.3452  1.1059 -0.3238
   22MOL    H3315195   1.494   2.536   4.284 -1.6720 -1.4145  0.1406
   22MOL    H3415196   1.680   2.471   4.500  0.5712 -0.5117 -1.6577
   22MOL    H3515197   1.599   1.438   4.312  0.8108 -0.0052 -0.2795
   22MOL    H3615198   1.804   1.306   4.370  0.0939 -1.6882  3.0392
   22MOL    H3715199   2.009   1.288   4.503  0.3621 -0.3917 -0.4029
   22MOL    C3815200   1.656   2.670   4.463 -0.0227 -0.2208  0.2169
   22MOL    O3915201   1.602   2.749   4.381  0.4755  0.5735  0.1564
   22MOL    C4015202   1.754   2.709   4.574 -0.4057 -0.8317  0.3408
   22MOL    C4115203   1.785   2.848   4.601  0.1020  0.0476  0.3646
   22MOL    C4215204   1.884   2.889   4.698 -0.3446 -0.2047  0.0361
   22MOL    C4315205   1.944   2.782   4.779  0.3013 -0.7509  0.5296
   22MOL    C4415206   2.051   2.809   4.879 -0.3426 -0.0721 -0.1948
   22MOL    O4515207   2.084   2.721   4.955  0.1410 -0.2011 -0.3785
   22MOL    N4615208   2.100   2.934   4.883 -0.3766 -0.3681  0.4245
   22MOL    C4715209   2.190   2.984   4.984  0.3002  0.0078  0.4369
   22MOL    C4815210   2.212   3.133   4.980 -0.1113  0.0211  0.4847
   22MOL    C4915211   2.298   3.188   5.100 -0.3138 -0.3407  0.5585
   22MOL    C5015212   2.234   3.176   5.247  0.2958 -0.0653  0.3010
   22MOL    C5115213   2.304   3.258   5.350 -0.0084 -0.5965  0.6680
   22MOL    C5215214   2.283   3.406   5.312 -0.6697 -0.3003  0.1215
   22MOL    N5315215   2.145   3.458   5.297  0.2820  0.3211  0.0350
   22MOL    C5415216   1.897   2.649   4.763  0.1927  0.0813  0.1338
   22MOL    C5515217   1.809   2.611   4.659 -0.1739 -0.5465  0.4433
   22MOL    H5615218   1.737   2.932   4.553  0.3942  0.8308  1.4172
   22MOL    H5715219   1.901   2.994   4.718 -0.6809 -0.5983  2.6290
   22MOL    H5815220   2.055   3.003   4.825 -0.2219 -1.3106 -0.8228
   22MOL    H5915221   2.154   2.954   5.082 -0.0830  3.0139  1.2806
   22MOL    H6015222   2.287   2.936   4.977  0.3670 -0.3324  3.2099
   22MOL    H6115223   2.124   3.197   4.968 -0.2210  0.3078  2.6316
   22MOL    H6215224   2.272   3.152   4.891 -3.1486 -0.6256 -1.7732
   22MOL    H6315225   2.395   3.140   5.091 -0.0376  0.5867 -1.5651
   22MOL    H6415226   2.314   3.291   5.068  1.0797 -1.5976 -3.0372
   22MOL    H6515227   2.240   3.070   5.274  1.5258  0.2014  1.1331
   22MOL    H6615228   2.130   3.208   5.245  1.0308  2.3901 -0.9111
   22MOL    H6715229   2.411   3.237   5.353  0.2056  0.2398 -0.7062
   22MOL    H6815230   2.250   3.227   5.439 -0.5912  0.0460  0.5398
   22MOL    H6915231   2.329   3.447   5.402 -0.5225  1.3249 -0.6767
   22MOL    H7015232   2.334   3.441   5.223 -0.2159  0.4896  0.6812
   22MOL    H7115233   2.082   3.424   5.368  1.0022  1.2542  1.1469
   22MOL    H7215234   1.940   2.572   4.826  1.1019 -2.0369 -2.9788
   22MOL    H7315235   1.802   2.504   4.643  1.2584 -0.6999  0.7683
   22MOL    C7415236   2.091   3.510   5.182  0.1478  0.0506  0.4288
   22MOL    O7515237   2.160   3.553   5.089 -0.2826  0.1739 -0.2943
   22MOL    C7615238   1.939   3.519   5.177 -0.0439  0.5384  0.4999
   22MOL    C7715239   1.858   3.504   5.292 -0.1081  0.8235 -0.6372
   22MOL    C7815240   1.717   3.525   5.286 -0.0931  0.3546  0.4043
   22MOL    C7915241   1.652   3.548   5.166 -0.0470 -0.3983  0.0558
   22MOL    C8015242   1.505   3.560   5.156  0.0338 -0.6818 -0.4560
   22MOL    O8115243   1.451   3.602   5.053 -0.1804  0.4461  0.2841
   22MOL    N8215244   1.433   3.537   5.267  0.5668  0.3925  0.2711
   22MOL    C8315245   1.293   3.545   5.270  0.5778 -0.2652  0.2670
   22MOL    C8415246   1.251   3.689   5.285  0.2536  0.4660  0.1736
   22MOL    C8515247   1.123   3.725   5.221 -0.4736  0.8237 -0.1518
   22MOL    C8615248   1.106   3.877   5.197  0.0560 -0.9064  0.0381
   22MOL    C8715249   0.988   3.914   5.106  0.1246 -0.3413  0.3113
   22MOL    C8815250   0.992   3.847   4.965  0.7039 -0.3120 -0.4255
   22MOL    N8915251   0.884   3.906   4.881 -0.4217  0.2400 -0.2342
   22MOL    C9015252   1.735   3.569   5.052  0.0604 -0.1167 -0.5687
   22MOL    C9115253   1.880   3.568   5.058  0.7040 -0.3463  0.2475
   22MOL    H9215254   1.898   3.471   5.387 -2.1076 -2.1920 -0.7842
   22MOL    H9315255   1.661   3.508   5.377  0.7239  0.2839  0.9003
   22MOL    H9415256   1.476   3.510   5.354  0.4589  0.0657  0.2241
   22MOL    H9515257   1.256   3.487   5.185  1.2229 -3.1482  1.8716
   22MOL    H9615258   1.256   3.480   5.350 -2.0920 -0.7902 -1.3406
   22MOL    H9715259   1.321   3.751   5.230  0.0814  0.6829  0.1959
   22MOL    H9815260   1.253   3.717   5.390  0.9510  3.1105 -0.5341
   22MOL    H9915261   1.112   3.675   5.125 -0.4858  1.9848 -0.7601
   22MOL   H10015262   1.046   3.680   5.285  0.6611 -0.0156  0.6505
   22MOL   H10115263   1.199   3.921   5.162 -0.3873 -0.5880 -0.7592
   22MOL   H10215264   1.090   3.932   5.289  0.0137 -0.8990  0.0270
   22MOL   H10315265   1.009   4.020   5.091  0.3095 -0.5543 -0.9731
   22MOL   H10415266   0.891   3.898   5.153 -0.9677  2.2225 -0.9461
   22MOL   H10515267   1.087   3.862   4.913 -0.4275  2.2755 -1.8155
   22MOL   H10615268   0.971   3.740   4.966  0.2195 -0.2276 -1.2835
   22MOL   H10715269   0.809   3.954   4.928  0.7334  0.9102  0.9357
   22MOL   H10815270   1.678   3.582   4.961  0.0399 -1.0804 -0.7006
   22MOL   H10915271   1.936   3.592   4.969 -1.1151  0.3185 -0.7314
   22MOL   C11015272   0.876   3.897   4.747  0.5762  0.1113  0.3927
   22MOL   O11115273   0.968   3.834   4.692 -0.4785  0.0145 -0.3535
   22MOL   C11215274   0.756   3.946   4.672 -0.4902  0.9752 -0.6028
   22MOL   C11315275   0.664   3.856   4.618 -0.2464 -0.3311 -0.1913
   22MOL   C11415276   0.547   3.903   4.548 -0.2014  0.1644 -0.1423
   22MOL   C11515277   0.527   4.047   4.534 -0.3220  0.1003  0.5742
   22MOL   C11615278   0.401   4.092   4.468  0.6272  1.1011  0.2962
   22MOL   O11715279   0.302   4.021   4.473 -0.8658  0.2108  0.4619
   22MOL   N11815280   0.411   4.206   4.399 -0.0769  0.3402  0.5942
   22MOL   C11915281   0.314   4.268   4.303  0.3529 -0.4266  0.0106
   22MOL   C12015282   0.342   4.245   4.156  0.7077 -0.5979 -0.4209
   22MOL   C12115283   0.350   4.098   4.115 -0.4138  0.0408  0.6045
   22MOL   C12215284   0.370   4.083   3.959  0.1333 -0.0901  0.7608
   22MOL   C12315285   0.349   3.940   3.916 -0.4298 -0.0688  0.2811
   22MOL   C12415286   0.439   3.836   3.983 -0.2984 -0.0532  0.0214
   22MOL   N12515287   0.416   3.702   3.934  0.2389  0.7619 -0.3633
   22MOL   C12615288   0.616   4.129   4.589  0.5103 -0.0579 -0.1108
   22MOL   C12715289   0.729   4.082   4.658  0.3153  0.1510  0.7660
   22MOL   H12815290   0.679   3.749   4.614  0.4014 -0.2198 -1.0546
   22MOL   H12915291   0.471   3.838   4.507  0.7425  0.6687 -2.7494
   22MOL   H13015292   0.506   4.238   4.384 -0.7249  1.2728 -1.6545
   22MOL   H13115293   0.211   4.244   4.331  0.0392 -0.0475 -0.7929
   22MOL   H13215294   0.334   4.375   4.301 -0.2732 -0.3172 -0.4789
   22MOL   H13315295   0.437   4.284   4.121 -0.2275 -0.4084 -2.8451
   22MOL   H13415296   0.265   4.295   4.097 -0.5733 -0.1763  1.5412
   22MOL   H13515297   0.440   4.058   4.162  0.4251 -0.1880 -1.1423
   22MOL   H13615298   0.265   4.045   4.159 -1.0194  0.0685 -0.5199
   22MOL   H13715299   0.471   4.103   3.924  0.3420  0.9365  1.8895
   22MOL   H13815300   0.305   4.158   3.913 -0.4540  0.2721  2.1382
   22MOL   H13915301   0.368   3.933   3.809  0.6515  0.1901  0.4567
   22MOL   H14015302   0.243   3.915   3.912 -0.0590 -1.8517  0.9287
   22MOL   H14115303   0.538   3.869   3.953 -0.3061 -0.5434 -0.5495
   22MOL   H14215304   0.420   3.838   4.090  1.3808  1.4008  0.3072
   22MOL   H14315305   0.364   3.638   3.993 -0.6020 -0.1875 -2.0999
   22MOL   H14415306   0.603   4.237   4.588  1.0960  0.0785  2.7956
   22MOL   H14515307   0.793   4.158   4.699 -0.3345  0.8118  0.5489
   22MOL   C14615308   0.448   3.665   3.806 -0.7223  0.2657 -0.6252
   22MOL   O14715309   0.523   3.734   3.733 -0.6781  0.2707 -0.3731
   22MOL   C14815310   0.376   3.548   3.758 -0.0608  0.1962 -0.7972
   22MOL   C14915311   0.458   3.447   3.704 -0.1768  0.7360  0.1702
   22MOL   C15015312   0.400   3.326   3.655 -0.4933  0.2407 -0.7145
   22MOL   C15115313   0.261   3.310   3.657 -0.3783 -0.4291  0.0838
   22MOL   C15215314   0.193   3.186   3.611  0.1822 -0.8788 -0.2369
   22MOL   O15315315   0.252   3.078   3.613 -0.0092  0.2485 -0.3182
   22MOL   N15415316   0.080   3.204   3.549  0.7840  0.2660  0.3013
   22MOL   C15515317   7.876   3.097   3.501  0.1395 -0.4029  0.3160
   22MOL   C15615318   7.777   3.069   3.611 -0.3057  0.4494 -0.3434
   22MOL   C15715319   7.711   3.184   3.676  0.0161 -0.0705  0.5836
   22MOL   C15815320   7.556   3.172   3.673 -0.0687 -0.2111 -0.4472
   22MOL   C15915321   7.509   3.064   3.769 -0.1879 -0.4730  0.5900
   22MOL   C16015322   7.356   3.065   3.804 -0.0261 -0.6169  0.2443
   22MOL   N16115323   7.334   2.988   3.924  0.9495  0.3738 -0.2895
   22MOL   C16215324   0.181   3.418   3.702  0.6959  0.2223  0.1212
   22MOL   C16315325   0.237   3.536   3.755 -0.1120 -0.2260  0.0641
   22MOL   H16415326   0.564   3.467   3.695 -0.1182  0.3714  0.0707
   22MOL   H16515327   0.463   3.254   3.604  0.9627  2.1334 -1.6414
   22MOL   H16615328   0.051   3.301   3.548  0.8790  0.2889 -0.5497
   22MOL   H16715329   7.841   3.137   3.406 -1.8849  1.3042  1.7411
   22MOL   H16815330   0.047   3.008   3.477 -0.2809 -0.1795 -1.5752
   22MOL   H16915331   7.837   3.014   3.683 -0.5077 -0.6402 -1.0059
   22MOL   H17015332   7.706   2.999   3.567  0.2794  0.1163 -0.7708
   22MOL   H17115333   7.747   3.200   3.777  0.5010  4.4896 -0.2013
   22MOL   H17215334   7.725   3.280   3.627 -0.5320 -0.6316 -0.7077
   22MOL   H17315335   7.524   3.152   3.571 -0.2773  1.1372 -0.6464
   22MOL   H17415336   7.500   3.262   3.697 -1.8369 -1.3810 -0.0416
   22MOL   H17515337   7.550   3.082   3.868 -0.9838  1.9174  0.5098
   22MOL   H17615338   7.542   2.964   3.741 -1.0258 -0.8164  0.7810
   22MOL   H17715339   7.323   3.169   3.814  1.4925  0.0517 -1.3499
   22MOL   H17815340   7.307   3.026   3.714 -0.1597  1.7643 -0.7575
   22MOL   H17915341   7.332   3.041   4.010 -1.9197  0.2209 -0.2192
   22MOL   H18015342   0.074   3.419   3.689  0.9691  0.5697 -2.3704
   22MOL   H18115343   0.183   3.618   3.799  0.9418 -1.4094  3.7224
   22MOL   C18215344   7.329   2.855   3.922 -0.3068  0.0854  0.4276
   22MOL   O18315345   7.323   2.790   3.819 -0.6448 -0.4707  0.1023
   22MOL   C18415346   7.322   2.794   4.063  0.6129 -0.1651  0.6438
   22MOL   C18515347   7.394   2.842   4.164 -0.4923  0.2048 -0.7466
   22MOL   C18615348   7.384   2.777   4.290 -0.3195  0.0336 -0.3447
   22MOL   C18715349   7.300   2.667   4.309  0.5637  0.3735  1.0013
   22MOL   C18815350   7.283   2.619   4.449 -0.1501 -0.7712 -0.3271
   22MOL   O18915351   7.204   2.527   4.469  0.2851  0.0414 -0.0267
   22MOL   N19015352   7.376   2.644   4.542  0.1382 -0.4087 -0.3978
   22MOL   C19115353   7.390   2.572   4.666  0.0969  0.6099  0.2516
   22MOL   C19215354   7.462   2.435   4.637  0.0613  0.1798 -0.4400
   22MOL   C19315355   7.608   2.434   4.605  0.3922 -0.0417  0.3856
   22MOL   C19415356   7.685   2.302   4.642 -0.1904  0.2341  0.0013
   22MOL   C19515357   7.842   2.316   4.633  0.7308  0.6576  0.0067
   22MOL   C19615358   0.041   2.194   4.656  0.0519 -0.2185 -0.8268
   22MOL   N19715359   0.011   2.073   4.583  0.0632 -0.5109  0.3544
   22MOL   C19815360   7.222   2.620   4.205 -0.0356 -0.3563 -0.0617
   22MOL   C19915361   7.235   2.684   4.081  0.3938 -0.1028  0.1478
   22MOL   H20015362   7.468   2.919   4.152  0.7257 -0.9447 -0.7514
   22MOL   H20115363   7.442   2.818   4.371  1.3869  0.2195 -1.6177
   22MOL   H20215364   7.441   2.719   4.526  0.5507 -0.5110  0.7747
   22MOL   H20315365   7.458   2.623   4.734  1.3767  1.7841 -1.8661
   22MOL   H20415366   7.291   2.561   4.711  0.1400 -0.6516  0.0591
   22MOL   H20515367   7.403   2.380   4.563  0.0998  0.2363 -0.5116
   22MOL   H20615368   7.448   2.367   4.722 -0.8281 -0.4793 -1.0954
   22MOL   H20715369   7.615   2.450   4.497 -0.0469 -0.9424  0.2235
   22MOL   H20815370   7.652   2.521   4.653 -0.5887  0.7246 -0.0787
   22MOL   H20915371   7.643   2.222   4.581  0.5171 -1.1993  1.3429
   22MOL   H21015372   7.668   2.279   4.747 -0.7465  0.2139 -0.0941
   22MOL   H21115373   7.883   2.378   4.713 -0.4312 -0.6604  1.6622
   22MOL   H21215374   7.878   2.363   4.542 -0.3210 -0.7220 -1.1311
   22MOL   H21315375   0.146   2.215   4.636 -0.8377  2.6189 -2.8767
   22MOL   H21415376   0.033   2.164   4.760  0.1546  1.9744 -0.1700
   22MOL   H21515377   7.805   2.069   4.540 -0.4428  1.0463  1.2605
   22MOL   H21615378   7.152   2.540   4.224 -0.3539 -0.3316 -1.0946
   22MOL   H21715379   7.174   2.650   3.999  0.9824 -0.8414  0.0115
   22MOL   C21815380   0.068   1.959   4.586 -0.7384  0.5252  0.4600
   22MOL   O21915381   0.162   1.926   4.661  0.4000  0.2075 -0.1400
   22MOL   C22015382   0.007   1.860   4.485 -0.5247  0.5223  0.0804
   22MOL   C22115383   7.821   1.899   4.366  0.2493 -0.1512 -0.1381
   22MOL   C22215384   7.757   1.806   4.274  0.1188  0.0566 -0.1195
   22MOL   C22315385   7.799   1.671   4.301 -0.1213  0.7207 -0.5915
   22MOL   C22415386   7.755   1.566   4.201  0.4137  0.4954  0.2101
   22MOL   O22515387   7.836   1.489   4.150  0.0937 -0.0425 -0.2202
   22MOL   N22615388   7.624   1.567   4.185  0.3527  1.1526 -0.5462
   22MOL   C22715389   7.541   1.493   4.089 -0.9288  0.0898 -0.3655
   22MOL   C22815390   7.430   1.584   4.024 -0.7109 -0.0193 -0.1380
   22MOL   C22915391   7.350   1.654   4.119  0.5367  0.4192  0.1121
   22MOL   C23015392   7.237   1.727   4.055  0.6138 -0.1137 -0.2311
   22MOL   C23115393   7.152   1.808   4.149  0.4639 -0.0295  0.2105
   22MOL   C23215394   7.071   1.908   4.066  1.1071 -0.3656 -0.1626
   22MOL   N23315395   6.963   1.975   4.144  0.0807 -0.1457 -0.0493
   22MOL   C23415396   7.871   1.633   4.414 -0.4312 -0.6467  0.1452
   22MOL   C23515397   0.034   1.726   4.502 -0.6865  0.0063  0.1883
   22MOL   H23615398   7.806   2.005   4.351 -0.7008 -0.2158  0.3689
   22MOL   H23715399   7.681   1.833   4.202 -0.5543 -0.0525  0.5551
   22MOL   H23815400   7.578   1.627   4.252 -1.9490 -1.3164  0.1494
   22MOL   H23915401   7.597   1.441   4.012 -0.4340 -0.6247  0.4730
   22MOL   H24015402   7.496   1.416   4.153  1.4838 -1.5173 -0.5344
   22MOL   H24115403   7.378   1.517   3.955  0.5995  1.7941 -2.9816
   22MOL   H24215404   7.477   1.656   3.957  2.2424 -1.3528  0.4000
   22MOL   H24315405   7.321   1.582   4.196 -0.1149  1.7095  1.0881
   22MOL   H24415406   7.420   1.719   4.170  1.7093 -1.9393  1.5877
   22MOL   H24515407   7.174   1.659   3.997 -1.5210  0.7240  1.0276
   22MOL   H24615408   7.276   1.798   3.983 -0.2449  0.7463  0.1373
   22MOL   H24715409   7.213   1.855   4.226 -1.1946 -1.5856  2.5318
   22MOL   H24815410   7.086   1.738   4.200  0.1921  1.0836  1.4141
   22MOL   H24915411   7.141   1.976   4.018  1.4224 -1.0163 -0.6200
   22MOL   H25015412   7.025   1.863   3.978 -2.1299  2.0921  0.1984
   22MOL   H25115413   6.991   1.988   4.240 -0.2431 -1.7000  0.2758
   22MOL   H25215414   7.881   1.526   4.425  1.6806 -0.5912 -0.9941
   22MOL   H25315415   0.078   1.688   4.593 -0.8054  0.5585  0.4767
   22MOL   C25415416   6.839   2.010   4.111  0.1962 -0.4627 -0.2771
   22MOL   O25515417   6.795   1.997   3.993  0.9153 -0.4346  0.9795
   22MOL   C25615418   6.750   2.049   4.228 -0.5056  0.4649  0.4513
   22MOL   C25715419   6.608   2.040   4.211 -0.6545 -0.4076 -1.0036
   22MOL   C25815420   6.518   2.083   4.313  0.5324  0.3041  0.2059
   22MOL   C25915421   6.564   2.149   4.429  0.0653 -0.0068  0.1893
   22MOL   C26015422   6.467   2.192   4.533  0.1151  0.0710  0.5557
   22MOL   O26115423   6.358   2.219   4.497  0.2197 -0.2961 -0.0947
   22MOL   N26215424   6.507   2.179   4.656  0.6011 -1.1241 -0.4604
   22MOL   C26315425   6.423   2.189   4.778 -0.3066 -0.2755 -0.0126
   22MOL   C26415426   6.317   2.084   4.781  0.0041  0.5587 -0.3404
   22MOL   C26515427   6.207   2.125   4.880  0.0855  0.3130  0.1924
   22MOL   C26615428   6.094   2.025   4.895 -0.9738  0.1586 -0.7883
   22MOL   C26715429   6.108   1.885   4.961  0.3699 -0.3481  0.6576
   22MOL   C26815430   5.976   1.800   4.966 -0.2473 -0.0624  0.2946
   22MOL   N26915431   5.985   1.690   5.062 -0.0894  0.5755 -0.0020
   22MOL   C27015432   6.705   2.160   4.446 -0.1098 -0.2792  0.1603
   22MOL   C27115433   6.798   2.103   4.349 -0.0328  0.3220 -0.0272
   22MOL   H27215434   6.564   1.991   4.125  0.0126  0.1209 -1.6491
   22MOL   H27315435   6.412   2.067   4.301  0.6346  1.3556 -2.4583
   22MOL   H27415436   6.600   2.142   4.672  1.6140  1.1459 -0.8105
   22MOL   H27515437   6.483   2.190   4.869 -0.1492  0.6149 -0.1213
   22MOL   H27615438   6.369   2.284   4.778 -1.4627 -0.8471 -3.2837
   22MOL   H27715439   6.356   1.984   4.800 -2.3366 -0.6122 -1.5522
   22MOL   H27815440   6.265   2.070   4.687 -0.2292 -3.6249  0.3234
   22MOL   H27915441   6.255   2.132   4.978 -2.0839  2.3359  1.1474
   22MOL   H28015442   6.158   2.219   4.852 -1.7739 -0.4729  0.7790
   22MOL   H28115443   6.045   2.005   4.799  0.7815  2.2442 -2.1538
   22MOL   H28215444   6.019   2.084   4.948 -0.6142 -1.2185  1.3059
   22MOL   H28315445   6.144   1.913   5.060 -1.9568  3.6583  0.4872
   22MOL   H28415446   6.180   1.832   4.899  1.6598  0.2808  1.5962
   22MOL   H28515447   5.901   1.866   5.008  0.0546  0.5228 -0.0862
   22MOL   H28615448   5.941   1.786   4.864  0.5626  1.8897 -0.2724
   22MOL   H28715449   6.010   1.699   5.159 -3.1205  1.1989  0.7514
   22MOL   H28815450   6.744   2.198   4.539 -2.5877  1.0186  0.6973
   22MOL   H28915451   6.903   2.123   4.360 -0.3244  2.2003 -0.4321
   22MOL   C29015452   5.990   1.565   5.024  0.2459  0.5589 -0.3016
   22MOL   O29115453   5.967   1.528   4.909  0.0360  0.1367 -0.1119
   22MOL   C29215454   6.001   1.464   5.137 -0.4701  0.0228 -0.0496
   22MOL   C29315455   5.930   1.340   5.137 -0.6724 -0.2146  0.3395
   22MOL   C29415456   5.955   1.248   5.240  0.2022 -0.2464  0.0911
   22MOL   C29515457   6.060   1.273   5.333 -0.1283  0.4027  0.4021
   22MOL   C29615458   6.083   1.174   5.443  0.7331  0.3892  0.1992
   22MOL   O29715459   5.991   1.089   5.471 -0.2747 -0.0346 -0.0505
   22MOL   N29815460   6.203   1.178   5.506 -0.5096  0.3296  0.0124
   22MOL   C29915461   6.240   1.086   5.611  0.3721 -1.1584 -0.5631
   22MOL   C30015462   6.363   0.999   5.585  0.1023 -0.3649 -0.0243
   22MOL   C30115463   6.411   0.920   5.707  0.0180  0.2167 -0.4572
   22MOL   C30215464   6.324   0.799   5.735  0.8827 -0.0055  0.0946
   22MOL   C30315465   6.381   0.702   5.842  0.5901 -0.7806  0.2035
   22MOL   C30415466   6.409   0.766   5.975  0.5718 -0.1052 -0.6705
   22MOL   N30515467   6.301   0.856   6.016  0.8057 -0.0011  0.1349
   22MOL   C30615468   6.127   1.398   5.337  0.3576 -0.1146 -0.4121
   22MOL   C30715469   6.102   1.492   5.240 -0.1247 -0.4025  0.0978
   22MOL   H30815470   5.867   1.313   5.054  0.0703  0.8400 -0.5810
   22MOL   H30915471   5.897   1.158   5.247 -0.3204  0.1039  0.3218
   22MOL   H31015472   6.263   1.254   5.475 -1.6404  1.2869  0.1496
   22MOL   H31115473   6.253   1.153   5.696 -1.0185 -1.7791  0.1674
   22MOL   H31215474   6.155   1.023   5.639 -1.0634  1.4410  1.1510
   22MOL   H31315475   6.440   1.072   5.559 -0.3925  0.5817  1.1262
   22MOL   H31415476   6.343   0.928   5.505 -0.2826 -2.7511  2.1537
   22MOL   H31515477   6.515   0.891   5.690  0.7719  1.2585  2.1357
   22MOL   H31615478   6.427   0.974   5.801  3.2306 -1.9786  0.3841
   22MOL   H31715479   6.292   0.744   5.647 -1.5635  0.1988  0.8339
   22MOL   H31815480   6.238   0.850   5.778  1.3324  0.1452  0.8302
   22MOL   H31915481   6.480   0.665   5.815  2.1665  1.9707  1.9029
   22MOL   H32015482   6.314   0.617   5.853 -1.3276  0.6596 -0.1147
   22MOL   H32115483   6.427   0.689   6.049  0.1063 -0.0013 -0.4520
   22MOL   H32215484   6.498   0.830   5.968  0.0508  0.9906  2.0545
   22MOL   H32315485   6.209   0.819   6.032  1.5951 -1.6116  1.0125
   22MOL   H32415486   6.207   1.419   5.407  1.2489 -0.8170 -1.1987
   22MOL   H32515487   6.158   1.584   5.240 -0.2942 -0.2992  0.2676
   22MOL   C32615488   6.303   0.979   6.057  0.2454  0.5597 -0.5396
   22MOL   O32715489   6.402   1.049   6.074 -0.4752 -0.7758 -0.2024
   22MOL   C32815490   6.164   1.044   6.066 -0.1202 -0.4370  0.1105
   22MOL   C32915491   6.159   1.183   6.080 -0.3174 -0.6936  0.5726
   22MOL   C33015492   6.032   1.244   6.054  0.8700  0.0957  0.6560
   22MOL   C33115493   5.913   1.166   6.030 -0.3402 -0.2446  0.1898
   22MOL   C33215494   5.780   1.220   5.990 -0.3206 -0.8623 -0.3208
   22MOL   O33315495   5.711   1.170   5.903 -0.0810  0.3684  0.2926
   22MOL   N33415496   5.737   1.322   6.067 -0.0708  0.3952 -0.8179
   22MOL   C33515497   5.612   1.386   6.047  0.1077  0.8275  0.3431
   22MOL   C33615498   5.609   1.467   5.922  0.2502 -0.5815 -0.2976
   22MOL   C33715499   5.464   1.500   5.871  0.0247  0.4320 -0.5913
   22MOL   C33815500   5.452   1.571   5.739  0.1697  0.0200  0.0579
   22MOL   C33915501   5.518   1.713   5.735  0.7301  0.2310  0.2610
   22MOL   C34015502   5.511   1.786   5.597 -0.4967 -0.5526 -0.1083
   22MOL   N34115503   5.411   1.891   5.591  0.7524  0.6662 -0.0568
   22MOL   C34215504   5.920   1.030   6.050 -0.5512  0.0923  0.6833
   22MOL   C34315505   6.047   0.963   6.057 -0.1644 -0.8730  0.2677
   22MOL   H34415506   6.249   1.241   6.092  0.3423 -1.7868  0.9681
   22MOL   H34515507   6.022   1.351   6.045  0.0940 -0.1319 -1.5579
   22MOL   H34615508   5.798   1.371   6.131 -0.7276  2.7230 -1.8900
   22MOL   H34715509   5.530   1.315   6.035  2.1386 -1.3328 -1.2363
   22MOL   H34815510   5.584   1.452   6.129 -1.9080  1.3551 -0.7279
   22MOL   H34915511   5.664   1.413   5.845 -0.9712 -2.0358 -0.1688
   22MOL   H35015512   5.662   1.563   5.927 -1.3907  0.3095  0.5057
   22MOL   H35115513   5.414   1.406   5.845  2.7052 -1.2218  0.0809
   22MOL   H35215514   5.405   1.555   5.944 -0.3594  0.2169 -0.7333
   22MOL   H35315515   5.344   1.580   5.723  0.4679  1.0091 -1.5157
   22MOL   H35415516   5.479   1.508   5.653 -1.0518  0.2193 -0.4822
   22MOL   H35515517   5.624   1.720   5.759  0.7945  0.5305 -0.0980
   22MOL   H35615518   5.470   1.774   5.811 -0.4302 -1.4489  0.8893
   22MOL   H35715519   5.600   1.835   5.557 -0.7659 -0.2035 -0.2826
   22MOL   H35815520   5.488   1.711   5.521  0.8677 -2.4613  1.3288
   22MOL   H35915521   5.434   1.983   5.627 -1.0563  1.0265  0.2222
   22MOL   H36015522   5.841   0.965   6.015  1.8884 -1.1044 -2.9903
   22MOL   H36115523   6.049   0.856   6.048 -2.1647 -0.7917 -1.5076
   22MOL   C36215524   5.279   1.865   5.560 -0.6741  0.3066 -0.4880
   22MOL   O36315525   5.226   1.754   5.549  0.1089 -0.2465 -0.1725
   22MOL   C36415526   5.195   1.991   5.543  0.5037  0.4137 -0.0899
   22MOL   C36515527   5.055   1.971   5.534 -0.0102 -0.3123  0.9615
   22MOL   C36615528   4.974   2.080   5.508 -0.2156  0.0355  0.9441
   22MOL   C36715529   5.031   2.214   5.502  0.0697 -0.0968 -0.0933
   22MOL   C36815530   4.945   2.327   5.463  0.3558  0.0940 -0.3426
   22MOL   O36915531   4.828   2.330   5.495  0.0773 -0.6831  0.3939
   22MOL   N37015532   5.006   2.420   5.378  0.0333  0.7732  0.0494
   22MOL   C37115533   4.949   2.548   5.334  0.1220 -0.0593 -0.1769
   22MOL   C37215534   4.894   2.635   5.453  1.3663 -0.0391 -0.0444
   22MOL   C37315535   4.819   2.775   5.422 -0.1023 -0.2102 -0.4074
   22MOL   C37415536   4.771   2.844   5.552 -0.2684 -0.0712 -0.7618
   22MOL   C37515537   4.723   2.986   5.527  0.5796  0.3293  1.0996
   22MOL   C37615538   4.835   3.085   5.484 -0.0501 -0.4708  0.1918
   22MOL   N37715539   4.896   3.145   5.606  0.5103  0.0324  0.3517
   22MOL   C37815540   5.166   2.232   5.505  0.2054  0.3847  0.7379
   22MOL   C37915541   5.250   2.122   5.534 -0.6768  0.3727  0.0784
   22MOL   H38015542   5.010   1.873   5.527  1.6008 -0.9565 -0.8370
   22MOL   H38115543   4.871   2.064   5.480 -0.0679  0.7885 -0.0804
   22MOL   H38215544   5.094   2.398   5.332 -1.4334 -2.0277 -1.5535
   22MOL   H38315545   5.016   2.588   5.257 -0.2220  2.4109  0.7507
   22MOL   H38415546   4.857   2.529   5.279 -0.6219  0.8992  0.7126
   22MOL   H38515547   4.982   2.652   5.515 -0.0549 -0.6870  2.1784
   22MOL   H38615548   4.833   2.578   5.523 -1.4912 -0.0897 -2.4752
   22MOL   H38715549   4.889   2.839   5.368  1.5440 -0.6939  1.1328
   22MOL   H38815550   4.735   2.766   5.353 -1.0831  0.8452  0.6209
   22MOL   H38915551   4.865   2.850   5.607  0.7722 -1.0048 -2.3963
   22MOL   H39015552   4.697   2.783   5.603  1.5927 -1.9947 -0.2915
   22MOL   H39115553   4.682   3.029   5.618 -0.5657  0.6554  0.4391
   22MOL   H39215554   4.642   2.984   5.454 -0.1003 -1.7284  1.8845
   22MOL   H39315555   4.908   3.034   5.421 -1.1636  0.3714 -1.7947
   22MOL   H39415556   4.798   3.167   5.424 -1.5849 -0.8033  0.6738
   22MOL   H39515557   4.845   3.205   5.670  0.4219 -1.7041  1.9372
   22MOL   H39615558   5.207   2.331   5.501 -0.7270  0.7455 -0.4032
   22MOL   H39715559   5.357   2.133   5.528 -0.6227  2.0869  3.1957
   22MOL   C39815560   5.020   3.131   5.643 -0.1979  0.5885 -0.2390
   22MOL   O39915561   5.096   3.052   5.588 -0.2166 -0.2519  0.8544
   22MOL   C40015562   5.066   3.228   5.751  0.5096 -0.0046  0.2573
   22MOL   C40115563   5.201   3.267   5.765 -0.2421 -0.0146 -0.1502
   22MOL   C40215564   5.240   3.346   5.880 -0.6214  0.5019 -0.1258
   22MOL   C40315565   5.147   3.381   5.979 -0.1180  0.1252  0.5741
   22MOL   C40415566   5.187   3.451   6.104 -0.0693  0.5726 -0.0549
   22MOL   O40515567   5.097   3.509   6.162  0.3640  0.3402  0.3519
   22MOL   N40615568   5.317   3.453   6.141  0.3721  0.7028  0.6811
   22MOL   C40715569   5.360   3.505   6.272  0.1344  0.7394  0.2365
   22MOL   C40815570   5.509   3.525   6.284  0.0885 -0.8080  0.1788
   22MOL   C40915571   5.551   3.542   6.425  0.4626 -0.1900  0.1261
   22MOL   C41015572   5.699   3.566   6.445 -0.8065  0.1151 -0.2885
   22MOL   C41115573   5.742   3.615   6.592  1.0108 -0.4245  0.5694
   22MOL   C41215574   5.885   3.583   6.624 -0.0487 -0.2836  0.1172
   22MOL   N41315575   5.906   3.596   6.764 -0.0084 -0.7152 -0.6076
   22MOL   C41415576   5.011   3.333   5.960 -0.2462 -0.8542 -0.3287
   22MOL   C41515577   4.967   3.266   5.846  0.3086  0.8570 -0.5308
   22MOL   H41615578   5.264   3.239   5.682  1.0881  2.5528 -0.0644
   22MOL   H41715579   5.341   3.382   5.891 -0.5636 -0.1978  1.8625
   22MOL   H41815580   5.373   3.385   6.092 -1.2051 -0.3608  0.3137
   22MOL   H41915581   5.321   3.606   6.285 -1.2639  0.4595 -1.6218
   22MOL   H42015582   5.325   3.444   6.355 -1.6304  1.6505  0.2039
   22MOL   H42115583   5.546   3.611   6.228  1.9627 -0.9299  1.1967
   22MOL   H42215584   5.562   3.439   6.245  0.4299 -1.2511  1.5885
   22MOL   H42315585   5.503   3.630   6.469 -0.3184 -0.8102  0.5252
   22MOL   H42415586   5.526   3.458   6.490 -1.2273 -0.3109 -0.6526
   22MOL   H42515587   5.735   3.642   6.375 -0.9120  0.4439  0.0149
   22MOL   H42615588   5.739   3.467   6.424 -0.3140  0.2753 -0.1218
   22MOL   H42715589   5.676   3.553   6.653  0.3993 -1.8780 -1.4945
   22MOL   H42815590   5.716   3.718   6.614 -2.1311 -0.8712 -0.7613
   22MOL   H42915591   5.905   3.481   6.590 -0.8988 -0.1088 -0.9191
   22MOL   H43015592   5.952   3.645   6.566  1.0340 -1.4298  0.1198
   22MOL   H43115593   5.889   3.518   6.825  0.9388  0.0376  0.6353
   22MOL   H43215594   4.947   3.366   6.041  0.5637  1.2235 -0.4936
   22MOL   H43315595   4.866   3.230   5.832  0.6177 -0.2407  0.0263
   22MOL   C43415596   5.987   3.694   6.818  0.1810 -0.2723 -0.4945
   22MOL   O43515597   6.012   3.801   6.763  0.4389 -0.1574 -0.1753
   22MOL   C43615598   6.054   3.659   6.947  0.4602 -0.2546  0.0812
   22MOL   C43715599   6.019   3.540   7.016 -0.1764  0.2067  0.4229
   22MOL   C43815600   6.082   3.503   7.134 -0.4908  0.8141  0.2995
   22MOL   C43915601   6.185   3.583   7.185 -0.9105 -0.0870 -0.8246
   22MOL   C44015602   6.235   3.551   7.320 -0.2013  0.6853 -0.6873
   22MOL   O44115603   6.168   3.490   7.412  0.5685  0.1920  0.2205
   22MOL   N44215604   6.367   3.586   7.336  0.4017 -0.2499 -0.2816
   22MOL   C44315605   6.457   3.542   7.444 -0.1371 -0.0197  0.0258
   22MOL   C44415606   6.525   3.401   7.411  1.1479 -0.7846 -0.7792
   22MOL   C44515607   6.540   3.355   7.265 -0.1385 -0.7807 -0.1317
   22MOL   C44615608   6.608   3.216   7.257 -0.2871  0.5336  0.5784
   22MOL   C44715609   6.611   3.165   7.109  0.1749  0.1862 -0.2773
   22MOL   C44815610   6.692   3.036   7.093 -0.8191 -0.0782 -0.2030
   22MOL   N44915611   6.617   2.922   7.148  0.2349  0.7160  0.0829
   22MOL   C45015612   6.216   3.707   7.122  0.1082  0.1130 -0.6050
   22MOL   C45115613   6.148   3.742   7.002  0.0703 -0.7604 -0.2209
   22MOL   H45215614   5.940   3.478   6.974  0.2201 -0.0574  0.0638
   22MOL   H45315615   6.044   3.411   7.174 -1.0143  1.1839  0.6531
   22MOL   H45415616   6.411   3.635   7.259  1.4920  0.2837  0.6708
   22MOL   H45515617   6.533   3.619   7.450 -0.2561  0.2291 -1.3825
   22MOL   H45615618   6.412   3.545   7.543 -2.4877 -2.4913 -0.8837
   22MOL   H45715619   6.463   3.323   7.454  1.3484 -1.5261 -1.8176
   22MOL   H45815620   6.627   3.393   7.448  1.0919  0.6350 -0.2968
   22MOL   H45915621   6.441   3.348   7.221  0.1755  1.3547 -1.2552
   22MOL   H46015622   6.597   3.430   7.209  0.0722 -1.2146 -0.5077
   22MOL   H46115623   6.552   3.149   7.321 -0.7630 -0.6884 -1.0968
   22MOL   H46215624   6.712   3.215   7.291 -1.0167  0.4211  2.8638
   22MOL   H46315625   6.666   3.242   7.056 -0.6391 -0.9446 -2.8198
   22MOL   H46415626   6.514   3.162   7.058  0.9984  2.8738 -2.1200
   22MOL   H46515627   6.709   3.018   6.987 -0.9287 -0.9903 -0.0689
   22MOL   H46615628   6.789   3.045   7.142 -1.1173  0.4410  0.2979
   22MOL   H46715629   6.552   2.950   7.220 -1.0438  2.2739 -1.6108
   22MOL   H46815630   6.282   3.777   7.171  0.9010 -0.4165 -0.8979
   22MOL   H46915631   6.156   3.838   6.952  0.4468 -1.0536 -0.7298
   22MOL   C47015632   6.616   2.795   7.091  0.3340 -0.9100 -0.0183
   22MOL   O47115633   6.682   2.760   6.991 -0.3086 -0.4107  0.3205
   22MOL   C47215634   6.519   2.699   7.150  0.8463 -0.2361  0.2195
   22MOL   C47315635   6.457   2.724   7.278  0.4000 -0.1150  0.7908
   22MOL   C47415636   6.353   2.640   7.318 -0.6361 -1.0365 -0.6785
   22MOL   C47515637   6.314   2.525   7.245  0.0129  0.2361 -0.5407
   22MOL   C47615638   6.230   2.420   7.309  0.5404 -0.1939  0.2369
   22MOL   O47715639   6.262   2.372   7.414 -0.5797 -0.7787 -0.4927
   22MOL   N47815640   6.118   2.392   7.242 -0.2508  0.0128  0.1148
   22MOL   C47915641   6.015   2.286   7.261  0.2962 -0.6481 -0.2459
   22MOL   C48015642   5.980   2.212   7.129  0.3636  0.0598  0.0027
   22MOL   C48115643   5.861   2.114   7.140 -0.1447 -0.4093 -0.6012
   22MOL   C48215644   5.873   2.005   7.245 -0.4492 -0.5262 -0.4666
   22MOL   C48315645   5.753   1.906   7.254  0.0658  0.5305 -0.3730
   22MOL   C48415646   5.614   1.979   7.284  0.3948 -0.7636 -0.6964
   22MOL   N48515647   5.619   2.047   7.409  0.1436 -0.1906 -0.0012
   22MOL   C48615648   6.373   2.504   7.121  0.0414  0.3251 -0.7363
   22MOL   C48715649   6.476   2.586   7.077 -0.0759 -0.5452 -0.0866
   22MOL   H48815650   6.472   2.814   7.337  0.1971  0.6812 -0.3454
   22MOL   H48915651   6.298   2.649   7.410 -1.0126  0.8306 -1.0769
   22MOL   H49015652   6.098   2.450   7.162  0.2413 -1.2021 -0.8886
   22MOL   H49115653   6.046   2.214   7.337  0.5287 -0.5684 -0.2622
   22MOL   H49215654   5.924   2.333   7.298  0.7411 -0.1765  0.2675
   22MOL   H49315655   6.066   2.159   7.089 -0.5348 -0.1131 -1.7341
   22MOL   H49415656   5.955   2.280   7.047 -1.3829 -0.6089 -0.0534
   22MOL   H49515657   5.768   2.163   7.166 -0.4040 -1.2393  0.0625
   22MOL   H49615658   5.839   2.077   7.040  0.7594  0.2740 -1.0682
   22MOL   H49715659   5.862   2.052   7.343 -3.0871  0.8219 -1.3574
   22MOL   H49815660   5.972   1.960   7.236  0.8123  2.2748 -1.2759
   22MOL   H49915661   5.769   1.849   7.345 -0.9770 -0.3883 -0.7468
   22MOL   H50015662   5.750   1.840   7.168 -1.9162  1.9452 -1.4278
   22MOL   H50115663   5.578   2.040   7.201 -0.6990  0.4277  0.6138
   22MOL   H50215664   5.541   1.898   7.295 -0.8822  0.5821  1.0924
   22MOL   H50315665   5.636   1.992   7.492 -1.6839  1.0121  1.1943
   22MOL   H50415666   6.338   2.425   7.056  2.3937 -0.2801 -1.3068
   22MOL   H50515667   6.525   2.559   6.984  0.2391  1.5228 -0.5358
   22MOL   C50615668   5.594   2.178   7.423  0.2577  0.4709 -0.5877
   22MOL   O50715669   5.553   2.258   7.338  0.4417 -0.0430  0.0106
   22MOL   C50815670   5.619   2.228   7.558 -0.3595  0.0746 -0.0789
   22MOL   C50915671   5.567   2.155   7.667 -0.3465 -0.1828  0.2619
   22MOL   C51015672   5.577   2.211   7.798 -0.1461  0.2682 -0.2627
   22MOL   C51115673   5.659   2.323   7.824 -0.0094 -0.9034  0.6423
   22MOL   C51215674   5.692   2.366   0.076  0.2411  0.2109 -0.1983
   22MOL   O51315675   5.692   2.485   0.110 -0.3352  0.0183  0.0548
   22MOL   N51415676   5.710   2.269   0.162  0.1001  0.1348 -0.4348
   22MOL   C51515677   5.702   2.296   0.303 -0.5891  0.0156 -0.5028
   22MOL   C51615678   5.684   2.168   0.383 -0.2204 -0.7165  0.1074
   22MOL   C51715679   5.544   2.123   0.371 -0.0494 -0.4748 -0.6044
   22MOL   C51815680   5.524   1.990   0.454 -0.8273  0.0559  0.2392
   22MOL   C51915681   5.421   1.899   0.385 -0.2803 -0.6972  0.7730
   22MOL   C52015682   5.381   1.786   0.478 -0.2480 -0.9393  0.4408
   22MOL   N52115683   5.301   1.680   0.403  0.3605 -0.0646 -0.1435
   22MOL   C52215684   5.703   2.398   7.714  0.0093 -0.0229  0.7148
   22MOL   C52315685   5.688   2.346   7.579 -0.6956 -0.5275 -0.2667
   22MOL   H52415686   5.506   2.069   7.641  1.5446 -2.0559  1.7958
   22MOL   H52515687   5.526   2.168   7.883  0.7110  0.6798  0.4714
   22MOL   H52615688   5.717   2.174   0.127 -1.7900 -0.7621  1.5272
   22MOL   H52715689   5.790   2.348   0.341 -0.8058  0.8596 -1.1506
   22MOL   H52815690   5.622   2.362   0.335  0.6352  0.7921  1.0353
   22MOL   H52915691   5.712   2.190   0.485  0.1039 -0.9644  0.0721
   22MOL   H53015692   5.746   2.087   0.343 -0.3104  0.6727 -3.0289
   22MOL   H53115693   5.467   2.189   0.412  0.5485 -1.2308  1.8195
   22MOL   H53215694   5.521   2.116   0.265  1.4068 -0.7963 -0.9052
   22MOL   H53315695   5.500   2.012   0.558  2.7175  2.6065  0.5975
   22MOL   H53415696   5.614   1.929   0.457 -0.4931  0.5696  0.8984
   22MOL   H53515697   5.479   1.866   0.299  0.8585  0.2168  1.1711
   22MOL   H53615698   5.333   1.951   0.346  1.4435 -0.0254 -2.3490
   22MOL   H53715699   5.467   1.743   0.529  1.2601  0.2257 -1.0662
   22MOL   H53815700   5.319   1.826   0.558  0.4104  2.7148 -0.7938
   22MOL   H53915701   5.218   1.711   0.354 -0.3557 -0.2697  0.9273
   22MOL   H54015702   5.755   2.491   7.728  2.0480 -0.8985 -0.7337
   22MOL   H54115703   5.714   2.395   7.487  0.4681  1.3533  1.0111
   22MOL   C54215704   5.347   1.561   0.381  0.1971  0.5879  0.1239
   22MOL   O54315705   5.458   1.518   0.421 -0.1101  0.0238 -0.3354
   22MOL   C54415706   5.271   1.489   0.279 -0.0344 -0.5966 -0.3006
   22MOL   C54515707   5.315   1.485   0.146 -0.0107 -0.6408 -0.5265
   22MOL   C54615708   5.242   1.423   0.049 -0.5917 -0.0179  0.1847
   22MOL   C54715709   5.121   1.362   0.086  0.2393 -1.0036 -0.1056
   22MOL   C54815710   5.043   1.302   7.861 -0.2066  0.5263 -0.5322
   22MOL   O54915711   5.098   1.256   7.762 -0.2302 -0.6176  0.3331
   22MOL   N55015712   4.908   1.305   7.878 -0.3683 -0.2454 -0.4103
   22MOL   C55115713   4.802   1.271   7.789  0.2125  0.0124 -0.0193
   22MOL   C55215714   4.668   1.313   7.856 -0.4232  0.3629 -1.0943
   22MOL   C55315715   4.632   1.461   7.821 -0.0215 -0.1837  0.5146
   22MOL   C55415716   4.739   1.573   7.844 -0.2939 -0.0095  0.5356
   22MOL   C55515717   4.767   1.576   0.105 -0.4118 -0.4022 -0.5592
   22MOL   C55615718   4.870   1.683   0.151  0.0981  0.1253  0.2532
   22MOL   N55715719   4.992   1.675   0.062  0.7234  0.6702  0.0448
   22MOL   C55815720   5.080   1.354   0.219 -0.7263  0.0675  0.1866
   22MOL   C55915721   5.162   1.407   0.314  0.0276  0.2039 -0.1008
   22MOL   H56015722   5.406   1.534   0.115 -1.7371  1.7677 -1.9203
   22MOL   H56115723   5.271   1.428   7.831  0.7530  3.9720  0.6593
   22MOL   H56215724   4.878   1.321   0.087 -1.8218 -1.1348 -0.7181
   22MOL   H56315725   4.826   1.319   7.694  0.7245 -2.9673 -1.4456
   22MOL   H56415726   4.817   1.165   7.773  0.9449 -0.0027  0.7519
   22MOL   H56515727   4.676   1.305   0.078 -2.6781  1.3959 -0.8167
   22MOL   H56615728   4.590   1.243   7.827 -1.8441  2.3152 -2.1274
   22MOL   H56715729   4.606   1.483   7.717  2.0126  0.4040  0.1154
   22MOL   H56815730   4.542   1.473   7.881 -1.3254  0.9391 -1.5852
   22MOL   H56915731   4.712   1.674   7.813  2.0645  0.7266  0.7855
   22MOL   H57015732   4.827   1.546   7.786 -1.1715 -1.0137 -0.3456
   22MOL   H57115733   4.804   1.480   0.139  1.2706  0.4717  0.1549
   22MOL   H57215734   4.677   1.595   0.164  2.3847  2.0396  3.2052
   22MOL   H57315735   4.832   1.784   0.168 -3.4212 -1.1563  0.4749
   22MOL   H57415736   4.907   1.664   0.252 -0.7724 -0.6166  0.4402
   22MOL   H57515737   5.023   1.582   0.036 -0.4159 -0.1187  1.4595
   22MOL   H57615738   4.996   1.290   0.244  1.1193 -1.9068  1.5353
   22MOL   H57715739   5.141   1.394   0.419 -2.8616  1.9200 -0.4123
   22MOL   C57815740   5.071   1.778   0.037 -0.2197  0.3160 -0.0545
   22MOL   O57915741   5.051   1.886   0.090 -0.2588 -0.0032  0.5221
   22MOL   C58015742   5.196   1.751   7.843  0.7241 -0.5219 -0.5069
   22MOL   C58115743   5.198   1.676   7.724 -1.2111  0.1725  0.1435
   22MOL   C58215744   5.314   1.663   7.643  0.4006  0.6052  0.1574
   22MOL   C58315745   5.431   1.726   7.684  0.1439  0.3204  0.1836
   22MOL   C58415746   5.558   1.712   7.608  0.3458  0.8088 -0.4748
   22MOL   O58515747   5.631   1.806   7.597  0.8031  0.7656 -0.4404
   22MOL   N58615748   5.576   1.599   7.541  0.4710 -0.0017  0.4088
   22MOL   C58715749   5.657   1.588   7.419  0.3829  0.3787  0.2317
   22MOL   C58815750   5.658   1.453   7.352 -0.9025 -0.3116  0.8285
   22MOL   C58915751   5.727   1.477   7.214 -0.1539  0.3085  0.0892
   22MOL   C59015752   5.702   1.352   7.117  0.4443  0.2179  0.6977
   22MOL   C59115753   5.743   1.383   6.976 -0.4233 -0.0383 -0.2476
   22MOL   C59215754   5.806   1.267   6.899 -0.0673  0.3300 -0.3762
   22MOL   N59315755   5.721   1.152   6.890 -0.2139 -0.1127 -0.3114
   22MOL   C59415756   5.423   1.810   7.798 -0.5579  0.2248 -0.1203
   22MOL   C59515757   5.311   1.821   7.886 -0.1040  0.3016  0.3257
   22MOL   H59615758   5.108   1.621   7.703  0.5700 -2.6952 -0.2767
   22MOL   H59715759   5.316   1.596   7.558 -1.9949  0.3457  0.2851
   22MOL   H59815760   5.520   1.518   7.564  0.3488 -0.4359 -1.3730
   22MOL   H59915761   5.616   1.673   7.364 -0.8157  0.9283  1.9144
   22MOL   H60015762   5.760   1.615   7.440  1.0201 -1.7067 -0.1385
   22MOL   H60115763   5.553   1.425   7.343 -1.4308  2.4473 -2.6627
   22MOL   H60215764   5.708   1.383   7.420 -1.3971  0.2773  1.8083
   22MOL   H60315765   5.678   1.557   7.160 -0.9126  0.3328  0.8091
   22MOL   H60415766   5.835   1.482   7.228 -0.3681  0.1448  1.9867
   22MOL   H60515767   5.597   1.323   7.117  0.2643  0.8354  2.0899
   22MOL   H60615768   5.763   1.272   7.158  1.9464 -0.1451 -2.0877
   22MOL   H60715769   5.820   1.460   6.969  0.3998 -0.8855 -0.6415
   22MOL   H60815770   5.666   1.424   6.911  0.8252 -0.2176 -1.8645
   22MOL   H60915771   5.837   1.309   6.804  1.0652 -1.6154 -0.8912
   22MOL   H61015772   5.905   1.249   6.943 -0.6383  2.4355  1.8955
   22MOL   H61115773   5.742   1.077   6.953 -1.5071  0.7565  1.1902
   22MOL   H61215774   5.516   1.845   7.841 -0.0000  1.7870 -2.5354
   22MOL   H61315775   5.328   1.871   0.094 -0.2128 -2.2762  1.7649
   22MOL   C61415776   5.632   1.115   6.796  0.4012 -0.6472 -0.4781
   22MOL   O61515777   5.603   1.176   6.693 -1.0299  0.1574 -0.2785
   22MOL   C61615778   5.560   0.990   6.838 -0.5670 -0.0176 -0.2808
   22MOL   C61715779   5.548   0.959   6.974 -0.3845  0.7799 -0.5011
   22MOL   C61815780   5.482   0.844   7.017 -0.1725  0.1034  0.5599
   22MOL   C61915781   5.416   0.761   6.915 -0.1242  0.0822 -0.3580
   22MOL   C62015782   5.332   0.647   6.963  0.1742  0.3787  0.5821
   22MOL   O62115783   5.284   0.657   7.078  0.5956 -0.1851  0.2698
   22MOL   N62215784   5.318   0.542   6.881  0.4127  0.0207 -0.7562
   22MOL   C62315785   5.212   0.442   6.894 -0.3380 -0.1100 -0.0885
   22MOL   C62415786   5.076   0.477   6.839 -0.3331 -1.0946 -0.6292
   22MOL   C62515787   5.081   0.538   6.693  0.0113 -0.2168  0.0540
   22MOL   C62615788   4.954   0.592   6.626 -0.0524 -0.2339 -0.3683
   22MOL   C62715789   4.841   0.486   6.643  0.3080 -0.0177  0.7448
   22MOL   C62815790   4.718   0.532   6.565 -0.5812  0.8280  0.7051
   22MOL   N62915791   4.649   0.643   6.633  0.2223 -0.0478  0.8986
   22MOL   C63015792   5.426   0.794   6.778  0.2299 -0.0718  0.3467
   22MOL   C63115793   5.494   0.909   6.741  0.3585 -0.2635 -0.6769
   22MOL   H63215794   5.593   1.017   7.053 -0.4006  1.0368 -0.6798
   22MOL   H63315795   5.466   0.807   7.117  1.3468 -1.1163  0.3839
   22MOL   H63415796   5.362   0.556   6.792 -1.3644  1.5429 -1.4367
   22MOL   H63515797   5.246   0.343   6.862  1.2333  1.1835 -2.5579
   22MOL   H63615798   5.195   0.422   7.000 -1.1853  1.5449  0.1011
   22MOL   H63715799   5.021   0.539   6.909  0.8597  2.1034 -2.4062
   22MOL   H63815800   5.031   0.378   6.832  0.4871 -1.7984  3.0838
   22MOL   H63915801   5.141   0.628   6.702  2.6042 -1.8810 -0.0406
   22MOL   H64015802   5.121   0.477   6.611  0.0058  0.0063 -0.1141
   22MOL   H64115803   4.963   0.625   6.523 -2.7061  0.5480 -0.3757
   22MOL   H64215804   4.928   0.683   6.679 -1.1087 -0.9341  0.3402
   22MOL   H64315805   4.837   0.454   6.748 -0.7778 -1.9858  0.1244
   22MOL   H64415806   4.875   0.394   6.594 -0.4056 -0.3229  0.8109
   22MOL   H64515807   4.743   0.554   6.461  1.0447  1.6309  1.2463
   22MOL   H64615808   4.652   0.446   6.551  1.1864 -0.6003  0.8923
   22MOL   H64715809   4.650   0.649   6.734  2.3662 -0.3358  0.9093
   22MOL   H64815810   5.372   0.734   6.707  2.4491 -1.2296 -0.4131
   22MOL   H64915811   5.502   0.934   6.637  0.6428 -0.4831 -0.7096
   22MOL   C65015812   4.618   0.759   6.572  0.1822 -0.4413 -0.1917
   22MOL   O65115813   4.639   0.785   6.453 -0.3385 -0.0146  0.1243
   22MOL   C65215814   4.574   0.859   6.669  0.2811 -0.3543 -0.7623
   22MOL   C65315815   4.633   0.987   6.682  0.2585 -0.3014  0.4922
   22MOL   C65415816   4.585   1.080   6.769 -0.4355 -0.0372 -0.4915
   22MOL   C65515817   4.485   1.049   6.861 -0.7514 -0.1280 -0.1675
   22MOL   C65615818   4.450   1.153   6.964  0.5250 -0.1154 -0.4709
   22MOL   O65715819   4.535   1.240   6.996  0.0221  0.2878  0.5693
   22MOL   N65815820   4.334   1.136   7.031 -0.0292  0.2133 -0.7512
   22MOL   C65915821   4.303   1.230   7.138 -0.0522  0.4705 -0.0888
   22MOL   C66015822   4.177   1.197   7.222  0.5262  0.1462 -0.6114
   22MOL   C66115823   4.054   1.168   7.136 -0.5830  0.6452 -0.5582
   22MOL   C66215824   3.928   1.146   7.220  0.2074 -0.6482  0.1359
   22MOL   C66315825   3.894   1.266   7.318  0.7065 -0.0283 -0.1376
   22MOL   C66415826   3.774   1.248   7.414  0.8008  0.0559 -0.1005
   22MOL   N66515827   3.747   1.372   7.490 -0.3410 -0.1598  0.2503
   22MOL   C66615828   4.426   0.919   6.857  0.3878 -0.0396 -0.0501
   22MOL   C66715829   4.474   0.827   6.761 -0.6751  0.3882 -0.4840
   22MOL   H66815830   4.714   1.005   6.613 -0.2211  1.2782  0.3225
   22MOL   H66915831   4.624   1.181   6.777  0.4323 -0.3871 -0.2327
   22MOL   H67015832   4.264   1.080   6.984 -0.0574 -1.8383  1.6605
   22MOL   H67115833   4.392   1.262   7.192  1.4635 -2.7325 -0.6256
   22MOL   H67215834   4.282   1.326   7.090 -0.7169  0.5829  0.4234
   22MOL   H67315835   4.162   1.285   7.285  1.2954  0.9982 -1.5948
   22MOL   H67415836   4.190   1.111   7.288  0.2201  0.2989 -0.3525
   22MOL   H67515837   4.037   1.269   7.098  0.6719  1.2177  0.3547
   22MOL   H67615838   4.082   1.112   7.047 -0.1793  0.6802 -0.4545
   22MOL   H67715839   3.935   1.053   7.277 -0.6011 -1.2682 -0.7641
   22MOL   H67815840   3.853   1.125   7.144  0.4581  0.0765 -0.3191
   22MOL   H67915841   3.883   1.354   7.255 -1.0781 -0.6472 -0.7212
   22MOL   H68015842   3.982   1.295   7.374 -0.0298  0.1530  0.9515
   22MOL   H68115843   3.685   1.232   7.353  2.1133 -0.1866 -2.0225
   22MOL   H68215844   3.794   1.163   7.480 -1.3253 -3.1279 -3.3806
   22MOL   H68315845   3.680   1.433   7.446  0.7793  0.4470 -0.6409
   22MOL   H68415846   4.360   0.881   6.934  1.8420 -2.9784 -0.1663
   22MOL   H68515847   4.427   0.731   6.774  0.7878 -0.5737 -2.1641
   22MOL   C68615848   3.796   1.402   7.607  0.0335 -0.2322  0.9896
   22MOL   O68715849   3.883   1.333   7.667 -0.2833  0.4160 -0.0435
   22MOL   C68815850   3.759   1.543   7.657  0.0123 -0.1600 -0.0073
   22MOL   C68915851   3.667   1.625   7.591 -0.1083 -0.2301 -0.5931
   22MOL   C69015852   3.625   1.755   7.641 -0.3494 -0.3574 -0.3404
   22MOL   C69115853   3.670   1.797   7.770  0.1984  1.1553  0.2385
   22MOL   C69215854   3.626   1.922   7.824 -0.2959 -0.1487  0.3627
   22MOL   O69315855   3.509   1.963   7.813 -0.5467 -0.1282 -0.4432
   22MOL   N69415856   3.718   1.992   7.883  0.1629  0.7827 -0.5484
   22MOL   C69515857   3.713   2.138   0.034 -0.0687 -0.1866  0.0028
   22MOL   C69615858   3.642   2.162   0.165 -0.5143  0.1369 -0.9090
   22MOL   C69715859   3.720   2.084   0.279 -0.2581  0.3764  0.2509
   22MOL   C69815860   3.657   2.109   0.416 -0.7983  0.1277  0.1430
   22MOL   C69915861   3.726   2.030   0.527  0.3488  0.2309 -0.0602
   22MOL   C70015862   3.866   2.073   0.539  0.5931  0.3117 -1.2150
   22MOL   N70115863   3.916   2.032   0.667  0.2020  0.3156 -0.1465
   22MOL   C70215864   3.774   1.720   7.829  0.7983 -0.0962  0.7528
   22MOL   C70315865   3.816   1.597   7.775  0.3082 -0.1300 -0.2591
   22MOL   H70415866   3.622   1.586   7.500 -0.4362  0.6966 -0.8270
   22MOL   H70515867   3.556   1.820   7.589 -0.3224  0.7455  0.9856
   22MOL   H70615868   3.809   1.950   0.010 -0.0374  0.4036 -0.3561
   22MOL   H70715869   3.816   2.173   0.037  0.5318 -1.7212 -1.8830
   22MOL   H70815870   3.667   2.197   7.841 -0.0939 -1.6410 -1.0763
   22MOL   H70915871   3.539   2.129   0.146 -0.4902  0.3625 -1.4585
   22MOL   H71015872   3.645   2.265   0.202 -0.9115  0.4210 -1.6430
   22MOL   H71115873   3.725   1.978   0.254 -0.8433 -0.4813  3.5500
   22MOL   H71215874   3.823   2.121   0.284 -0.6878  1.3850  1.9074
   22MOL   H71315875   3.553   2.074   0.415 -0.9064  0.1252  3.9821
   22MOL   H71415876   3.667   2.214   0.442  2.2608  1.6731 -6.1714
   22MOL   H71515877   3.708   1.923   0.521 -1.4316  0.4543  0.9228
   22MOL   H71615878   3.680   2.049   0.624  2.2004 -2.0293  1.3016
   22MOL   H71715879   3.925   2.015   0.468  1.4249  0.9630 -1.0581
   22MOL   H71815880   3.901   2.176   0.528  1.4827  0.1344 -0.1709
   22MOL   H71915881   3.878   2.090   0.740  0.8366 -0.6954  0.9891
   22MOL   H72015882   3.822   1.757   0.033  2.2313  0.3847 -0.1797
   22MOL   H72115883   3.881   1.532   7.832  2.3797  1.3725 -0.8127
   22MOL   H72215884   4.014   2.057   0.659  0.2558  1.0774  2.6159
   23MOL     C115885   2.336   0.587   0.243  0.7925 -0.1931  0.0442
   23MOL     O215886   2.416   0.675   0.212  0.3742  0.5682 -0.6159
   23MOL     C315887   2.364   0.457   0.315 -0.7902 -0.1114 -0.6580
   23MOL     C415888   2.275   0.347   0.291  0.0435  0.3314  0.2628
   23MOL     C515889   2.305   0.233   0.362  0.2225 -0.0200 -0.0205
   23MOL     C615890   2.406   0.217   0.454 -0.0317  0.0940 -1.0966
   23MOL     C715891   2.427   0.085   0.524  0.1516 -0.0742 -0.4107
   23MOL     O815892   2.510   0.012   0.479  0.1997  0.3212  0.2789
   23MOL     N915893   2.349   0.058   0.626 -0.3941 -0.5470  0.5681
   23MOL    C1015894   2.356   7.832   0.720  0.3792  0.1212  0.0609
   23MOL    C1115895   2.287   7.704   0.680  0.2188 -0.5521 -0.2036
   23MOL    C1215896   2.290   7.597   0.790 -0.1385  0.3711  0.1752
   23MOL    C1315897   2.211   7.471   0.748 -0.2771  0.6152 -0.3139
   23MOL    C1415898   2.219   7.358   0.850 -0.5273 -0.1859 -0.3084
   23MOL    C1515899   2.135   7.239   0.814  0.8159  0.4999 -0.7740
   23MOL    N1615900   2.135   7.211   0.673 -0.1584 -0.0048  0.4388
   23MOL    C1715901   2.497   0.325   0.475  1.2961 -0.4836 -0.3529
   23MOL    C1815902   2.468   0.447   0.414  0.1997  0.0651  0.4878
   23MOL    H1915903   2.193   0.341   0.220  0.3182 -0.8751  0.0382
   23MOL    H2015904   2.244   0.149   0.333  1.3902 -0.8986  0.0711
   23MOL    H2115905   2.282   0.130   0.649 -1.8016 -1.5086 -0.4094
   23MOL    H2215906   2.455   7.809   0.760  0.6576 -0.2643 -0.8362
   23MOL    H2315907   2.309   7.873   0.809 -0.2311 -1.5615  0.5254
   23MOL    H2415908   2.337   7.673   0.588 -1.0197 -0.1492 -1.0344
   23MOL    H2515909   2.183   7.728   0.656 -0.6145 -1.3909  2.3583
   23MOL    H2615910   2.394   7.571   0.811 -0.1799  0.2127  0.1910
   23MOL    H2715911   2.252   7.636   0.885 -0.0390  1.5244 -0.2540
   23MOL    H2815912   2.246   7.437   0.651  3.6003 -1.5128  1.7261
   23MOL    H2915913   2.105   7.493   0.733 -0.5635 -0.4622  0.1311
   23MOL    H3015914   2.189   7.388   0.950 -0.0263 -2.8337  0.6615
   23MOL    H3115915   2.321   7.323   0.859 -0.1871  0.2966 -2.0077
   23MOL    H3215916   2.164   7.155   0.876  2.5052  0.1543 -2.0044
   23MOL    H3315917   2.033   7.263   0.845  0.7913  1.0236 -1.2559
   23MOL    H3415918   2.065   7.262   0.621 -0.2169 -0.0992  0.4261
   23MOL    H3515919   2.579   0.305   0.542 -0.8133 -0.6312  2.2786
   23MOL    H3615920   2.542   0.524   0.432  2.2552 -1.6213 -0.5525
   23MOL    H3715921   2.228   0.599   0.233  0.2797  0.8130  5.6694
   23MOL    C3815922   2.231   7.142   0.610  1.0337 -0.5787 -0.2657
   23MOL    O3915923   2.307   7.069   0.668 -0.0995  0.4505 -0.7739
   23MOL    C4015924   2.236   7.178   0.464 -0.3189 -0.1500 -0.3386
   23MOL    C4115925   2.125   7.228   0.396  0.4384 -1.1458 -0.1574
   23MOL    C4215926   2.137   7.282   0.264 -0.4866  0.0223  0.0786
   23MOL    C4315927   2.258   7.263   0.194 -0.3412 -0.0629 -0.1358
   23MOL    C4415928   2.272   7.319   0.052 -0.7447 -0.4138 -0.2296
   23MOL    O4515929   2.354   7.274   7.860  0.0033  0.1177  0.3549
   23MOL    N4615930   2.209   7.439   0.030 -0.1199  0.4016 -0.3069
   23MOL    C4715931   2.229   7.525   7.803 -0.6294 -1.0221 -0.0974
   23MOL    C4815932   2.170   7.676   7.820  0.2917 -0.2468 -0.3001
   23MOL    C4915933   2.026   7.674   7.832  1.0801  0.1272  0.0006
   23MOL    C5015934   1.978   7.819   7.857 -0.5694 -0.6759  0.1372
   23MOL    C5115935   1.828   7.820   7.883 -0.0105 -0.7725 -0.7907
   23MOL    C5215936   1.741   7.798   7.750  0.0763  0.2387 -0.2650
   23MOL    N5315937   1.789   7.868   7.629  0.2708  0.2822 -0.4689
   23MOL    C5415938   2.360   7.193   0.263 -0.2159  0.5879  0.2826
   23MOL    C5515939   2.354   7.149   0.391  0.3757  0.9497 -0.1498
   23MOL    H5615940   2.034   7.246   0.452  1.1926 -0.6374  0.9177
   23MOL    H5715941   2.049   7.334   0.229 -0.5850 -0.7016 -0.7720
   23MOL    H5815942   2.151   7.475   0.104 -0.1848  2.3069 -1.2329
   23MOL    H5915943   2.332   7.551   7.779 -0.9651 -1.3319 -2.0049
   23MOL    H6015944   2.177   7.488   7.714 -1.7340 -0.1712  0.1758
   23MOL    H6115945   2.201   7.727   7.730  2.2860 -1.9035 -0.5840
   23MOL    H6215946   2.223   7.729   0.014  1.5773 -2.1514  0.1544
   23MOL    H6315947   1.977   7.628   7.747 -0.4217  0.0117  0.9143
   23MOL    H6415948   2.001   7.611   0.031  2.2374 -0.9783 -0.4683
   23MOL    H6515949   2.008   7.881   7.772 -1.5896  1.0447  1.0129
   23MOL    H6615950   2.025   7.850   0.064 -1.2808  0.1799  0.2173
   23MOL    H6715951   1.814   0.034   0.038  0.3414 -1.7411  1.7805
   23MOL    H6815952   1.803   7.761   0.085  2.1356 -0.1904  0.2289
   23MOL    H6915953   1.726   7.693   7.729  2.0322  0.1229 -1.1988
   23MOL    H7015954   1.642   7.839   7.769  0.3047  0.1664  1.2030
   23MOL    H7115955   1.849   7.812   7.570  0.4909 -0.2662  0.2735
   23MOL    H7215956   2.450   7.174   0.207  0.0344  0.4530  0.7277
   23MOL    H7315957   2.439   7.097   0.432 -0.5882 -0.1597  0.4656
   23MOL    C7415958   1.768   0.108   7.586 -0.1145  0.0135 -0.0263
   23MOL    O7515959   1.721   0.190   7.662  0.1581 -0.6480  0.2573
   23MOL    C7615960   1.815   0.144   7.449  0.6211 -0.6184 -0.1276
   23MOL    C7715961   1.851   0.279   7.426 -0.0564  0.1451  0.5382
   23MOL    C7815962   1.882   0.320   7.296  0.7050  0.0590  0.1358
   23MOL    C7915963   1.867   0.231   7.185 -0.9397 -0.6010 -0.2450
   23MOL    C8015964   1.877   0.280   7.043  0.6231  0.0858 -0.0484
   23MOL    O8115965   1.863   0.400   7.013 -0.3287 -0.1996  0.0893
   23MOL    N8215966   1.914   0.191   6.953 -0.1637  0.1212 -0.1468
   23MOL    C8315967   1.952   0.223   6.816 -0.0502  0.1784 -0.2838
   23MOL    C8415968   2.104   0.224   6.805  0.1095  0.2488  0.0205
   23MOL    C8515969   2.159   0.087   6.818 -0.5105  0.0465  0.1693
   23MOL    C8615970   2.304   0.091   6.870  0.3210 -0.0238  0.1914
   23MOL    C8715971   2.356   7.838   6.904 -0.0190  1.0026 -0.1833
   23MOL    C8815972   2.489   7.844   6.972 -0.9818 -0.1746 -0.1391
   23MOL    N8915973   2.542   7.710   7.012 -0.2290 -0.2319  0.0729
   23MOL    C9015974   1.832   0.100   7.211  0.8761 -0.1919  0.1700
   23MOL    C9115975   1.805   0.053   7.342  0.4509  0.8175 -0.2775
   23MOL    H9215976   1.846   0.350   7.507 -0.9937 -1.0813  1.5790
   23MOL    H9315977   1.912   0.421   7.274 -0.0043  0.4067  0.7231
   23MOL    H9415978   1.917   0.093   6.976  1.5161 -0.2138 -1.6964
   23MOL    H9515979   1.905   0.154   6.746 -2.2962 -0.7002  2.0216
   23MOL    H9615980   1.909   0.320   6.789 -1.8627  0.6724  3.9957
   23MOL    H9715981   2.138   0.289   6.887  0.7098 -0.5538  0.4118
   23MOL    H9815982   2.131   0.273   6.712 -1.4754  1.3316  0.1104
   23MOL    H9915983   2.103   0.028   6.891 -1.2928  0.8218  0.2050
   23MOL   H10015984   2.148   0.026   6.728 -1.6683  0.6402 -0.0947
   23MOL   H10115985   2.304   0.161   6.954  1.8326 -1.0181  1.0606
   23MOL   H10215986   2.375   0.135   6.800  0.5267  0.1686  0.5219
   23MOL   H10315987   2.347   7.769   6.820  2.3414  0.5271 -0.0802
   23MOL   H10415988   2.291   7.796   6.980  0.7412 -1.0772 -0.6414
   23MOL   H10515989   2.567   7.881   6.905 -1.1292 -1.1031 -0.8339
   23MOL   H10615990   2.471   0.021   7.058 -0.9731 -0.0825 -0.2049
   23MOL   H10715991   2.592   7.660   6.940  0.6939  0.8995 -0.0913
   23MOL   H10815992   1.820   0.032   7.129  1.1751 -1.5473  1.2202
   23MOL   H10915993   1.770   7.839   7.360  2.9354 -0.1935 -0.8116
   23MOL   C11015994   2.560   7.663   7.136 -0.4415 -0.1302  0.4015
   23MOL   O11115995   2.515   7.731   7.230 -0.1219  0.0843 -0.4366
   23MOL   C11215996   2.638   7.537   7.154  0.3944 -0.2526 -0.6144
   23MOL   C11315997   2.683   7.454   7.051  0.2075  0.6059 -0.1528
   23MOL   C11415998   2.748   7.330   7.079  0.1014 -0.4336 -0.1554
   23MOL   C11515999   2.767   7.285   7.212 -0.3961  0.0902  0.8723
   23MOL   C11616000   2.816   7.144   7.240 -0.5076  0.0114 -0.2623
   23MOL   O11716001   2.875   7.072   7.156 -0.4816  0.0545  0.2499
   23MOL   N11816002   2.786   7.096   7.359  0.2274  0.3130 -0.5905
   23MOL   C11916003   2.825   6.968   7.414 -0.1173  0.3400 -0.4601
   23MOL   C12016004   2.714   6.866   7.388  0.6795 -0.6955  0.3952
   23MOL   C12116005   2.723   6.730   7.470 -0.0246  0.1888 -0.3566
   23MOL   C12216006   2.597   6.654   7.455 -0.0576 -0.6957 -0.5124
   23MOL   C12316007   2.592   6.518   7.531 -0.0479  0.9972 -0.2659
   23MOL   C12416008   2.459   6.438   7.503 -0.3136 -0.0012 -0.2258
   23MOL   N12516009   2.447   6.400   7.364  0.6178 -0.2425 -0.2719
   23MOL   C12616010   2.744   7.374   7.315 -0.1858  0.1470  0.6343
   23MOL   C12716011   2.684   7.501   7.283  0.3046  0.0704 -0.3636
   23MOL   H12816012   2.649   7.469   6.950 -0.0656  0.6236 -0.0599
   23MOL   H12916013   2.778   7.261   7.002  0.8956 -2.0030  1.5355
   23MOL   H13016014   2.723   7.147   7.420  0.3152 -1.3236  0.9036
   23MOL   H13116015   2.923   6.944   7.372  0.1683 -0.5541  0.6811
   23MOL   H13216016   2.837   6.971   7.522 -0.2620  2.6436 -0.4912
   23MOL   H13316017   2.702   6.842   7.282  0.7057 -1.4084  0.5509
   23MOL   H13416018   2.621   6.916   7.414  1.9416  3.2053 -2.2092
   23MOL   H13516019   2.799   6.664   7.428 -0.2974 -0.3049 -0.0776
   23MOL   H13616020   2.766   6.736   7.570  2.3068  1.5534 -1.3940
   23MOL   H13716021   2.583   6.629   7.350  2.0938 -1.7640 -0.5730
   23MOL   H13816022   2.516   6.720   7.484 -0.1891 -0.7977 -0.6437
   23MOL   H13916023   2.601   6.529   7.639 -1.4585  0.0964 -0.0473
   23MOL   H14016024   2.673   6.452   7.499 -1.1615  0.2687 -1.6177
   23MOL   H14116025   2.465   6.350   7.567 -0.5448 -0.0080 -0.2120
   23MOL   H14216026   2.382   6.502   7.545 -1.3543 -0.5690 -1.2496
   23MOL   H14316027   2.495   6.454   7.293  0.9231 -2.4409 -1.8085
   23MOL   H14416028   2.756   7.339   7.417  0.5961 -1.8170 -0.1155
   23MOL   H14516029   2.669   7.565   7.369  0.7316  1.0146 -0.9873
   23MOL   C14616030   2.405   6.279   7.334  0.7771 -0.2193 -0.0593
   23MOL   O14716031   2.330   6.213   7.404 -0.3641  0.2339  0.2451
   23MOL   C14816032   2.432   6.238   7.195  0.3514 -0.0238  0.4895
   23MOL   C14916033   2.400   6.328   7.091 -0.2902  0.7488  0.5709
   23MOL   C15016034   2.431   6.291   6.961  0.2130  0.3346  0.3266
   23MOL   C15116035   2.495   6.171   6.933  0.7969  0.5875 -0.7108
   23MOL   C15216036   2.533   6.134   6.790  0.1356  1.0396  0.1011
   23MOL   O15316037   2.568   6.017   6.761  0.1626 -1.0674  0.0264
   23MOL   N15416038   2.527   6.233   6.707 -0.5160  0.2720 -0.2716
   23MOL   C15516039   2.565   6.235   6.571  0.3634  1.0610  0.0410
   23MOL   C15616040   2.579   6.373   6.517  0.2173  0.3724 -0.0858
   23MOL   C15716041   2.625   6.385   6.375  0.6993  0.2360 -0.8245
   23MOL   C15816042   2.655   6.529   6.337  1.5275  0.4293 -0.3486
   23MOL   C15916043   2.704   6.531   6.186  0.5371 -0.6331 -0.3017
   23MOL   C16016044   2.697   6.671   6.128 -0.3174  0.0189  0.2465
   23MOL   N16116045   2.756   6.669   5.994  0.5399 -0.0328  0.3092
   23MOL   C16216046   2.519   6.077   7.036  0.5950  0.2681 -1.0380
   23MOL   C16316047   2.499   6.112   7.167 -0.1871  0.2454 -0.0578
   23MOL   H16416048   2.355   6.425   7.109  1.6005  1.8627 -0.4684
   23MOL   H16516049   2.409   6.366   6.886  1.2293  0.0732 -0.2462
   23MOL   H16616050   2.506   6.323   6.748  0.9627 -0.0576  1.2469
   23MOL   H16716051   2.662   6.186   6.575  0.9333  2.1520 -0.2860
   23MOL   H16816052   2.505   6.163   6.515  1.3730  0.7875 -0.7115
   23MOL   H16916053   2.651   6.427   6.577 -0.9060  1.7918  0.0064
   23MOL   H17016054   2.492   6.436   6.536  0.2395  0.2466  0.4276
   23MOL   H17116055   2.726   6.346   6.389  0.0828 -1.5464 -1.1481
   23MOL   H17216056   2.575   6.317   6.306  0.5004 -0.7188  0.2411
   23MOL   H17316057   2.740   6.566   6.394  1.2273  0.7314 -0.0948
   23MOL   H17416058   2.565   6.588   6.351  0.5892 -1.0422 -0.0654
   23MOL   H17516059   2.649   6.458   6.127 -0.1675  0.5346 -1.0962
   23MOL   H17616060   2.806   6.493   6.181  1.3256  0.8371  2.8175
   23MOL   H17716061   2.590   6.691   6.122  0.0503  1.3221 -2.8204
   23MOL   H17816062   2.746   6.744   6.191  1.1214 -0.1322 -0.6788
   23MOL   H17916063   2.828   6.735   5.967  0.4898 -0.6738 -1.4521
   23MOL   H18016064   2.570   5.985   7.014  0.3686 -0.7093  2.3209
   23MOL   H18116065   2.536   6.054   7.250  1.9403  2.0020  0.2791
   23MOL   C18216066   2.691   6.627   5.885  0.0811  0.1148  0.9331
   23MOL   O18316067   2.588   6.565   5.889  0.1608 -0.5550  0.4487
   23MOL   C18416068   2.751   6.643   5.752  0.4131  0.0443  0.0755
   23MOL   C18516069   2.794   6.769   5.711  0.2466  0.7771 -0.0809
   23MOL   C18616070   2.844   6.792   5.581 -0.0736  0.1529 -0.5801
   23MOL   C18716071   2.859   6.686   5.494  0.7782 -0.4517  0.5408
   23MOL   C18816072   2.911   6.710   5.354  0.7449 -0.4473 -0.3381
   23MOL   O18916073   2.999   6.632   5.312 -0.1145 -0.5630  0.2501
   23MOL   N19016074   2.850   6.802   5.276  0.1408  0.6000 -0.3641
   23MOL   C19116075   2.890   6.843   5.141 -0.0577  0.8644  0.0705
   23MOL   C19216076   2.835   6.982   5.098  0.2361  0.2986 -0.4654
   23MOL   C19316077   2.897   7.034   4.962  0.7061  0.4519  0.6565
   23MOL   C19416078   2.839   7.168   4.908 -0.1224  0.6717  0.1972
   23MOL   C19516079   2.732   7.163   4.794 -0.6208  0.8671 -0.3712
   23MOL   C19616080   2.700   7.304   4.741 -0.0158 -0.1719 -0.1191
   23MOL   N19716081   2.579   7.311   4.670 -0.1186  0.6435  0.0625
   23MOL   C19816082   2.819   6.557   5.527  0.6135  0.0061 -0.1642
   23MOL   C19916083   2.764   6.539   5.653 -1.1239 -0.3764 -0.7718
   23MOL   H20016084   2.787   6.851   5.781  0.1002  0.8912 -0.2278
   23MOL   H20116085   2.874   6.892   5.556  2.1452  0.2322  2.1394
   23MOL   H20216086   2.768   6.847   5.314 -0.4967 -0.9697  0.1554
   23MOL   H20316087   2.999   6.850   5.145  0.0990 -2.1334  2.5857
   23MOL   H20416088   2.868   6.770   5.063 -0.5162  1.6295 -0.5236
   23MOL   H20516089   2.856   7.057   5.174  0.1898  0.0596 -0.2179
   23MOL   H20616090   2.727   6.972   5.087  0.0510  1.0142  0.6667
   23MOL   H20716091   3.003   7.043   4.988  0.8703 -0.7507  0.4506
   23MOL   H20816092   2.896   6.954   4.887  0.3964  0.7645  0.3247
   23MOL   H20916093   2.930   7.211   4.866  1.2284 -0.3925  2.0040
   23MOL   H21016094   2.809   7.229   4.993 -1.1067 -0.4894  0.6803
   23MOL   H21116095   2.644   7.105   4.822 -1.5195  2.1544 -0.4755
   23MOL   H21216096   2.767   7.098   4.714  0.9914 -0.7383  1.5726
   23MOL   H21316097   2.697   7.379   4.821 -0.8385  2.1401 -2.2556
   23MOL   H21416098   2.780   7.330   4.671 -1.0038  0.1622 -1.1338
   23MOL   H21516099   2.586   7.330   4.571  1.4884 -0.2684 -0.0234
   23MOL   H21616100   2.835   6.484   5.449 -1.3222  1.8622 -2.3613
   23MOL   H21716101   2.744   6.440   5.690 -0.8609  0.1737  0.8661
   23MOL   C21816102   2.454   7.302   4.719  0.3490 -0.2085  0.3171
   23MOL   O21916103   2.427   7.272   4.836  0.2451  0.4002 -0.4347
   23MOL   C22016104   2.345   7.320   4.625 -0.2741 -0.2347 -0.3152
   23MOL   C22116105   2.236   7.224   4.619 -0.4472  0.4123 -0.4655
   23MOL   C22216106   2.135   7.245   4.525 -0.4690  0.3792 -0.0485
   23MOL   C22316107   2.135   7.355   4.430 -0.9193  0.2808  0.2872
   23MOL   C22416108   2.020   7.384   4.334 -0.0087  0.0760  0.1053
   23MOL   O22516109   2.017   7.487   4.264 -0.4420  0.5341  0.2728
   23MOL   N22616110   1.918   7.300   4.340  0.2940 -0.2830  0.0411
   23MOL   C22716111   1.791   7.318   4.270  0.0842 -0.3297 -0.1435
   23MOL   C22816112   1.737   7.204   4.185 -0.3991 -0.2537  0.7721
   23MOL   C22916113   1.800   7.198   4.044 -0.2829  0.0389 -0.6745
   23MOL   C23016114   1.741   7.094   3.950  0.4102 -0.0560 -0.6494
   23MOL   C23116115   1.791   7.124   3.809 -0.1015  0.4102  0.2212
   23MOL   C23216116   1.746   7.022   3.696  0.8713 -0.3970  0.1630
   23MOL   N23316117   1.601   7.029   3.670 -0.4975 -0.0228  0.4025
   23MOL   C23416118   2.255   7.435   4.430 -0.1820  0.5879  0.0051
   23MOL   C23516119   2.350   7.423   4.532  0.9998 -0.1773  0.0546
   23MOL   H23616120   2.216   7.147   4.691  0.5987 -0.6379 -1.2626
   23MOL   H23716121   2.050   7.177   4.523  1.4011 -2.0270 -0.2514
   23MOL   H23816122   1.932   7.224   4.406 -1.6451  0.0882  0.9444
   23MOL   H23916123   1.721   7.340   4.351  2.7095 -0.7659  2.2990
   23MOL   H24016124   1.792   7.407   4.207 -1.7839 -0.4587 -0.3862
   23MOL   H24116125   1.628   7.203   4.187 -0.3912 -0.8497  1.0144
   23MOL   H24216126   1.770   7.116   4.240  0.4373 -1.4517 -1.5912
   23MOL   H24316127   1.782   7.294   3.996 -2.1130 -0.0842 -0.2782
   23MOL   H24416128   1.908   7.187   4.048 -0.3774 -0.3573  2.3672
   23MOL   H24516129   1.633   7.087   3.952  0.5583 -2.9607 -0.5493
   23MOL   H24616130   1.781   6.996   3.975  0.4557  0.0540 -0.2820
   23MOL   H24716131   1.900   7.134   3.810  0.0053 -0.6280  0.5078
   23MOL   H24816132   1.758   7.220   3.770 -0.6856 -0.5910 -1.8431
   23MOL   H24916133   1.810   7.032   3.609  1.3593  0.6154  0.6219
   23MOL   H25016134   1.767   6.922   3.732  0.9611  0.1068  1.5504
   23MOL   H25116135   1.550   7.115   3.686 -1.3488 -0.6352  1.0001
   23MOL   H25216136   2.253   7.521   4.365 -2.4883  0.4687 -0.1490
   23MOL   H25316137   2.441   7.480   4.517  1.0254 -0.5620 -1.3064
   23MOL   C25416138   1.530   6.921   3.638 -0.9465  0.7230 -0.4567
   23MOL   O25516139   1.582   6.812   3.617  0.4486 -0.1879  0.6970
   23MOL   C25616140   1.382   6.944   3.615 -0.5008 -0.8699  0.3091
   23MOL   C25716141   1.294   6.840   3.632  0.0223 -0.1130 -0.2329
   23MOL   C25816142   1.161   6.862   3.605 -0.0251  0.2140  0.0683
   23MOL   C25916143   1.113   6.978   3.543  0.1631 -0.5307 -0.4397
   23MOL   C26016144   0.971   6.995   3.490 -0.2865  0.8914  0.8071
   23MOL   O26116145   0.921   7.107   3.486  0.3471 -0.4286 -0.4870
   23MOL   N26216146   0.920   6.892   3.429 -1.2635 -0.6478 -0.0624
   23MOL   C26316147   0.796   6.886   3.355 -0.3573  0.3467 -0.0820
   23MOL   C26416148   0.807   6.915   3.205  0.0148 -0.8722  0.4910
   23MOL   C26516149   0.928   6.842   3.144  0.0349  0.5009  0.2808
   23MOL   C26616150   0.903   6.805   2.998 -0.3350  0.3204  0.2847
   23MOL   C26716151   0.919   6.918   2.902  0.7135 -0.5208  0.5093
   23MOL   C26816152   0.791   6.968   2.830 -0.3532 -0.0136 -0.9033
   23MOL   N26916153   0.826   7.058   2.718  1.0983 -0.0978 -0.0513
   23MOL   C27016154   1.211   7.082   3.519  0.0553  0.6962 -0.1721
   23MOL   C27116155   1.342   7.068   3.560 -0.7932  0.1032 -1.0917
   23MOL   H27216156   1.331   6.751   3.681 -2.0676 -0.6893  0.3729
   23MOL   H27316157   1.090   6.788   3.637 -0.6442  1.4229  1.5869
   23MOL   H27416158   0.991   6.821   3.418  0.1636  0.8110 -0.5411
   23MOL   H27516159   0.756   6.785   3.362  2.9995 -1.4272 -4.3928
   23MOL   H27616160   0.714   6.947   3.393 -2.5416 -1.6505 -1.4594
   23MOL   H27716161   0.807   7.024   3.192 -2.2103 -0.9546 -0.3460
   23MOL   H27816162   0.724   6.871   3.151  0.7338 -0.3751 -1.0545
   23MOL   H27916163   1.025   6.891   3.154 -0.8665  2.8233 -2.0471
   23MOL   H28016164   0.950   6.753   3.204 -2.7733 -0.4209 -0.0059
   23MOL   H28116165   0.815   6.745   2.977  1.3899 -2.4977  0.8463
   23MOL   H28216166   0.978   6.727   2.986  2.3888  2.7312  0.9093
   23MOL   H28316167   0.983   6.870   2.828  1.6217 -0.2503  1.1201
   23MOL   H28416168   0.974   7.001   2.946  2.5894 -2.1662  1.3491
   23MOL   H28516169   0.736   6.888   2.781 -0.3026 -0.2906 -0.5123
   23MOL   H28616170   0.714   7.015   2.891  1.1976 -0.2601  1.3049
   23MOL   H28716171   0.811   7.158   2.722 -0.7990 -0.2299 -2.6434
   23MOL   H28816172   1.180   7.174   3.473 -0.6055  0.3429 -0.4466
   23MOL   H28916173   1.407   7.152   3.539 -0.0041  0.1401  1.2622
   23MOL   C29016174   0.873   7.020   2.602 -0.2450 -0.1152 -0.2554
   23MOL   O29116175   0.892   6.901   2.557  0.5653 -0.0358  0.6506
   23MOL   C29216176   0.917   7.139   2.519 -0.4396  0.6619  0.3748
   23MOL   C29316177   0.895   7.137   2.376 -0.1687 -0.2898  0.1276
   23MOL   C29416178   0.938   7.243   2.303  0.1203 -0.3362 -0.1910
   23MOL   C29516179   1.010   7.352   2.362  0.2848  0.1772 -0.0335
   23MOL   C29616180   1.055   7.472   2.281  0.1904  0.8805  0.2022
   23MOL   O29716181   1.043   7.466   2.156  0.1133  0.4653  0.3600
   23MOL   N29816182   1.108   7.582   2.340  0.1359 -0.5500 -0.6860
   23MOL   C29916183   1.177   7.690   2.271  0.1306 -0.0446 -0.1344
   23MOL   C30016184   1.257   7.787   2.354 -0.6389  0.3044  0.9330
   23MOL   C30116185   1.330   0.005   2.279  0.0552  0.6944 -0.0791
   23MOL   C30216186   1.392   0.110   2.361  1.0130 -0.5424 -0.0297
   23MOL   C30316187   1.286   0.195   2.432  0.4041 -0.3080 -0.4000
   23MOL   C30416188   1.338   0.330   2.484 -0.4075  0.4565  0.7434
   23MOL   N30516189   1.321   0.432   2.389 -0.1602  0.0230 -0.0190
   23MOL   C30616190   1.034   7.355   2.500 -0.6864 -0.2196  0.3763
   23MOL   C30716191   0.988   7.242   2.581 -0.1379  0.0808 -0.3687
   23MOL   H30816192   0.831   7.062   2.331  0.7716  1.0371 -3.5626
   23MOL   H30916193   0.914   7.266   2.200  0.8238  1.0880 -0.0563
   23MOL   H31016194   1.111   7.592   2.441  3.9737 -1.3213 -0.6580
   23MOL   H31116195   1.239   7.644   2.194  1.5335 -1.7170  1.9406
   23MOL   H31216196   1.106   7.747   2.211  1.1981  0.5321 -0.8622
   23MOL   H31316197   1.332   7.736   2.414 -0.1040  2.7084  2.3883
   23MOL   H31416198   1.187   7.818   2.432 -2.5071 -0.8500 -0.2529
   23MOL   H31516199   1.406   7.843   2.218 -2.4486 -1.1725 -1.8186
   23MOL   H31616200   1.263   0.050   2.206 -1.5762  0.3537  1.1788
   23MOL   H31716201   1.456   0.169   2.295  2.1744 -2.2028 -0.4144
   23MOL   H31816202   1.456   0.068   2.438  2.4722 -0.2876 -1.0897
   23MOL   H31916203   1.252   0.126   2.509  1.6466 -0.7687 -0.2506
   23MOL   H32016204   1.202   0.206   2.364  0.2827 -2.0648 -0.5490
   23MOL   H32116205   1.296   0.362   2.579 -1.4117 -0.1804  0.5291
   23MOL   H32216206   1.443   0.325   2.512  0.5041 -0.2375 -2.6158
   23MOL   H32316207   1.262   0.409   2.310 -0.0896 -1.7131  0.4214
   23MOL   H32416208   1.091   7.429   2.553  1.6632 -1.9696  0.3990
   23MOL   H32516209   1.018   7.241   2.684  0.9066  0.0979 -0.6587
   23MOL   C32616210   1.370   0.554   2.397  0.0342  0.0600 -0.4187
   23MOL   O32716211   1.425   0.597   2.493 -0.2987  0.2645 -0.4083
   23MOL   C32816212   1.346   0.642   2.277  0.8356  0.0702  0.6096
   23MOL   C32916213   1.347   0.781   2.294  0.8271 -0.1889  0.0398
   23MOL   C33016214   1.330   0.867   2.177 -0.1518  0.2612  0.2908
   23MOL   C33116215   1.318   0.807   2.045  0.5632  0.0890 -0.0934
   23MOL   C33216216   1.301   0.890   1.924 -0.3200 -0.5511  0.1981
   23MOL   O33316217   1.365   0.995   1.914  0.0218 -0.5526 -0.2259
   23MOL   N33416218   1.207   0.855   1.834  0.3730 -0.4570  0.0732
   23MOL   C33516219   1.165   0.952   1.733  0.2649  1.2390  0.2420
   23MOL   C33616220   1.086   1.075   1.786 -1.2394  0.1141 -0.3665
   23MOL   C33716221   1.174   1.198   1.783 -0.2400  0.0054 -0.8577
   23MOL   C33816222   1.142   1.306   1.883  0.3397 -0.5347  0.0009
   23MOL   C33916223   1.246   1.424   1.876 -0.0335 -0.9649  0.6155
   23MOL   C34016224   1.391   1.393   1.906 -0.5689  0.5585 -0.1706
   23MOL   N34116225   1.413   1.300   2.022 -0.3981  0.5402 -0.1565
   23MOL   C34216226   1.321   0.667   2.033  0.0942 -0.7455 -0.6501
   23MOL   C34316227   1.325   0.587   2.148 -0.4276  0.1887 -0.6833
   23MOL   H34416228   1.352   0.819   2.394  1.3463  0.7668 -0.3443
   23MOL   H34516229   1.328   0.974   2.183 -1.5492  0.2247  0.7082
   23MOL   H34616230   1.153   0.770   1.845  0.3809 -0.4926 -0.1720
   23MOL   H34716231   1.249   0.968   1.665 -0.2281 -1.5247 -1.0746
   23MOL   H34816232   1.107   0.895   1.661  2.4695 -0.5623 -0.1460
   23MOL   H34916233   1.038   1.055   1.881  0.8677  0.1008  0.7260
   23MOL   H35016234   1.004   1.090   1.716 -1.8574 -1.0009  0.1093
   23MOL   H35116235   1.281   1.181   1.795 -0.8648 -0.9280  5.1489
   23MOL   H35216236   1.172   1.232   1.680 -0.4621 -0.6547 -1.0739
   23MOL   H35316237   1.125   1.262   1.981 -0.0051 -0.6409 -0.1078
   23MOL   H35416238   1.043   1.347   1.865 -0.0924 -1.2955  0.5965
   23MOL   H35516239   1.212   1.503   1.943  1.4294 -0.8012  1.1654
   23MOL   H35616240   1.228   1.462   1.775 -2.1290 -0.2226  1.2485
   23MOL   H35716241   1.436   1.339   1.822  1.3148  1.1101  0.4472
   23MOL   H35816242   1.454   1.480   1.921  0.4515 -0.2663  0.4667
   23MOL   H35916243   1.421   1.201   2.005 -1.0393 -0.3298  3.8897
   23MOL   H36016244   1.299   0.629   1.934 -0.6791 -0.9887 -0.3864
   23MOL   H36116245   1.334   0.482   2.124 -1.0238 -0.1054  0.3675
   23MOL   C36216246   1.409   1.347   2.148 -0.2698 -0.9116 -0.6975
   23MOL   O36316247   1.388   1.469   2.166 -0.0069  0.0818 -0.8157
   23MOL   C36416248   1.459   1.255   2.259 -0.4987 -0.0165  0.0867
   23MOL   C36516249   1.544   1.142   2.225  0.5660 -0.7742  0.0587
   23MOL   C36616250   1.592   1.052   2.326  0.0807 -0.1818  1.0428
   23MOL   C36716251   1.541   1.065   2.459 -0.5186 -0.6884 -0.0531
   23MOL   C36816252   1.582   0.966   2.561  0.2182 -0.1324 -0.1504
   23MOL   O36916253   1.569   0.978   2.682  0.0937 -0.3016  0.3025
   23MOL   N37016254   1.639   0.853   2.511 -0.0142  0.0145 -0.1530
   23MOL   C37116255   1.673   0.731   2.585  0.0280 -0.1771  0.2487
   23MOL   C37216256   1.814   0.744   2.646  0.1121 -0.4376  0.1945
   23MOL   C37316257   1.901   0.615   2.658  0.3308  0.4281  0.2886
   23MOL   C37416258   1.865   0.518   2.770  0.9105  0.6011 -0.0073
   23MOL   C37516259   1.758   0.412   2.740 -0.5045  0.6722 -0.2175
   23MOL   C37616260   1.749   0.329   2.875  0.6361 -0.1436  0.8440
   23MOL   N37716261   1.658   0.221   2.855  0.1512 -0.3805 -0.5995
   23MOL   C37816262   1.456   1.174   2.491 -0.0534 -0.4583  0.1860
   23MOL   C37916263   1.423   1.270   2.392 -0.1679 -0.7344  0.1825
   23MOL   H38016264   1.588   1.138   2.126  0.5535  1.0733 -0.0411
   23MOL   H38116265   1.671   0.982   2.303  1.0632  1.1954  0.0966
   23MOL   H38216266   1.644   0.841   2.411 -0.6102 -2.9932  0.1155
   23MOL   H38316267   1.591   0.704   2.651 -0.4638 -2.9191 -1.4525
   23MOL   H38416268   1.674   0.660   2.503  1.7727  0.0841  0.0074
   23MOL   H38516269   1.828   0.809   2.732  0.1270 -0.9741  0.6006
   23MOL   H38616270   1.857   0.805   2.567 -1.2383 -0.1380 -0.3269
   23MOL   H38716271   1.924   0.571   2.561 -0.0668  0.6771  0.0785
   23MOL   H38816272   2.002   0.648   2.684 -0.1391  1.1437  1.2543
   23MOL   H38916273   1.850   0.574   2.863  0.0126  1.6630 -0.7706
   23MOL   H39016274   1.955   0.461   2.789  1.1418  0.7190 -0.7569
   23MOL   H39116275   1.793   0.341   2.665  0.1125 -0.2355  0.9321
   23MOL   H39216276   1.657   0.446   2.715 -1.7004 -2.8390 -0.3487
   23MOL   H39316277   1.844   0.280   2.900  0.0992 -2.5790 -1.6002
   23MOL   H39416278   1.705   0.379   2.960 -0.8078 -1.4218  0.8555
   23MOL   H39516279   1.585   0.247   2.790 -0.3478 -0.2003  0.0334
   23MOL   H39616280   1.414   1.188   2.589 -2.1095  0.6527 -0.8363
   23MOL   H39716281   1.364   1.352   2.429 -0.0228 -1.4219  1.9885
   23MOL   C39816282   1.653   0.109   2.920 -0.0852  0.4471 -0.2932
   23MOL   O39916283   1.732   0.075   3.010 -0.1767  0.1514 -0.9275
   23MOL   C40016284   1.541   0.011   2.870  0.1877  0.0956 -0.0014
   23MOL   C40116285   1.477   7.806   2.962 -0.7394  0.4114  0.1364
   23MOL   C40216286   1.375   7.723   2.917  0.9023  0.0566  0.1656
   23MOL   C40316287   1.327   7.735   2.784  0.9305 -0.4489  0.2738
   23MOL   C40416288   1.203   7.663   2.735  0.4907  0.1500  0.1467
   23MOL   O40516289   1.180   7.628   2.622  0.5554  0.4307  0.0037
   23MOL   N40616290   1.114   7.641   2.831 -0.2531  0.5892  0.4699
   23MOL   C40716291   0.979   7.595   2.807  0.3233 -0.6007  0.2469
   23MOL   C40816292   0.893   7.726   2.824  0.3097 -0.7652 -0.4755
   23MOL   C40916293   0.743   7.707   2.797 -0.1791  0.2567 -0.6000
   23MOL   C41016294   0.661   7.633   2.904  0.2495  0.9970  0.5981
   23MOL   C41116295   0.512   7.658   2.897 -0.6336  0.4713  0.3603
   23MOL   C41216296   0.411   7.569   2.984  0.2829  0.2305  0.7005
   23MOL   N41316297   0.424   7.431   2.956 -0.0049 -0.2142  0.2947
   23MOL   C41416298   1.383   7.832   2.695 -0.5634  0.1329  0.0398
   23MOL   C41516299   1.493   0.024   2.735  0.1532 -0.1793 -0.9619
   23MOL   H41616300   1.517   7.792   3.062  0.7150  1.0224 -0.3414
   23MOL   H41716301   1.327   7.654   2.985 -1.0580  0.1448 -1.0934
   23MOL   H41816302   1.143   7.656   2.926  1.4613  0.2727  0.0200
   23MOL   H41916303   0.965   7.552   2.708  0.0957 -1.0092  0.4502
   23MOL   H42016304   0.941   7.521   2.877  0.9036 -0.9053  0.2432
   23MOL   H42116305   0.916   7.792   2.741 -0.8390  0.2457  0.0017
   23MOL   H42216306   0.921   7.770   2.920 -0.2243 -3.3376  0.8967
   23MOL   H42316307   0.692   7.803   2.787  2.0161  1.7201  1.6365
   23MOL   H42416308   0.731   7.652   2.704 -0.7967 -1.7870  0.6451
   23MOL   H42516309   0.701   7.657   3.003  1.6635  1.5983 -0.1024
   23MOL   H42616310   0.678   7.526   2.903  2.1397  1.2530  1.7152
   23MOL   H42716311   0.481   7.648   2.793  1.0621 -1.1478 -0.0241
   23MOL   H42816312   0.500   7.764   2.922  0.3478  0.1865  2.1205
   23MOL   H42916313   0.433   7.575   3.091  1.2760 -0.7430  0.5512
   23MOL   H43016314   0.308   7.592   2.957 -0.5474 -2.3317  1.5947
   23MOL   H43116315   0.479   7.378   3.022  0.2968 -0.6819 -0.3342
   23MOL   H43216316   1.343   7.836   2.594 -3.7808  0.1087  1.2548
   23MOL   H43316317   1.542   0.092   2.667 -1.0336 -0.9184 -2.6046
   23MOL   C43416318   0.348   7.366   2.866  0.3543 -0.6990 -0.1130
   23MOL   O43516319   0.267   7.418   2.788 -0.4180 -0.0669 -0.0850
   23MOL   C43616320   0.362   7.217   2.867 -0.5176  0.1909  0.6194
   23MOL   C43716321   0.300   7.135   2.770 -0.1113 -0.3505 -0.3007
   23MOL   C43816322   0.316   6.996   2.757 -0.0886  0.1184 -0.0146
   23MOL   C43916323   0.392   6.928   2.860  0.0967 -0.4333  0.4920
   23MOL   C44016324   0.412   6.783   2.852  0.6751 -0.0219 -0.3318
   23MOL   O44116325   0.390   6.720   2.746  0.2709  0.1125 -0.8822
   23MOL   N44216326   0.443   6.721   2.968  0.0164  0.4525 -0.0771
   23MOL   C44316327   0.455   6.571   2.989 -1.5206  0.6485  0.0884
   23MOL   C44416328   0.581   6.545   3.070  0.1845 -0.9263  0.0682
   23MOL   C44516329   0.608   6.396   3.119 -0.1803 -0.5725 -0.1207
   23MOL   C44616330   0.712   6.399   3.229  0.7411 -0.4604  0.2634
   23MOL   C44716331   0.771   6.275   3.277 -0.9251 -0.6589 -0.1052
   23MOL   C44816332   0.874   6.292   3.398  0.3250 -1.0163  0.1791
   23MOL   N44916333   0.996   6.361   3.355  0.1390  0.1881  0.8293
   23MOL   C45016334   0.457   7.006   2.958  0.7339  0.1922 -0.8844
   23MOL   C45116335   0.442   7.149   2.963  0.0030  0.4396  0.0677
   23MOL   H45216336   0.232   7.181   2.700  0.1166 -0.7266 -0.7712
   23MOL   H45316337   0.267   6.952   2.672  0.7569  0.6593 -0.7922
   23MOL   H45416338   0.436   6.768   3.057 -2.2427  1.7646 -0.9072
   23MOL   H45516339   0.362   6.549   3.042 -0.6304 -2.1257  0.5771
   23MOL   H45616340   0.450   6.512   2.898 -1.2328  0.2326  0.3361
   23MOL   H45716341   0.562   6.597   3.164  0.5150 -0.2336 -0.2518
   23MOL   H45816342   0.667   6.592   3.023 -1.0644 -1.2825 -2.6321
   23MOL   H45916343   0.511   6.355   3.150 -0.3625  0.8529  1.2991
   23MOL   H46016344   0.642   6.327   3.042  0.1958 -0.2695 -0.2251
   23MOL   H46116345   0.682   6.443   3.324  0.1529  1.1168 -0.6352
   23MOL   H46216346   0.795   6.459   3.192  0.8512 -0.2919  0.7777
   23MOL   H46316347   0.821   6.229   3.191 -3.5427 -2.1481 -0.8943
   23MOL   H46416348   0.691   6.206   3.305 -1.1930 -1.0816 -1.7926
   23MOL   H46516349   0.826   6.339   3.484  2.6447  1.0229  0.4305
   23MOL   H46616350   0.914   6.199   3.438  0.7104 -0.9667 -0.0868
   23MOL   H46716351   1.048   6.320   3.279 -0.0824  2.2042 -0.4408
   23MOL   H46816352   0.522   6.967   3.035 -1.9643  1.5819  2.2287
   23MOL   H46916353   0.483   7.209   3.043 -2.8929  0.6534  1.4325
   23MOL   C47016354   1.040   6.482   3.396 -0.5043  0.3310 -0.2837
   23MOL   O47116355   0.981   6.558   3.475 -0.1990  0.1089 -0.6475
   23MOL   C47216356   1.176   6.518   3.344  0.1147  0.1368  0.3474
   23MOL   C47316357   1.267   6.417   3.313  0.1892  0.4878 -0.1027
   23MOL   C47416358   1.397   6.454   3.275  0.0430 -0.2787  0.0113
   23MOL   C47516359   1.436   6.588   3.269 -0.4729 -1.5573 -0.1193
   23MOL   C47616360   1.574   6.626   3.231  0.0191  0.1629  0.1907
   23MOL   O47716361   1.610   6.622   3.115  0.2899 -0.0179  0.1202
   23MOL   N47816362   1.654   6.663   3.332  0.1376 -0.5304 -0.2000
   23MOL   C47916363   1.793   6.700   3.326 -0.3104 -0.1499  0.4242
   23MOL   C48016364   1.856   6.769   3.447  0.0736  0.1361 -0.8175
   23MOL   C48116365   2.004   6.771   3.450 -0.7293  0.6752 -0.0839
   23MOL   C48216366   2.044   6.835   3.584  0.7575  0.3920 -0.0227
   23MOL   C48316367   2.192   6.823   3.620  0.3871 -0.0829 -0.0993
   23MOL   C48416368   2.211   6.860   3.774  0.3922 -0.2284  0.7696
   23MOL   N48516369   2.344   6.890   3.807 -0.5343  0.2916 -0.1807
   23MOL   C48616370   1.343   6.686   3.307  0.7694  0.2070  0.3634
   23MOL   C48716371   1.210   6.652   3.328 -0.2115 -0.1769  0.5440
   23MOL   H48816372   1.254   6.310   3.319 -1.2967  0.5690 -1.6777
   23MOL   H48916373   1.462   6.376   3.240 -0.2981 -0.1040 -1.0274
   23MOL   H49016374   1.620   6.676   3.427  0.2746  1.1999 -0.3714
   23MOL   H49116375   1.851   6.617   3.286 -1.4045 -1.0483  0.6706
   23MOL   H49216376   1.810   6.778   3.252  0.0735  0.3336  1.0171
   23MOL   H49316377   1.825   6.725   3.541  1.0455  0.3614 -0.3855
   23MOL   H49416378   1.825   6.874   3.439 -0.0356  0.0607 -1.4845
   23MOL   H49516379   2.039   6.668   3.452 -0.1875  0.8660  0.4169
   23MOL   H49616380   2.060   6.818   3.369  3.5341 -1.4910  1.4475
   23MOL   H49716381   1.983   6.801   3.668 -1.2006 -0.0315 -1.5782
   23MOL   H49816382   2.010   6.937   3.568 -1.8729 -0.2915  0.9464
   23MOL   H49916383   2.243   6.891   3.552  0.7168 -0.6749 -0.4521
   23MOL   H50016384   2.224   6.720   3.603  0.2478 -0.4353  1.6617
   23MOL   H50116385   2.154   6.953   3.776 -0.3452 -0.6626  0.0923
   23MOL   H50216386   2.149   6.811   3.849 -0.7253  0.0591  0.0411
   23MOL   H50316387   2.392   6.952   3.745 -1.4053 -1.8387 -3.0927
   23MOL   H50416388   1.373   6.789   3.301  2.1248 -0.2370 -0.8227
   23MOL   H50516389   1.131   6.725   3.342 -2.3787 -1.7622 -2.7396
   23MOL   C50616390   2.399   6.846   3.921  0.7953 -0.3035  0.2503
   23MOL   O50716391   2.337   6.761   3.990  0.1363 -0.1456 -0.1971
   23MOL   C50816392   2.542   6.886   3.950  0.3638 -0.5134  0.7862
   23MOL   C50916393   2.591   7.010   3.902 -0.2338  0.6126  0.0008
   23MOL   C51016394   2.723   7.044   3.928  0.1009 -0.4184 -0.3276
   23MOL   C51116395   2.809   6.951   4.002  0.2908  0.1168 -0.2467
   23MOL   C51216396   2.955   6.992   4.031 -0.3926 -0.0309 -0.6890
   23MOL   O51316397   3.010   6.975   4.137  0.7240 -0.7648  0.0568
   23MOL   N51416398   3.011   7.061   3.934 -0.3005 -0.9709  0.6127
   23MOL   C51516399   3.139   7.137   3.933 -0.5267  0.7874 -0.6501
   23MOL   C51616400   3.110   7.272   3.876 -0.0863  0.0058 -0.5795
   23MOL   C51716401   3.235   7.357   3.881 -0.0916 -0.0189  0.0224
   23MOL   C51816402   3.257   7.438   4.016 -0.4468  0.0435  0.3873
   23MOL   C51916403   3.365   7.545   3.991  0.2164 -0.3251 -0.0632
   23MOL   C52016404   3.354   7.662   4.095 -0.5536  0.9593  0.6259
   23MOL   N52116405   3.441   7.775   4.071  0.3668  0.1104 -0.4379
   23MOL   C52216406   2.752   6.837   4.058 -0.2200  0.2410  0.5869
   23MOL   C52316407   2.623   6.795   4.015 -0.1345 -0.3096 -0.4542
   23MOL   H52416408   2.535   7.081   3.842  0.5512  0.5949 -0.7779
   23MOL   H52516409   2.752   7.144   3.900  2.3069 -0.5481  1.3688
   23MOL   H52616410   2.962   7.047   3.847  0.2101 -1.2252  0.3595
   23MOL   H52716411   3.182   7.149   4.032  0.7427  0.8822 -1.2053
   23MOL   H52816412   3.214   7.072   3.886 -0.4130 -1.4756  2.4725
   23MOL   H52916413   3.037   7.311   3.947 -1.3449 -0.2129 -1.7326
   23MOL   H53016414   3.057   7.267   3.781  1.3679  0.4186 -1.4300
   23MOL   H53116415   3.326   7.303   3.856  0.2836  0.4233  0.4143
   23MOL   H53216416   3.215   7.429   3.801  0.4241 -0.0840 -0.1665
   23MOL   H53316417   3.300   7.375   4.093  0.3968 -1.0958 -0.9799
   23MOL   H53416418   3.158   7.480   4.037  0.0436  0.6286  1.5229
   23MOL   H53516419   3.348   7.581   3.890 -2.3079  2.0724  1.1247
   23MOL   H53616420   3.465   7.502   4.000 -0.5239 -1.4999  3.4513
   23MOL   H53716421   3.253   7.704   4.092 -1.3606 -0.9391  0.2493
   23MOL   H53816422   3.362   7.620   4.196 -0.3717  1.9839  1.0400
   23MOL   H53916423   3.456   7.797   3.973 -0.8903 -0.7209 -0.8341
   23MOL   H54016424   2.817   6.775   4.118  1.2984  0.8545 -0.3931
   23MOL   H54116425   2.579   6.703   4.051 -1.2842 -0.3580 -1.9213
   23MOL   C54216426   3.490   7.845   4.172 -0.0886  0.6388 -0.4220
   23MOL   O54316427   3.476   7.813   4.295  0.0510 -0.0780  0.4255
   23MOL   C54416428   3.574   0.079   4.127  0.8025  0.1783  0.2854
   23MOL   C54516429   3.595   0.120   3.990 -0.7027 -0.4650 -0.2092
   23MOL   C54616430   3.678   0.230   3.963 -0.3251 -0.7458  0.5016
   23MOL   C54716431   3.735   0.310   4.064  0.0804  0.0922 -0.6863
   23MOL   C54816432   3.826   0.432   4.031 -0.0510  0.9282 -0.0736
   23MOL   O54916433   3.801   0.489   3.922 -0.0482  0.8060 -0.6291
   23MOL   N55016434   3.932   0.451   4.115  0.2801  0.5210  0.1868
   23MOL   C55116435   4.044   0.545   4.092  0.7372 -0.4494  0.0851
   23MOL   C55216436   4.169   0.458   4.114 -0.3091 -0.2063 -0.0758
   23MOL   C55316437   4.300   0.534   4.089 -0.5074 -0.0452 -0.5110
   23MOL   C55416438   4.419   0.433   4.091 -0.7757 -0.1875  0.3007
   23MOL   C55516439   4.554   0.485   4.032  0.3893 -0.1929 -0.1928
   23MOL   C55616440   4.656   0.364   4.024  0.7787 -0.0377 -0.3924
   23MOL   N55716441   4.650   0.282   3.902  0.2672  0.0653  0.0253
   23MOL   C55816442   3.712   0.268   4.197 -0.3648 -0.1245  0.3153
   23MOL   C55916443   3.624   0.165   4.229 -0.6523  0.1459 -0.1844
   23MOL   H56016444   3.567   0.058   3.906 -2.3886  0.4869 -0.3619
   23MOL   H56116445   3.700   0.244   3.858 -0.0506  2.0592  0.9049
   23MOL   H56216446   3.945   0.388   4.193 -0.3765 -0.0841 -0.1911
   23MOL   H56316447   4.059   0.600   3.998 -0.8603 -0.6015 -0.2791
   23MOL   H56416448   4.040   0.618   4.173  1.1514 -2.2654  1.7523
   23MOL   H56516449   4.164   0.360   4.066  0.5312 -1.8436  3.0196
   23MOL   H56616450   4.170   0.433   4.220 -2.9925 -0.6133 -0.1129
   23MOL   H56716451   4.291   0.577   3.989  1.6694  2.3129  0.2266
   23MOL   H56816452   4.316   0.621   4.154  1.5642  0.8455 -2.1313
   23MOL   H56916453   4.401   0.343   4.033  2.4982 -0.4517 -0.3875
   23MOL   H57016454   4.420   0.400   4.195 -2.2910  1.1413  0.7501
   23MOL   H57116455   4.593   0.563   4.097  1.3359 -0.8858  0.0857
   23MOL   H57216456   4.534   0.512   3.929  0.3455 -0.6283 -0.3022
   23MOL   H57316457   4.757   0.403   4.038  0.6210  0.5028 -0.7411
   23MOL   H57416458   4.647   0.301   4.112 -0.7750  0.8631  0.1035
   23MOL   H57516459   4.598   0.195   3.908  0.3155 -0.1309 -2.0504
   23MOL   H57616460   3.747   0.327   4.280  2.5279 -1.7645  0.3340
   23MOL   H57716461   3.596   0.153   4.332 -0.0038 -0.8587 -0.1092
   23MOL   C57816462   4.734   0.292   3.801 -0.9342  0.1671 -0.2194
   23MOL   O57916463   4.814   0.384   3.778  0.1021  0.4559  0.3589
   23MOL   C58016464   4.724   0.184   3.691 -1.2529 -0.7209 -0.3167
   23MOL   C58116465   4.696   0.052   3.733  0.1489 -0.1586  0.1648
   23MOL   C58216466   4.688   7.837   3.638  0.2248 -0.1878 -0.4612
   23MOL   C58316467   4.686   7.862   3.497 -0.3748  0.2994 -0.0114
   23MOL   C58416468   4.653   7.747   3.404 -0.2705 -0.2925 -0.5320
   23MOL   O58516469   4.615   7.638   3.436 -0.1407 -0.4028 -0.3684
   23MOL   N58616470   4.687   7.770   3.279  0.1836  0.3098 -1.0815
   23MOL   C58716471   4.684   7.661   3.178 -0.6337  0.1235  0.6504
   23MOL   C58816472   4.831   7.618   3.154  0.0918 -0.0596 -0.4907
   23MOL   C58916473   4.831   7.506   3.054  0.6236 -0.5253 -0.4132
   23MOL   C59016474   4.752   7.519   2.919 -0.1239 -0.6958 -0.8688
   23MOL   C59116475   4.759   7.394   2.831  0.0826  0.0051  0.7365
   23MOL   C59216476   4.672   7.396   2.705 -0.6910  0.6365 -0.3200
   23MOL   N59316477   4.701   7.292   2.610  0.4646 -0.0099  0.5066
   23MOL   C59416478   4.700   0.113   3.456 -0.1530 -0.1332  0.0550
   23MOL   C59516479   4.731   0.215   3.551  0.4067  0.1833  0.2521
   23MOL   H59616480   4.683   0.027   3.837 -2.1239 -0.1209 -0.0866
   23MOL   H59716481   4.674   7.738   3.679  0.1898  0.5436  1.3369
   23MOL   H59816482   4.721   7.863   3.256  1.0500  0.5749  1.0865
   23MOL   H59916483   4.626   7.574   3.208 -0.9630  0.4091  0.8440
   23MOL   H60016484   4.635   7.698   3.088 -0.6087 -0.5321  0.3654
   23MOL   H60116485   4.881   7.596   3.248 -0.8725  3.9198  1.0698
   23MOL   H60216486   4.889   7.693   3.100 -0.1852 -0.0957 -0.8423
   23MOL   H60316487   4.932   7.481   3.023  0.1744 -2.0706 -0.6563
   23MOL   H60416488   4.796   7.424   3.116  2.9009  0.1314  1.8359
   23MOL   H60516489   4.784   7.603   2.858 -0.7089 -0.4384 -0.8244
   23MOL   H60616490   4.648   7.528   2.951 -0.0310 -0.8711 -0.5105
   23MOL   H60716491   4.720   7.308   2.884  1.2937 -0.3090  1.1225
   23MOL   H60816492   4.861   7.380   2.795 -0.7610  0.9110 -2.1345
   23MOL   H60916493   4.566   7.385   2.730 -0.4842  2.0333  1.2374
   23MOL   H61016494   4.687   7.492   2.657 -1.2070  0.6810 -0.4023
   23MOL   H61116495   4.730   7.199   2.634  2.2737  0.6224  0.8153
   23MOL   H61216496   4.702   0.128   3.349  1.1737 -0.8272 -0.0233
   23MOL   H61316497   4.761   0.316   3.525 -1.8513  0.5126 -1.1596
   23MOL   C61416498   4.665   7.307   2.485 -0.5744 -0.2218  0.3182
   23MOL   O61516499   4.613   7.412   2.441 -0.2092  0.7734  0.0374
   23MOL   C61616500   4.673   7.175   2.411  0.7064 -0.7847 -0.5605
   23MOL   C61716501   4.792   7.108   2.393 -0.2171 -0.0745  0.1393
   23MOL   C61816502   4.809   6.998   2.304 -0.3864 -0.3238 -0.5417
   23MOL   C61916503   4.691   6.941   2.254 -0.4409 -0.3047  0.4057
   23MOL   C62016504   4.705   6.831   2.151  0.3980  0.2851 -0.3194
   23MOL   O62116505   4.819   6.796   2.109  0.0356  0.0192  0.6117
   23MOL   N62216506   4.594   6.776   2.103  0.3679  0.1092 -0.0926
   23MOL   C62316507   4.591   6.701   1.978  0.0375  0.4363 -0.2418
   23MOL   C62416508   4.492   6.580   1.982  0.3337 -0.6284  0.2817
   23MOL   C62516509   4.487   6.520   1.846  0.0736 -0.4983  0.8109
   23MOL   C62616510   4.360   6.435   1.821  0.5357  0.2783  0.6886
   23MOL   C62716511   4.359   6.391   1.668 -0.1485  0.4662 -0.3135
   23MOL   C62816512   4.328   6.516   1.584 -0.6954 -0.2650 -0.0779
   23MOL   N62916513   4.343   6.493   1.444  0.1527  0.3568 -0.0776
   23MOL   C63016514   4.567   7.006   2.269 -0.6104 -0.3423  0.5008
   23MOL   C63116515   4.559   7.115   2.357  0.1369 -0.2754  0.2203
   23MOL   H63216516   4.877   7.141   2.452 -0.2562  0.2009  0.0416
   23MOL   H63316517   4.908   6.963   2.279 -0.2397  0.7374 -1.4847
   23MOL   H63416518   4.505   6.793   2.149 -0.0388 -2.6508  0.2484
   23MOL   H63516519   4.558   6.773   1.904 -0.0637  0.0564 -0.5652
   23MOL   H63616520   4.688   6.661   1.950 -0.0400  0.4218 -0.4890
   23MOL   H63716521   4.388   6.610   1.999 -0.0680 -1.1942 -1.1527
   23MOL   H63816522   4.535   6.506   2.050 -0.0599 -2.7420 -1.7364
   23MOL   H63916523   4.497   6.592   1.766 -0.5861 -0.1679  1.0244
   23MOL   H64016524   4.578   6.460   1.836 -0.3767 -1.0634  0.1550
   23MOL   H64116525   4.269   6.494   1.832  0.4868 -0.1400  2.8274
   23MOL   H64216526   4.358   6.347   1.886 -0.2612  0.0908  0.4135
   23MOL   H64316527   4.272   6.326   1.662  0.0737 -0.2189  2.6892
   23MOL   H64416528   4.448   6.341   1.628 -0.6503 -0.1146 -0.7201
   23MOL   H64516529   4.227   6.552   1.605  0.2492  2.5198 -0.0130
   23MOL   H64616530   4.399   6.595   1.610  0.9920 -1.9230  0.4494
   23MOL   H64716531   4.383   6.408   1.407  0.4491  0.0806  0.8667
   23MOL   H64816532   4.481   6.960   2.222 -0.6910  1.1856 -0.8865
   23MOL   H64916533   4.465   7.167   2.355  0.9235  1.2162  0.9862
   23MOL   C65016534   4.306   6.581   1.350  0.1451 -0.5264  0.0345
   23MOL   O65116535   4.261   6.692   1.374 -0.4520  0.1247 -0.3665
   23MOL   C65216536   4.331   6.532   1.209 -0.0003 -0.9872 -0.3143
   23MOL   C65316537   4.348   6.629   1.107  0.6460  0.6661 -0.4945
   23MOL   C65416538   4.337   6.582   0.972  0.1856  0.7799 -0.1956
   23MOL   C65516539   4.317   6.449   0.935  0.2441 -0.3587  0.3995
   23MOL   C65616540   4.308   6.411   0.792 -0.7410  0.1015  0.2498
   23MOL   O65716541   4.239   6.482   0.723 -0.0536 -0.1207 -0.0079
   23MOL   N65816542   4.379   6.299   0.758  0.0622 -0.1491 -0.2871
   23MOL   C65916543   4.348   6.218   0.634  0.9687  0.2195  0.3582
   23MOL   C66016544   4.387   6.062   0.647  0.4706  0.0112 -0.3243
   23MOL   C66116545   4.388   5.984   0.514 -0.0254 -0.0790  0.3482
   23MOL   C66216546   4.413   5.830   0.519  0.5924 -0.8883 -0.9334
   23MOL   C66316547   4.554   5.802   0.577 -0.0952  0.1094 -0.6346
   23MOL   C66416548   4.594   5.658   0.548  0.1913  0.3678  0.1612
   23MOL   N66516549   4.713   5.617   0.619  0.3305  0.0509  0.6623
   23MOL   C66616550   4.292   6.353   1.040 -1.0450 -0.3985  0.8101
   23MOL   C66716551   4.302   6.397   1.170  0.7031 -0.2916 -0.3444
   23MOL   H66816552   4.374   6.734   1.113  1.6814  0.3183  1.4192
   23MOL   H66916553   4.358   6.650   0.891  2.1271 -0.1943 -0.5456
   23MOL   H67016554   4.423   6.258   0.839 -1.8434  1.5990  1.6909
   23MOL   H67116555   4.250   6.218   0.585  0.3499 -0.4394  1.5641
   23MOL   H67216556   4.421   6.254   0.562  0.5411 -1.8034 -1.1090
   23MOL   H67316557   4.309   6.028   0.716  1.1332  1.8096  1.3540
   23MOL   H67416558   4.481   6.048   0.699  0.0043  1.2751  0.9070
   23MOL   H67516559   4.295   6.002   0.460 -0.6610 -0.8862  1.1435
   23MOL   H67616560   4.468   6.034   0.460 -0.5872  2.1793  1.5416
   23MOL   H67716561   4.391   5.788   0.421  0.8511  0.0945 -1.4175
   23MOL   H67816562   4.342   5.799   0.595  2.1457 -1.6629  0.2386
   23MOL   H67916563   4.553   5.806   0.686  1.8415 -0.0186 -0.5937
   23MOL   H68016564   4.627   5.878   0.551  0.2919 -0.3870 -1.0299
   23MOL   H68116565   4.524   5.583   0.584 -0.4731  0.1919 -1.4490
   23MOL   H68216566   4.591   5.641   0.440 -0.9892 -1.1043  0.4101
   23MOL   H68316567   4.708   5.546   0.690 -0.0313 -1.1859 -0.5816
   23MOL   H68416568   4.270   6.250   1.014  3.1178 -2.2771  4.0888
   23MOL   H68516569   4.268   6.321   1.239 -1.5906  0.2965 -0.7765
   23MOL   C68616570   4.839   5.654   0.590 -0.3061 -0.5151  0.8327
   23MOL   O68716571   4.865   5.729   0.496  0.3881 -0.7877  0.2805
   23MOL   C68816572   4.942   5.581   0.660  0.6244 -0.1262  0.2770
   23MOL   C68916573   4.933   5.554   0.800 -0.2615 -0.0844 -0.7418
   23MOL   C69016574   5.041   5.509   0.886 -0.0323 -0.0425  1.0157
   23MOL   C69116575   5.160   5.473   0.822 -0.5464  0.1424 -0.0073
   23MOL   C69216576   5.275   5.431   0.904  0.1025 -0.3009  0.6216
   23MOL   O69316577   5.257   5.345   0.994  0.6766  0.3256 -0.1058
   23MOL   N69416578   5.392   5.491   0.878  0.5278 -0.6215  0.0914
   23MOL   C69516579   5.516   5.466   0.954  0.6053  0.2444 -0.2033
   23MOL   C69616580   5.515   5.550   1.078 -0.7877 -0.3777  0.0370
   23MOL   C69716581   5.635   5.540   1.173 -0.4697 -0.0144  0.3617
   23MOL   C69816582   5.628   5.618   1.305 -0.2148  0.4502 -0.2225
   23MOL   C69916583   5.764   5.634   1.374 -0.2474  0.2973 -1.0772
   23MOL   C70016584   5.873   5.711   1.299  0.4844 -0.2138  0.5772
   23MOL   N70116585   5.813   5.819   1.224  0.0821 -0.2804 -0.2597
   23MOL   C70216586   5.178   5.503   0.685  0.0895  0.6538  0.2478
   23MOL   C70316587   5.072   5.559   0.606 -0.1163  0.0993  0.1385
   23MOL   H70416588   4.846   5.570   0.863 -0.6399 -1.1656 -0.9782
   23MOL   H70516589   5.040   5.504   0.994  4.2799  0.0337  1.1257
   23MOL   H70616590   5.409   5.549   0.796  0.2024 -0.0254  0.4400
   23MOL   H70716591   5.523   5.361   0.981  1.6036  0.7102  1.3958
   23MOL   H70816592   5.600   5.499   0.892  1.8980  0.4261  1.6211
   23MOL   H70916593   5.442   5.509   1.148 -0.1819  0.1912  1.0319
   23MOL   H71016594   5.486   5.651   1.051 -1.8975 -1.0700 -1.3688
   23MOL   H71116595   5.655   5.438   1.206 -1.7688 -0.1041  0.9339
   23MOL   H71216596   5.722   5.576   1.119 -2.1215  2.2951 -0.8750
   23MOL   H71316597   5.560   5.563   1.370 -0.9311 -0.1018 -1.4195
   23MOL   H71416598   5.595   5.720   1.286 -0.6959  0.5363  1.0222
   23MOL   H71516599   5.804   5.534   1.389  1.9716  1.4840  1.2359
   23MOL   H71616600   5.753   5.674   1.474 -0.1779 -2.2413 -0.0100
   23MOL   H71716601   5.952   5.762   1.354  1.1465 -0.4555 -0.1352
   23MOL   H71816602   5.913   5.638   1.228  0.4452  1.0051 -0.7316
   23MOL   H71916603   5.880   5.855   1.158  0.5259 -0.2385  0.2136
   23MOL   H72016604   5.270   5.472   0.639 -0.0036  0.2004  0.3607
   23MOL   H72116605   5.105   5.578   0.505 -0.0824  0.5362  0.2311
   23MOL   H72216606   5.733   5.790   1.170  0.1744 -1.9886  0.4852
   24MOL     C116607   4.751   7.232   3.285  0.3575 -0.6793  0.1279
   24MOL     O216608   4.831   7.173   3.351  0.6238  0.0113 -0.7269
   24MOL     C316609   4.682   7.172   3.174 -0.0697  1.0145 -0.4622
   24MOL     C416610   4.582   7.242   3.108 -0.5627  0.5700 -0.4706
   24MOL     C516611   4.519   7.189   2.995 -0.6877  0.3070 -0.2648
   24MOL     C616612   4.580   7.074   2.931 -0.1976  0.1360  0.3709
   24MOL     C716613   4.532   7.026   2.798 -1.3021 -0.8375  0.3173
   24MOL     O816614   4.416   7.039   2.761  0.0239 -0.3867 -0.1285
   24MOL     N916615   4.629   6.962   2.725  0.3458  0.2170 -0.3160
   24MOL    C1016616   4.606   6.884   2.604 -0.7316  0.3713  0.0487
   24MOL    C1116617   4.607   6.739   2.632  0.6573  0.0569 -0.5787
   24MOL    C1216618   4.579   6.660   2.504  0.6688 -0.4420  0.6872
   24MOL    C1316619   4.564   6.511   2.532  0.9054  0.3411 -0.2911
   24MOL    C1416620   4.540   6.428   2.401  0.8989  0.8750  0.0963
   24MOL    C1516621   4.477   6.293   2.433  0.3640  0.2705 -0.0532
   24MOL    N1616622   4.419   6.226   2.314 -0.5168 -0.5535 -0.7512
   24MOL    C1716623   4.689   7.009   2.993 -0.4016 -0.3175 -0.2149
   24MOL    C1816624   4.734   7.056   3.118  0.2674  0.1747  0.4001
   24MOL    H1916625   4.537   7.335   3.139 -0.9360  0.0061  0.6989
   24MOL    H2016626   4.440   7.239   2.942 -0.3114 -1.5634 -2.7135
   24MOL    H2116627   4.718   6.993   2.761  1.7217  0.0047 -3.4707
   24MOL    H2216628   4.518   6.909   2.546 -0.5011 -2.3701 -1.5515
   24MOL    H2316629   4.689   6.907   2.538 -1.0072 -1.3870 -0.9441
   24MOL    H2416630   4.525   6.722   2.701 -0.0440  0.2906 -1.3420
   24MOL    H2516631   4.698   6.706   2.681  0.3336 -0.2525 -0.1819
   24MOL    H2616632   4.479   6.682   2.466  1.5026  3.4583  0.5068
   24MOL    H2716633   4.651   6.688   2.427 -1.8888  0.6328 -1.3714
   24MOL    H2816634   4.478   6.493   2.596  0.3185 -0.6679 -1.3414
   24MOL    H2916635   4.651   6.468   2.581  0.1999  0.3579  0.9964
   24MOL    H3016636   4.630   6.421   2.339 -0.6210  2.0442 -2.2817
   24MOL    H3116637   4.467   6.485   2.345  2.1194  0.3897 -2.0447
   24MOL    H3216638   4.536   6.224   2.493  1.3802 -0.9682 -2.3975
   24MOL    H3316639   4.382   6.302   2.485 -0.1558  1.1842 -1.1381
   24MOL    H3416640   4.319   6.219   2.305 -0.9235  1.4906  1.7762
   24MOL    H3516641   4.743   6.925   2.951 -0.4781 -0.1697 -0.6058
   24MOL    H3616642   4.823   7.013   3.162 -0.7073 -1.1644  1.1153
   24MOL    H3716643   4.723   7.335   3.306 -0.9879 -0.6053 -1.9106
   24MOL    C3816644   4.493   6.168   2.220 -0.3738  0.3337  1.1999
   24MOL    O3916645   4.617   6.161   2.227  0.1241 -0.3915 -0.4109
   24MOL    C4016646   4.423   6.106   2.095 -0.4831  0.1327  0.0525
   24MOL    C4116647   4.284   6.082   2.107  0.7949  0.3431 -0.0744
   24MOL    C4216648   4.221   6.053   1.985  0.3788 -0.5530  0.1712
   24MOL    C4316649   4.289   6.042   1.861 -0.2980 -0.5769 -0.5255
   24MOL    C4416650   4.212   6.000   1.736  0.3970 -0.2628  0.2995
   24MOL    O4516651   4.261   6.014   1.629 -0.5179 -0.4458  0.2115
   24MOL    N4616652   4.088   5.953   1.752 -0.5313 -0.2705 -0.5588
   24MOL    C4716653   4.013   5.883   1.654 -0.2575  0.7080  0.0326
   24MOL    C4816654   3.950   5.743   1.686  0.1529  0.0306 -0.0622
   24MOL    C4916655   4.031   5.659   1.787 -0.1635 -0.3846  0.8923
   24MOL    C5016656   4.170   5.592   1.743 -0.0625 -0.9935 -0.1684
   24MOL    C5116657   4.153   5.475   1.646 -0.6973  0.3451  0.1392
   24MOL    C5216658   4.283   5.419   1.598 -0.1228 -0.3701  0.0530
   24MOL    N5316659   4.251   5.313   1.497 -0.1301  0.0055  0.0487
   24MOL    C5416660   4.429   6.059   1.854 -0.4238 -0.7050 -0.6347
   24MOL    C5516661   4.493   6.102   1.974 -0.0477  0.0943 -0.3024
   24MOL    H5616662   4.225   6.087   2.197 -0.7663 -2.1481 -0.9275
   24MOL    H5716663   4.113   6.046   1.987  0.2406  0.8265 -1.2004
   24MOL    H5816664   4.039   5.968   1.839 -3.3105 -1.5135 -1.8377
   24MOL    H5916665   3.941   5.955   1.613 -2.1256 -1.8900 -1.4063
   24MOL    H6016666   4.088   5.868   1.576  0.1128 -0.2282  0.5748
   24MOL    H6116667   3.927   5.668   1.610  0.5919 -0.4013  0.2291
   24MOL    H6216668   3.849   5.756   1.727 -0.1320 -0.8727 -0.4591
   24MOL    H6316669   4.054   5.728   1.868 -0.2025 -0.5108  1.0120
   24MOL    H6416670   3.968   5.580   1.829 -1.3867 -0.0554 -0.2719
   24MOL    H6516671   4.226   5.567   1.833  2.1644 -0.7247 -1.4260
   24MOL    H6616672   4.229   5.664   1.686  0.8571 -1.2833  0.4037
   24MOL    H6716673   4.112   5.507   1.550 -2.9938  0.0662  0.9812
   24MOL    H6816674   4.107   5.385   1.686  1.0388 -0.1927  0.9835
   24MOL    H6916675   4.342   5.492   1.544  1.0706 -1.6952 -0.4496
   24MOL    H7016676   4.337   5.382   1.686  2.0284 -1.6180 -1.7315
   24MOL    H7116677   4.163   5.322   1.448 -0.2811 -1.3303  0.0823
   24MOL    H7216678   4.480   6.039   1.761  0.7355 -2.7317  0.3972
   24MOL    H7316679   4.595   6.139   1.975 -0.7329  2.1002  2.7234
   24MOL    C7416680   4.316   5.201   1.477 -0.8332 -0.7473 -0.4914
   24MOL    O7516681   4.419   5.165   1.548  0.3334  0.4953 -0.2141
   24MOL    C7616682   4.261   5.107   1.370  0.1295 -0.0046  0.0933
   24MOL    C7716683   4.339   5.002   1.312  0.0243 -0.1079  0.2873
   24MOL    C7816684   4.279   4.915   1.224 -1.1711  0.6191  0.3866
   24MOL    C7916685   4.147   4.926   1.178  0.3789 -0.5639  0.1048
   24MOL    C8016686   4.092   4.822   1.085 -0.4497 -0.7368  0.6961
   24MOL    O8116687   4.158   4.724   1.063  0.7618  0.2471 -0.0226
   24MOL    N8216688   3.970   4.839   1.030 -0.2520  0.4516 -0.0464
   24MOL    C8316689   3.895   4.744   0.951 -0.1546  0.5620  0.0919
   24MOL    C8416690   3.800   4.681   1.044  0.3768 -0.0410 -0.1998
   24MOL    C8516691   3.717   4.563   0.988 -0.4526  0.3755  0.2193
   24MOL    C8616692   3.610   4.611   0.891  0.6468  0.0053  0.1850
   24MOL    C8716693   3.487   4.685   0.950  0.7562 -0.8324  0.6794
   24MOL    C8816694   3.361   4.698   0.866 -0.0507 -0.7438 -0.5121
   24MOL    N8916695   3.381   4.766   0.737 -0.8272 -0.2634  0.5900
   24MOL    C9016696   4.068   5.029   1.234 -0.2495  0.7030  0.4862
   24MOL    C9116697   4.125   5.117   1.328 -0.3769 -0.4214  0.2842
   24MOL    H9216698   4.440   4.996   1.348  0.0218  1.6524  0.6332
   24MOL    H9316699   4.343   4.843   1.176 -0.4245  1.7056 -0.2566
   24MOL    H9416700   3.924   4.925   1.055  0.1932  0.5608  0.4109
   24MOL    H9516701   3.831   4.793   0.878 -1.5049 -0.5946  0.4857
   24MOL    H9616702   3.966   4.671   0.912 -1.1549  0.1328 -0.9479
   24MOL    H9716703   3.730   4.759   1.070 -0.3482 -0.9112  0.5040
   24MOL    H9816704   3.861   4.648   1.128  1.4909  0.8708 -0.6399
   24MOL    H9916705   3.792   4.492   0.953 -0.1298 -1.2468  3.9932
   24MOL   H10016706   3.675   4.497   1.064 -0.2271  1.8015  1.6003
   24MOL   H10116707   3.580   4.523   0.834  0.3769  0.0711  0.2251
   24MOL   H10216708   3.662   4.675   0.819 -0.4410 -1.7330 -2.2320
   24MOL   H10316709   3.519   4.780   0.993 -2.5590 -1.0500  3.9055
   24MOL   H10416710   3.461   4.629   1.040  0.0787 -1.4929  0.0828
   24MOL   H10516711   3.309   4.604   0.845  0.4323 -0.8917 -1.0486
   24MOL   H10616712   3.284   4.746   0.926  0.3717  0.7793 -1.1781
   24MOL   H10716713   3.462   4.827   0.731 -0.4839 -0.7490  0.2814
   24MOL   H10816714   3.963   5.044   1.213 -0.8869 -2.1393  1.4042
   24MOL   H10916715   4.055   5.184   1.376 -1.0716 -1.5599  0.8691
   24MOL   C11016716   3.292   4.768   0.635 -0.4672  0.2261  0.6288
   24MOL   O11116717   3.199   4.689   0.625 -0.3570  0.1983 -0.1692
   24MOL   C11216718   3.308   4.879   0.532 -0.1032 -0.0904 -0.5564
   24MOL   C11316719   3.326   5.013   0.577  0.0719  0.4688 -0.2452
   24MOL   C11416720   3.352   5.114   0.480 -0.2350  0.9106  0.1655
   24MOL   C11516721   3.353   5.078   0.340 -0.4264  0.3755 -0.0693
   24MOL   C11616722   3.380   5.186   0.239 -0.1654 -0.1689  1.0405
   24MOL   O11716723   3.443   5.167   0.134 -0.5205  0.3369 -0.3431
   24MOL   N11816724   3.331   5.301   0.272  0.0840 -0.0612 -0.6674
   24MOL   C11916725   3.349   5.430   0.211 -0.2411 -0.3448  0.0036
   24MOL   C12016726   3.449   5.525   0.287 -0.7682 -0.5457 -0.0050
   24MOL   C12116727   3.398   5.557   0.430 -0.1365  0.0915  0.2601
   24MOL   C12216728   3.477   5.665   0.502  0.3303  0.2049 -0.5967
   24MOL   C12316729   3.465   5.653   0.658  0.1237  0.2658  0.1308
   24MOL   C12416730   3.521   5.770   0.742 -0.6709 -0.3140 -0.5843
   24MOL   N12516731   3.499   5.757   0.890 -0.3139  0.1369 -0.3305
   24MOL   C12616732   3.335   4.948   0.299  0.1159 -0.1296 -0.6764
   24MOL   C12716733   3.322   4.847   0.398  0.2232  0.2274  0.6805
   24MOL   H12816734   3.313   5.039   0.681 -0.4641 -2.1561  0.3724
   24MOL   H12916735   3.368   5.214   0.517  1.4371  0.2659  1.2348
   24MOL   H13016736   3.267   5.293   0.349 -1.2057 -1.1554 -1.8234
   24MOL   H13116737   3.389   5.420   0.110 -1.2683  0.3257 -0.4717
   24MOL   H13216738   3.246   5.467   0.204 -0.2303 -0.6068 -1.7547
   24MOL   H13316739   3.477   5.612   0.228  0.3316 -0.2822  0.8827
   24MOL   H13416740   3.540   5.466   0.290 -0.6375 -0.3287  0.3293
   24MOL   H13516741   3.297   5.597   0.425  0.8321  2.4399 -1.6576
   24MOL   H13616742   3.397   5.466   0.490 -1.0319  0.0329  0.1579
   24MOL   H13716743   3.455   5.767   0.471  1.9233  0.2241 -1.7365
   24MOL   H13816744   3.583   5.653   0.478  0.6473  2.2482 -0.3557
   24MOL   H13916745   3.517   5.566   0.698 -2.5169 -2.0762 -1.3235
   24MOL   H14016746   3.359   5.639   0.683 -0.0081  0.9495 -0.0343
   24MOL   H14116747   3.627   5.774   0.719 -0.5377 -2.7277 -0.5312
   24MOL   H14216748   3.478   5.869   0.727  0.9098  0.0906 -2.6300
   24MOL   H14316749   3.455   5.836   0.936  0.9364  0.3980  0.4586
   24MOL   H14416750   3.332   4.930   0.192  1.2016 -1.3867 -0.5063
   24MOL   H14516751   3.306   4.746   0.364  0.7482  0.1627  0.6239
   24MOL   C14616752   3.523   5.653   0.972 -0.0430 -0.6497 -0.1609
   24MOL   O14716753   3.586   5.558   0.939 -0.9197  0.2470  0.2666
   24MOL   C14816754   3.457   5.656   1.102  0.9854  0.3966 -0.3313
   24MOL   C14916755   3.499   5.579   1.210 -0.0125 -0.0757  0.3560
   24MOL   C15016756   3.440   5.586   1.338 -0.0750  0.7909  0.2233
   24MOL   C15116757   3.330   5.669   1.358 -0.2752  0.2160 -0.2014
   24MOL   C15216758   3.261   5.655   1.486 -0.4662  0.4450 -1.0655
   24MOL   O15316759   3.262   5.547   1.544 -0.1653 -0.2722  0.2467
   24MOL   N15416760   3.206   5.773   1.534 -0.3806  0.2519 -0.0885
   24MOL   C15516761   3.146   5.794   1.670  0.0534 -0.0639  0.3607
   24MOL   C15616762   3.218   5.736   1.790  0.0622 -0.3191 -0.3101
   24MOL   C15716763   3.175   5.798   1.926  0.1766  0.2024 -0.7813
   24MOL   C15816764   3.249   5.738   2.047  0.2715 -0.1495  0.2906
   24MOL   C15916765   3.234   5.795   2.185  0.2187  0.0069  0.2413
   24MOL   C16016766   3.299   5.927   2.208 -0.5422 -0.0119  0.2650
   24MOL   N16116767   3.268   5.975   2.343 -0.1800 -0.0629  0.3902
   24MOL   C16216768   3.284   5.753   1.250  0.3452 -1.0780 -0.3449
   24MOL   C16316769   3.348   5.748   1.125 -0.3124 -0.5509  1.0687
   24MOL   H16416770   3.563   5.494   1.191 -1.2158 -1.6460  3.0405
   24MOL   H16516771   3.473   5.520   1.417 -0.1510 -1.5550 -1.6543
   24MOL   H16616772   3.207   5.860   1.482 -4.4747  0.8904  0.8068
   24MOL   H16716773   3.128   5.901   1.678  1.4749  0.3039 -1.0434
   24MOL   H16816774   3.041   5.766   1.663 -0.0636  0.6755 -0.9636
   24MOL   H16916775   3.326   5.734   1.777  0.5184 -0.5315  3.0504
   24MOL   H17016776   3.199   5.630   1.808  0.9776 -0.3457  0.5379
   24MOL   H17116777   3.191   5.905   1.916  3.5205  0.0982  2.4068
   24MOL   H17216778   3.068   5.777   1.939  0.0059  1.0654 -0.7872
   24MOL   H17316779   3.354   5.727   2.018  0.4237  1.5402  0.1972
   24MOL   H17416780   3.219   5.633   2.057 -0.4761 -0.0869 -1.0830
   24MOL   H17516781   3.268   5.724   2.260 -0.1492  1.0863  1.4391
   24MOL   H17616782   3.127   5.812   2.197  0.3266  1.2674 -0.4992
   24MOL   H17716783   3.406   5.907   2.199 -0.5516 -0.2103  0.5708
   24MOL   H17816784   3.266   6.000   2.135 -1.6588 -1.2964 -0.5537
   24MOL   H17916785   3.186   5.936   2.388  2.4067 -1.8515  3.7765
   24MOL   H18016786   3.202   5.823   1.254  0.6536 -0.6363 -1.5250
   24MOL   H18116787   3.312   5.813   1.047  0.7580 -0.8876  0.2785
   24MOL   C18216788   3.352   6.066   2.407 -0.1919  0.5759 -0.0253
   24MOL   O18316789   3.453   6.117   2.351 -0.2069 -0.6101 -0.2770
   24MOL   C18416790   3.311   6.094   2.551 -0.1112 -0.5532  0.9127
   24MOL   C18516791   3.406   6.153   2.630 -0.2096 -0.4349 -0.1576
   24MOL   C18616792   3.378   6.164   2.761  0.0084  0.3387 -0.3334
   24MOL   C18716793   3.249   6.131   2.813  0.3460 -0.3959  0.1802
   24MOL   C18816794   3.217   6.152   2.960 -0.4997  0.5557 -0.4392
   24MOL   O18916795   3.118   6.213   3.004  0.4718 -0.1780  0.2978
   24MOL   N19016796   3.307   6.107   3.053 -0.3798  0.3300  0.0554
   24MOL   C19116797   3.295   6.108   3.200 -0.1154 -0.4822  0.0037
   24MOL   C19216798   3.226   5.987   3.250  1.1282  0.2982  0.8978
   24MOL   C19316799   3.205   5.986   3.399  0.4986 -0.1463  0.2247
   24MOL   C19416800   3.107   6.091   3.459  0.2043 -0.0364  0.6168
   24MOL   C19516801   3.036   6.048   3.587 -0.3756  0.3353 -0.8875
   24MOL   C19616802   3.126   6.015   3.709  0.4012 -0.4800 -0.3097
   24MOL   N19716803   3.053   5.942   3.816 -0.4343 -0.6435 -0.3741
   24MOL   C19816804   3.150   6.090   2.725  0.4123  0.5541 -0.7513
   24MOL   C19916805   3.176   6.072   2.591  0.0678  0.4387 -0.1613
   24MOL   H20016806   3.507   6.174   2.600 -0.2003  1.3567  1.0734
   24MOL   H20116807   3.451   6.210   2.825 -0.4882 -0.7056  1.0340
   24MOL   H20216808   3.379   6.049   3.012  0.2489 -0.4043  2.1452
   24MOL   H20316809   3.396   6.117   3.238  0.2441  3.0423 -1.5893
   24MOL   H20416810   3.237   6.196   3.229  0.9110  0.9734 -2.2475
   24MOL   H20516811   3.283   5.897   3.226 -0.4168 -0.8106  1.3075
   24MOL   H20616812   3.134   5.974   3.193  1.6962  1.6370 -0.3654
   24MOL   H20716813   3.164   5.888   3.423  0.4155 -0.1953 -0.1142
   24MOL   H20816814   3.300   5.986   3.452  1.1843  0.5156 -0.9883
   24MOL   H20916815   3.026   6.091   3.386  0.8765  0.0817 -0.1421
   24MOL   H21016816   3.151   6.189   3.479  0.1155  0.5617 -1.9699
   24MOL   H21116817   2.979   5.957   3.566  2.5022 -1.6070 -0.4667
   24MOL   H21216818   2.953   6.111   3.620 -0.8090 -0.8753  0.3543
   24MOL   H21316819   3.212   5.953   3.683  0.9739  0.7953 -1.5265
   24MOL   H21416820   3.168   6.107   3.750  1.9485 -1.2747 -0.0752
   24MOL   H21516821   2.953   5.933   3.827 -0.0979 -1.9319  2.0961
   24MOL   H21616822   3.049   6.069   2.756 -0.0353  1.8677 -1.3073
   24MOL   H21716823   3.099   6.025   2.531  0.3096 -1.9063  1.3013
   24MOL   C21816824   3.125   5.899   3.925 -0.2237 -0.1283 -0.2134
   24MOL   O21916825   3.243   5.932   3.944  0.7197 -0.1413  0.0239
   24MOL   C22016826   3.050   5.827   4.035  0.3735  0.7855 -0.2044
   24MOL   C22116827   3.122   5.776   4.146  0.3319 -0.6810 -0.1827
   24MOL   C22216828   3.061   5.706   4.253 -0.1294  0.0472 -0.7257
   24MOL   C22316829   2.916   5.684   4.244 -0.1572 -0.4038  1.0107
   24MOL   C22416830   2.851   5.613   4.356  0.1081  0.0062  0.6517
   24MOL   O22516831   2.765   5.525   4.324 -0.2892  0.4916  0.3008
   24MOL   N22616832   2.875   5.656   4.480  0.5561 -0.0165 -0.3126
   24MOL   C22716833   2.813   5.601   4.601  0.2407  0.2253 -0.2911
   24MOL   C22816834   2.693   5.688   4.645  0.0416 -0.3402  0.2876
   24MOL   C22916835   2.634   5.627   4.777  0.3324  0.4195  0.4448
   24MOL   C23016836   2.535   5.514   4.748 -0.4630 -0.1397 -0.7466
   24MOL   C23116837   2.464   5.463   4.872 -0.1399  0.0914 -0.5298
   24MOL   C23216838   2.559   5.391   4.970  0.8263 -0.5012 -0.2894
   24MOL   N23316839   2.497   5.346   5.088  0.4647  0.4639  0.2859
   24MOL   C23416840   2.847   5.731   4.132 -0.2687  0.8242 -0.7719
   24MOL   C23516841   2.912   5.795   4.025  0.9555 -0.0344  0.5769
   24MOL   H23616842   3.229   5.787   4.142  0.2765 -0.3681 -0.7964
   24MOL   H23716843   3.107   5.674   4.345  0.0692  1.6312 -0.2751
   24MOL   H23816844   2.931   5.740   4.487  0.5684 -0.0705  0.2542
   24MOL   H23916845   2.782   5.498   4.583  1.4613 -0.0647 -0.7412
   24MOL   H24016846   2.891   5.610   4.677 -0.6071  2.4351  0.3773
   24MOL   H24116847   2.613   5.684   4.571  0.1862 -0.5260  0.1410
   24MOL   H24216848   2.726   5.791   4.650 -0.2632 -0.0880 -2.4215
   24MOL   H24316849   2.703   5.578   4.845  0.7429  2.1430  1.2884
   24MOL   H24416850   2.576   5.705   4.827 -0.1497  1.2012 -1.3017
   24MOL   H24516851   2.573   5.430   4.690 -0.4627 -0.6314 -0.0358
   24MOL   H24616852   2.457   5.542   4.676 -1.3907 -0.1766  0.2353
   24MOL   H24716853   2.389   5.388   4.846 -0.4584 -0.4675  1.8220
   24MOL   H24816854   2.413   5.545   4.923  0.3128 -1.0228  1.8013
   24MOL   H24916855   2.603   5.305   4.918 -0.0468  0.4332 -2.6459
   24MOL   H25016856   2.637   5.462   4.996  0.5034  0.2218 -1.2619
   24MOL   H25116857   2.486   5.408   5.167  0.3116 -1.2693  1.6545
   24MOL   H25216858   2.741   5.709   4.129 -0.6462  2.6861 -2.1404
   24MOL   H25316859   2.851   5.833   3.944  1.6275  0.4855  0.3140
   24MOL   C25416860   2.454   5.219   5.101  0.3758 -0.0694 -0.4309
   24MOL   O25516861   2.436   5.143   5.005  0.1171  0.8179 -0.6256
   24MOL   C25616862   2.407   5.165   5.231 -0.2845 -0.0456  0.3572
   24MOL   C25716863   2.439   5.034   5.270 -0.5509 -0.4274  0.7545
   24MOL   C25816864   2.385   4.976   5.385 -0.3974  0.0626  0.1053
   24MOL   C25916865   2.287   5.048   5.457 -0.1036  0.8846 -0.8313
   24MOL   C26016866   2.210   4.983   5.572  0.4176 -0.6178 -0.0270
   24MOL   O26116867   2.257   4.888   5.631  0.2507  0.0917 -0.5366
   24MOL   N26216868   2.106   5.047   5.618 -0.5767  0.0314 -0.4402
   24MOL   C26316869   2.033   5.030   5.733  0.4914 -0.2705 -0.7206
   24MOL   C26416870   1.911   4.948   5.692 -0.0348 -0.1366  0.3868
   24MOL   C26516871   1.826   4.907   5.806  0.3507 -0.0088  0.4782
   24MOL   C26616872   1.745   5.022   5.874  0.5002  0.1009 -0.2546
   24MOL   C26716873   1.662   4.994   6.004 -0.2391  0.6587  0.9486
   24MOL   C26816874   1.622   5.129   6.065 -0.4662  0.0512  0.1699
   24MOL   N26916875   1.557   5.119   6.193  0.3066  0.8142  0.4952
   24MOL   C27016876   2.258   5.183   5.423 -0.0342  0.0806 -0.6118
   24MOL   C27116877   2.322   5.243   5.309 -0.4655  0.7876 -0.1831
   24MOL   H27216878   2.507   4.977   5.209 -1.3418 -2.2601  1.5410
   24MOL   H27316879   2.420   4.875   5.396 -1.6337 -0.3350  0.5068
   24MOL   H27416880   2.084   5.123   5.555 -0.1616 -1.2616 -2.1798
   24MOL   H27516881   2.083   4.986   5.819 -1.0994  2.0111  1.4567
   24MOL   H27616882   2.004   5.126   5.776  1.7560 -0.8318  1.4763
   24MOL   H27716883   1.940   4.866   5.626  0.7852  1.2217 -0.9766
   24MOL   H27816884   1.848   4.994   5.616 -0.0351  1.2996  1.2328
   24MOL   H27916885   1.762   4.822   5.782  0.9516 -0.2275 -0.3703
   24MOL   H28016886   1.890   4.870   5.886  0.0906  0.2346  0.8003
   24MOL   H28116887   1.672   5.069   5.808  0.6112  0.3086 -0.2279
   24MOL   H28216888   1.819   5.099   5.897 -0.4671  0.4701  1.6566
   24MOL   H28316889   1.729   4.944   6.073 -1.8670 -2.0593  0.6134
   24MOL   H28416890   1.584   4.919   5.996 -0.4942  0.8352  1.7244
   24MOL   H28516891   1.708   5.192   6.089 -2.6773  2.8355  1.0296
   24MOL   H28616892   1.554   5.188   6.005  1.1325  0.6242 -1.1033
   24MOL   H28716893   1.538   5.028   6.235  0.4122  1.2495  1.5069
   24MOL   H28816894   2.173   5.234   5.466 -0.6883 -0.9054 -0.7169
   24MOL   H28916895   2.297   5.345   5.284 -1.9269  0.4581 -0.1050
   24MOL   C29016896   1.520   5.227   6.254  0.2718  0.5148 -0.4752
   24MOL   O29116897   1.525   5.339   6.199  0.0352  0.7760  0.1871
   24MOL   C29216898   1.449   5.208   6.389  0.0892 -0.7711 -0.0024
   24MOL   C29316899   1.383   5.318   6.450 -0.3978  0.1583  0.2145
   24MOL   C29416900   1.306   5.299   6.569 -0.6271 -0.0838  0.4892
   24MOL   C29516901   1.296   5.170   6.623 -0.5177 -0.3703  0.4294
   24MOL   C29616902   1.226   5.151   6.755 -0.2964  0.0609  0.0802
   24MOL   O29716903   1.235   5.040   6.806  0.1014 -0.4903 -0.3056
   24MOL   N29816904   1.151   5.249   6.806  0.1508  0.3464 -0.8803
   24MOL   C29916905   1.039   5.214   6.903 -0.0939  0.7155  1.0792
   24MOL   C30016906   0.909   5.260   6.850  0.0289  0.1281  0.0489
   24MOL   C30116907   0.801   5.207   6.939  0.2354 -0.8259 -0.4222
   24MOL   C30216908   0.650   5.240   6.896 -0.5756 -0.1726  0.1121
   24MOL   C30316909   0.551   5.234   7.010  0.0868 -0.4114  0.4436
   24MOL   C30416910   0.541   5.097   7.080 -0.4977 -1.1603  0.7023
   24MOL   N30516911   0.502   4.986   6.992 -0.5233 -0.0660  0.4463
   24MOL   C30616912   1.369   5.063   6.562 -0.0577 -0.3383 -0.1844
   24MOL   C30716913   1.452   5.082   6.451  0.0270 -0.1291 -0.2508
   24MOL   H30816914   1.372   5.414   6.403 -2.1594 -0.0636  0.1371
   24MOL   H30916915   1.258   5.388   6.606 -0.2012  1.0183 -1.5504
   24MOL   H31016916   1.135   5.332   6.751  0.2973 -1.0766 -3.1427
   24MOL   H31116917   1.048   5.114   6.944  0.9166  0.6527  0.7065
   24MOL   H31216918   1.057   5.268   6.996 -0.6425  2.9161 -0.0558
   24MOL   H31316919   0.902   5.223   6.748  0.1132 -0.4100  0.2366
   24MOL   H31416920   0.926   5.367   6.837  1.6570 -0.1749 -0.5050
   24MOL   H31516921   0.804   5.098   6.949 -0.1339 -0.6949  1.3236
   24MOL   H31616922   0.821   5.232   7.043 -1.1152  1.6412 -0.7423
   24MOL   H31716923   0.612   5.173   6.818 -1.0504 -0.5089  0.6320
   24MOL   H31816924   0.648   5.342   6.857 -3.5373 -0.0896  0.3727
   24MOL   H31916925   0.449   5.257   6.982 -0.3473 -1.4434  1.1488
   24MOL   H32016926   0.577   5.308   7.086 -1.4563  0.2151  0.3774
   24MOL   H32116927   0.637   5.079   7.129  0.1991 -0.8791 -0.5448
   24MOL   H32216928   0.466   5.113   7.157  1.2421  0.8712  2.0448
   24MOL   H32316929   0.514   5.001   6.893 -0.6479 -0.8090  0.3143
   24MOL   H32416930   1.359   4.967   6.611  1.2785 -0.5520 -0.3262
   24MOL   H32516931   1.516   5.002   6.416 -0.9336 -1.8241  1.7021
   24MOL   C32616932   0.474   4.864   7.040  0.7413  0.4127  0.1581
   24MOL   O32716933   0.467   4.842   7.158  0.0546 -0.5696 -0.4464
   24MOL   C32816934   0.449   4.754   6.938  0.1289 -0.4911 -0.6398
   24MOL   C32916935   0.379   4.781   6.820  0.3944  0.1802  0.0193
   24MOL   C33016936   0.330   4.677   6.743  0.7727 -0.4101 -0.4393
   24MOL   C33116937   0.344   4.543   6.777 -0.4256  0.2380 -0.4315
   24MOL   C33216938   0.283   4.433   6.695  0.0053  0.6325  0.1372
   24MOL   O33316939   0.326   4.318   6.703 -0.2454  0.4100  0.3604
   24MOL   N33416940   0.177   4.471   6.629  0.4762  0.5200  0.2653
   24MOL   C33516941   0.085   4.387   6.551  0.1228 -0.6426 -0.0910
   24MOL   C33616942   7.833   4.447   6.576  0.3052 -0.0394  0.4035
   24MOL   C33716943   7.772   4.398   6.699  0.3330 -0.5720 -0.0614
   24MOL   C33816944   7.650   4.304   6.667 -0.4882  0.2763  0.3757
   24MOL   C33916945   7.615   4.204   6.779 -0.5147 -0.2808  0.3157
   24MOL   C34016946   7.576   4.272   6.917  0.4840  0.2830 -0.0845
   24MOL   N34116947   7.565   4.166   7.019  0.2382  0.3073 -0.1758
   24MOL   C34216948   0.430   4.518   6.889 -0.0643  0.1872 -0.5691
   24MOL   C34316949   0.482   4.621   6.969  0.2114  0.1227  0.5042
   24MOL   H34416950   0.341   4.879   6.796 -0.7166 -1.0281 -3.4536
   24MOL   H34516951   0.274   4.712   6.657  0.2418 -3.5880 -1.4404
   24MOL   H34616952   0.150   4.567   6.644 -0.7193  0.1272  0.7176
   24MOL   H34716953   0.114   4.395   6.446 -0.6243  1.1463 -0.1806
   24MOL   H34816954   0.092   4.285   6.588 -0.6797 -0.7974 -0.3723
   24MOL   H34916955   7.775   4.420   6.488 -0.6983  0.8852  0.7592
   24MOL   H35016956   7.848   4.555   6.586 -1.5943  0.5096 -2.1184
   24MOL   H35116957   7.843   4.356   6.770  1.7658  0.3977 -0.9175
   24MOL   H35216958   7.725   4.481   6.751  2.3631  1.2930 -1.1424
   24MOL   H35316959   7.683   4.245   6.581 -0.0900 -1.5749  1.7730
   24MOL   H35416960   7.565   4.366   6.638 -1.6384 -2.1769 -1.7067
   24MOL   H35516961   7.697   4.135   6.798  0.9363  1.7009  1.4608
   24MOL   H35616962   7.527   4.146   6.752 -0.1459 -1.4956  1.7170
   24MOL   H35716963   7.645   4.350   6.949  0.7103  0.3616 -0.7526
   24MOL   H35816964   7.481   4.321   6.895  1.6962  1.9489 -1.6710
   24MOL   H35916965   7.622   4.083   7.012 -0.5195 -0.2502  0.1524
   24MOL   H36016966   0.444   4.412   6.899  1.3887  0.4872  0.6658
   24MOL   H36116967   0.540   4.595   7.057  0.7104 -1.2057 -0.2013
   24MOL   C36216968   7.468   4.164   7.115  0.0442 -0.0802 -0.2751
   24MOL   O36316969   7.391   4.254   7.128 -0.7345  0.2719 -0.3952
   24MOL   C36416970   7.454   4.044   7.211 -0.7837 -0.6177  0.4368
   24MOL   C36516971   7.376   4.052   7.327 -0.3268 -0.7049  0.0152
   24MOL   C36616972   7.381   3.955   7.427 -0.1679 -0.5561 -0.0426
   24MOL   C36716973   7.446   3.832   7.402  0.7063  0.7772 -0.3621
   24MOL   C36816974   7.435   3.723   7.497 -0.4832  0.1285 -0.6281
   24MOL   O36916975   7.348   3.714   7.589  0.0591  0.0391 -0.1029
   24MOL   N37016976   7.524   3.624   7.476  0.4782  0.5233 -0.2934
   24MOL   C37116977   7.539   3.514   7.573 -0.2028 -0.5166 -0.1188
   24MOL   C37216978   7.624   3.410   7.504  1.4179 -0.1300  0.3178
   24MOL   C37316979   7.556   3.340   7.385 -0.5542 -0.5120 -0.0319
   24MOL   C37416980   7.647   3.237   7.317 -0.7823  0.5863  0.3574
   24MOL   C37516981   7.726   3.303   7.201  0.0037  0.3868 -0.3701
   24MOL   C37616982   7.821   3.199   7.144  0.0107  1.3216  0.5874
   24MOL   N37716983   0.031   3.265   7.051  0.2000  0.1790 -0.8154
   24MOL   C37816984   7.523   3.821   7.286 -0.0106  1.0089 -0.7737
   24MOL   C37916985   7.533   3.930   7.196  0.2780  0.5430  0.3781
   24MOL   H38016986   7.313   4.139   7.344 -2.5504 -1.8518 -1.9947
   24MOL   H38116987   7.326   3.970   7.519  0.5086 -0.1965  0.3082
   24MOL   H38216988   7.595   3.632   7.404  0.4440 -0.8587 -0.4914
   24MOL   H38316989   7.589   3.527   7.669  0.2200  1.4650 -0.5962
   24MOL   H38416990   7.442   3.476   7.607  0.6400 -0.2418  2.7454
   24MOL   H38516991   7.656   3.332   7.573  0.6842 -0.6248  0.1009
   24MOL   H38616992   7.720   3.440   7.462 -0.4546  2.2534 -2.3877
   24MOL   H38716993   7.470   3.282   7.419  0.7889 -2.1025  0.7142
   24MOL   H38816994   7.517   3.403   7.304  1.8121 -0.5824 -1.2625
   24MOL   H38916995   7.586   3.159   7.271 -1.5161  2.1829 -1.4327
   24MOL   H39016996   7.720   3.188   7.382 -0.6153  0.6866  0.2448
   24MOL   H39116997   7.773   3.398   7.226  1.8124 -0.7043  0.4622
   24MOL   H39216998   7.654   3.330   7.124 -0.1697  1.7985  0.2817
   24MOL   H39316999   7.876   3.149   7.224 -0.8651 -1.6654 -0.6365
   24MOL   H39417000   7.774   3.112   7.100  3.0273 -0.7150  1.2560
   24MOL   H39517001   0.108   3.310   7.097 -0.1269 -1.4631  1.4336
   24MOL   H39617002   7.579   3.732   7.262 -1.0923  0.2239 -0.4261
   24MOL   H39717003   7.607   3.921   7.118 -1.6078  0.5956 -1.5000
   24MOL   C39817004   7.885   3.313   6.929 -0.5034  0.8108  0.7469
   24MOL   O39917005   7.776   3.293   6.880  0.0315  0.0963 -0.3771
   24MOL   C40017006   0.102   3.373   6.846 -0.5704  0.0816 -0.0898
   24MOL   C40117007   0.077   3.416   6.717  0.3201  0.1839  0.4185
   24MOL   C40217008   0.185   3.458   6.637 -0.0521 -0.8107  0.9695
   24MOL   C40317009   0.323   3.446   6.675 -0.0562 -0.1462 -1.0948
   24MOL   C40417010   0.439   3.491   6.581 -0.2368 -0.1718  0.3465
   24MOL   O40517011   0.556   3.448   6.594  0.0418 -0.5595  0.2181
   24MOL   N40617012   0.407   3.577   6.488  0.2966  0.1395 -0.2361
   24MOL   C40717013   0.498   3.664   6.413 -0.3265 -0.1786  0.1959
   24MOL   C40817014   0.535   3.793   6.492 -0.7916  0.2389 -0.5925
   24MOL   C40917015   0.609   3.917   6.438 -0.8040 -0.8993  0.1213
   24MOL   C41017016   0.661   4.015   6.542 -0.4945 -0.0460 -0.4480
   24MOL   C41117017   0.749   4.131   6.485  0.0022  0.3193  0.4959
   24MOL   C41217018   0.776   4.246   6.581 -0.0245 -0.2556 -0.8702
   24MOL   N41317019   0.860   4.340   6.519 -0.5642  0.4229 -0.1862
   24MOL   C41417020   0.344   3.393   6.806 -0.0212 -0.4685 -0.0653
   24MOL   C41517021   0.235   3.352   6.891 -0.5961 -0.7220 -0.0128
   24MOL   H41617022   7.860   3.420   6.684  0.2821 -1.6856  0.2375
   24MOL   H41717023   0.150   3.498   6.543  0.2194  0.8990  1.5807
   24MOL   H41817024   0.308   3.593   6.479  0.3761  0.0497 -1.2624
   24MOL   H41917025   0.598   3.621   6.411 -0.9393 -1.5592 -1.3987
   24MOL   H42017026   0.471   3.686   6.310 -1.7318  0.4382  0.6849
   24MOL   H42117027   0.589   3.755   6.579 -0.2540  2.0187 -0.1281
   24MOL   H42217028   0.443   3.834   6.533  0.0625  2.3067 -0.6709
   24MOL   H42317029   0.686   3.869   6.377  0.2879  0.7038  0.2072
   24MOL   H42417030   0.556   3.982   6.368 -2.6108 -1.8815  0.5380
   24MOL   H42517031   0.717   3.958   6.617 -0.3398  1.2880  0.4719
   24MOL   H42617032   0.576   4.053   6.598  0.2927 -1.5944  1.9259
   24MOL   H42717033   0.705   4.173   6.394 -2.6540  1.3766  2.2394
   24MOL   H42817034   0.838   4.086   6.439 -1.4276 -0.4606 -1.5655
   24MOL   H42917035   0.694   4.300   6.627  0.3764 -1.1691  0.9321
   24MOL   H43017036   0.825   4.209   6.671 -0.0087 -0.1668 -0.8426
   24MOL   H43117037   0.901   4.325   6.427  0.6796 -0.4776  0.4918
   24MOL   H43217038   0.445   3.368   6.834  0.6447  2.3363  0.1984
   24MOL   H43317039   0.259   3.311   6.989 -0.5350  2.3779  1.3361
   24MOL   C43417040   0.932   4.429   6.580  0.2340 -0.1478  0.3886
   24MOL   O43517041   0.941   4.436   6.703  0.3770  0.2472 -0.0669
   24MOL   C43617042   1.016   4.520   6.496 -1.0793  0.5176  0.4830
   24MOL   C43717043   0.994   4.534   6.359  0.5709 -0.5016  0.0060
   24MOL   C43817044   1.059   4.629   6.285  0.2651 -0.2935  0.1056
   24MOL   C43917045   1.155   4.713   6.346  0.8223 -0.3436  0.3563
   24MOL   C44017046   1.233   4.811   6.258  0.1498  0.4289  0.3194
   24MOL   O44117047   1.349   4.838   6.291  0.0760  0.0446  0.6804
   24MOL   N44217048   1.165   4.870   6.156 -0.0195 -0.5460 -0.8026
   24MOL   C44317049   1.222   4.950   6.050 -0.6994 -0.3932 -0.8379
   24MOL   C44417050   1.279   4.883   5.934  0.1847 -0.1204  0.6812
   24MOL   C44517051   1.172   4.801   5.856 -0.1054 -0.2714  0.1230
   24MOL   C44617052   1.222   4.743   5.725 -0.6071 -0.4158 -0.2794
   24MOL   C44717053   1.111   4.675   5.640 -0.0572 -0.2911 -0.1871
   24MOL   C44817054   1.167   4.624   5.514 -0.1477 -0.7087  0.6727
   24MOL   N44917055   1.079   4.545   5.438 -0.4965  0.0923  0.6576
   24MOL   C45017056   1.181   4.699   6.484 -0.0907 -0.2001 -0.8018
   24MOL   C45117057   1.111   4.605   6.558 -0.6996  0.1364  0.1118
   24MOL   H45217058   0.913   4.480   6.310  0.6605  0.3446 -1.1006
   24MOL   H45317059   1.030   4.649   6.183  0.1663  0.9351  0.3656
   24MOL   H45417060   1.064   4.861   6.154  0.0958 -1.8453 -1.0817
   24MOL   H45517061   1.138   5.012   6.018 -1.6065 -0.9990  0.3470
   24MOL   H45617062   1.297   5.017   6.091  1.3114 -0.9360 -3.5185
   24MOL   H45717063   1.370   4.830   5.961 -0.7184 -1.0787  1.9010
   24MOL   H45817064   1.295   4.975   5.878 -2.1399 -1.2435 -2.0318
   24MOL   H45917065   1.141   4.722   5.925 -3.2660 -0.3774 -1.3372
   24MOL   H46017066   1.084   4.863   5.837 -0.2289 -0.6416 -0.5035
   24MOL   H46117067   1.298   4.666   5.741 -0.7447 -0.3450  0.7088
   24MOL   H46217068   1.280   4.818   5.672  2.1368 -2.1314  0.1920
   24MOL   H46317069   1.026   4.743   5.632  1.6326  1.8534 -0.4313
   24MOL   H46417070   1.071   4.591   5.696 -1.2163  0.6939  0.5078
   24MOL   H46517071   1.198   4.709   5.452  1.3521 -1.6851  0.0431
   24MOL   H46617072   1.258   4.567   5.533  0.1349 -0.7784 -0.8567
   24MOL   H46717073   1.032   4.468   5.483 -0.6465 -0.6202 -0.6691
   24MOL   H46817074   1.261   4.756   6.528  0.6521  0.1044 -2.4898
   24MOL   H46917075   1.141   4.594   6.661  1.0444  2.0360 -0.1684
   24MOL   C47017076   1.045   4.567   5.313 -0.0157  0.1837 -0.0154
   24MOL   O47117077   1.082   4.662   5.250  0.3483  0.0694  0.1352
   24MOL   C47217078   0.947   4.466   5.250  0.0252  0.6601 -1.1308
   24MOL   C47317079   0.860   4.506   5.152 -0.9476  0.3422 -0.0359
   24MOL   C47417080   0.767   4.416   5.094 -0.4516  0.2001 -0.1280
   24MOL   C47517081   0.767   4.280   5.131 -0.8212 -0.3220  0.0428
   24MOL   C47617082   0.687   4.183   5.047  1.2288  0.1641  0.5106
   24MOL   O47717083   0.723   4.067   5.028  0.1254 -0.4616 -0.2005
   24MOL   N47817084   0.571   4.228   4.998  0.2590 -0.0866 -0.2963
   24MOL   C47917085   0.474   4.148   4.918 -0.2648  0.0390 -0.2342
   24MOL   C48017086   0.370   4.240   4.855 -0.0726  0.1324 -0.4973
   24MOL   C48117087   0.248   4.169   4.795 -0.0197  0.3647 -0.4147
   24MOL   C48217088   0.151   4.252   4.716  0.3056  0.3729  1.0940
   24MOL   C48317089   0.027   4.184   4.653 -0.6911  0.2047 -0.7217
   24MOL   C48417090   7.851   4.279   4.544  0.2183  0.3292  0.1333
   24MOL   N48517091   7.790   4.390   4.616 -0.2040 -0.1085  0.3303
   24MOL   C48617092   0.866   4.234   5.223 -0.2355 -0.2330 -0.7982
   24MOL   C48717093   0.960   4.328   5.283  0.5654  0.8081  0.4996
   24MOL   H48817094   0.866   4.609   5.119  1.3242 -0.2437 -1.6197
   24MOL   H48917095   0.695   4.446   5.019  1.2703 -2.2060 -2.8833
   24MOL   H49017096   0.562   4.329   4.994  0.3762  0.1637  4.0682
   24MOL   H49117097   0.527   4.084   4.847  0.1144 -0.6591  0.6568
   24MOL   H49217098   0.416   4.079   4.980 -1.3195  0.6168 -0.5779
   24MOL   H49317099   0.419   4.277   4.765  0.1448 -1.0287 -0.8714
   24MOL   H49417100   0.350   4.324   4.921  0.5106 -1.5151  1.8128
   24MOL   H49517101   0.286   4.089   4.732 -1.6308  0.9661 -2.1877
   24MOL   H49617102   0.189   4.111   4.866  0.5356 -0.3810 -0.5562
   24MOL   H49717103   0.214   4.292   4.637 -2.1775 -0.5441 -1.4212
   24MOL   H49817104   0.101   4.332   4.769 -0.2219 -0.8190  2.4379
   24MOL   H49917105   7.839   4.162   4.730  1.5414  1.3649  1.8530
   24MOL   H50017106   0.071   4.096   4.607  0.1997 -0.3733  1.1760
   24MOL   H50117107   0.041   4.328   4.483  2.1062 -1.6724  0.8089
   24MOL   H50217108   7.777   4.224   4.485  0.0589 -0.5765  1.1505
   24MOL   H50317109   7.854   4.459   4.650 -0.6727  0.0383  0.9256
   24MOL   H50417110   0.874   4.129   5.250  0.3500 -0.1695 -0.7291
   24MOL   H50517111   1.042   4.298   5.347  2.2419  2.6242 -0.7378
   24MOL   C50617112   7.671   4.402   4.681 -0.3929 -0.0989  0.5381
   24MOL   O50717113   7.657   4.492   4.760  0.2620 -0.1693 -0.5209
   24MOL   C50817114   7.562   4.299   4.671 -0.3517 -0.0411 -0.6923
   24MOL   C50917115   7.507   4.255   4.554 -0.3745  0.1509 -0.2020
   24MOL   C51017116   7.407   4.155   4.560 -0.1934  0.2549 -0.6481
   24MOL   C51117117   7.367   4.098   4.681  0.1734  0.4668 -0.2549
   24MOL   C51217118   7.254   3.996   4.687  0.5651  0.1941  0.1778
   24MOL   O51317119   7.234   3.911   4.597  0.3379 -0.1439  0.0953
   24MOL   N51417120   7.161   4.018   4.783  0.3517  0.1101 -0.7257
   24MOL   C51517121   7.050   3.932   4.823  0.5548 -0.3073  0.3290
   24MOL   C51617122   6.914   3.989   4.795 -0.0670  0.4648  0.7337
   24MOL   C51717123   6.888   4.017   4.646 -0.2426 -0.0614  0.0792
   24MOL   C51817124   6.749   4.095   4.638 -0.3702  0.1796 -0.2843
   24MOL   C51917125   6.714   4.112   4.492 -0.4771  0.3229  0.4945
   24MOL   C52017126   6.622   4.232   4.462  0.4562 -0.2938  0.5033
   24MOL   N52117127   6.555   4.215   4.331  0.1682  0.2287  0.2092
   24MOL   C52217128   7.427   4.141   4.801 -0.0277 -0.3573 -0.3012
   24MOL   C52317129   7.515   4.246   4.797  0.1413 -0.3720 -1.0203
   24MOL   H52417130   7.539   4.303   4.462 -1.0213  1.0463  0.0411
   24MOL   H52517131   7.371   4.118   4.465  2.1160  0.1980 -1.5491
   24MOL   H52617132   7.168   4.105   4.834 -1.6738  0.2330 -0.5992
   24MOL   H52717133   7.057   3.834   4.774  0.4709 -0.3486  0.3982
   24MOL   H52817134   7.050   3.919   4.931 -0.3045  1.4315  0.5538
   24MOL   H52917135   6.900   4.086   4.844 -0.3836  0.6373  0.3026
   24MOL   H53017136   6.839   3.933   4.851  0.5088 -1.7773 -0.7161
   24MOL   H53117137   6.968   4.065   4.588 -0.3387  1.2500  1.0048
   24MOL   H53217138   6.889   3.917   4.602 -3.1237  0.1709 -0.5952
   24MOL   H53317139   6.760   4.195   4.681  1.7055  0.4639 -1.4368
   24MOL   H53417140   6.663   4.056   4.693 -0.0419  0.7373  0.6366
   24MOL   H53517141   6.673   4.018   4.456  0.4926  0.0793 -0.0062
   24MOL   H53617142   6.810   4.125   4.442 -1.2824  1.2059 -0.8640
   24MOL   H53717143   6.549   4.260   4.538 -0.1086 -0.7354  0.1309
   24MOL   H53817144   6.675   4.327   4.456 -2.3086  1.2040 -1.7257
   24MOL   H53917145   6.587   4.136   4.276  1.3173 -0.7492  2.1983
   24MOL   H54017146   7.397   4.094   4.893 -0.2906  0.3314 -0.0319
   24MOL   H54117147   7.545   4.288   4.891 -0.9538  0.2858 -0.9558
   24MOL   C54217148   6.462   4.292   4.277  0.2030  0.6719  0.2199
   24MOL   O54317149   6.421   4.396   4.328 -0.0828 -0.0170 -0.1027
   24MOL   C54417150   6.411   4.268   4.143  0.1217  0.4246  0.7974
   24MOL   C54517151   6.508   4.239   4.041  0.6983 -0.7054  0.4273
   24MOL   C54617152   6.473   4.254   3.907  0.1145 -0.8475 -0.5382
   24MOL   C54717153   6.337   4.275   3.868  0.0216  0.2025 -0.2686
   24MOL   C54817154   6.307   4.300   3.725  0.2241  0.2215  0.8456
   24MOL   O54917155   6.398   4.306   3.642 -0.2426 -0.3622 -0.2783
   24MOL   N55017156   6.171   4.323   3.698 -0.0179 -0.2079  0.5664
   24MOL   C55117157   6.125   4.337   3.561  0.0563 -0.5806  0.1723
   24MOL   C55217158   6.185   4.458   3.484  0.3136  0.0560  0.4687
   24MOL   C55317159   6.159   4.599   3.552 -0.0162  0.6229  0.3849
   24MOL   C55417160   6.251   4.710   3.496  1.0779  0.3700  0.4590
   24MOL   C55517161   6.277   4.834   3.578  0.1992 -0.0342  0.9644
   24MOL   C55617162   6.153   4.907   3.628 -0.3421 -0.5255  0.0433
   24MOL   N55717163   6.194   5.006   3.728  0.4762  0.9315  0.1270
   24MOL   C55817164   6.235   4.275   3.974  0.0994  0.3895 -0.2507
   24MOL   C55917165   6.276   4.276   4.109 -0.3784 -0.2278  0.7438
   24MOL   H56017166   6.613   4.227   4.062  0.5261 -2.3571  0.3798
   24MOL   H56117167   6.555   4.244   3.837 -1.0511 -0.9180 -1.9135
   24MOL   H56217168   6.102   4.319   3.772 -1.5283 -0.4926 -0.8023
   24MOL   H56317169   6.146   4.244   3.508 -1.3140 -2.7819  3.3716
   24MOL   H56417170   6.016   4.333   3.559  0.0216  0.0121  0.6620
   24MOL   H56517171   6.136   4.463   3.387 -0.4744  1.9244  0.9338
   24MOL   H56617172   6.292   4.441   3.467  0.0441  0.5423 -1.9557
   24MOL   H56717173   6.055   4.623   3.531 -0.1319  0.2111  0.4808
   24MOL   H56817174   6.167   4.601   3.661 -0.1870  0.0453  0.4081
   24MOL   H56917175   6.218   4.724   3.393  2.6375  0.5639 -0.0192
   24MOL   H57017176   6.347   4.660   3.481  0.0471 -1.6772  0.5305
   24MOL   H57117177   6.340   4.906   3.527 -1.4956  1.6227  1.1768
   24MOL   H57217178   6.330   4.795   3.666  0.8704 -1.2519  0.0369
   24MOL   H57317179   6.106   4.952   3.541  1.8961  0.0368 -0.9102
   24MOL   H57417180   6.087   4.833   3.674 -1.0510 -0.0984 -0.2855
   24MOL   H57517181   6.290   5.036   3.726  0.7114  0.4355  2.1017
   24MOL   H57617182   6.132   4.283   3.942  0.5509 -0.7759 -2.1163
   24MOL   H57717183   6.202   4.297   4.186 -1.4954 -1.7380  0.1087
   24MOL   C57817184   6.109   5.066   3.809 -0.1209  0.2029  0.4312
   24MOL   O57917185   5.990   5.039   3.806 -0.3397 -0.1321  0.1088
   24MOL   C58017186   6.157   5.165   3.910  0.3511 -0.7279  0.0256
   24MOL   C58117187   6.291   5.215   3.901  1.1116 -0.0763  0.7102
   24MOL   C58217188   6.336   5.316   3.992  0.0348  0.6290 -0.4842
   24MOL   C58317189   6.247   5.362   4.090 -0.1257 -0.1674 -0.3901
   24MOL   C58417190   6.290   5.463   4.193 -0.0169 -0.3307 -0.2506
   24MOL   O58517191   6.253   5.455   4.310  0.4239  0.1608  0.0926
   24MOL   N58617192   6.363   5.561   4.143 -0.2078  0.7314 -0.0014
   24MOL   C58717193   6.419   5.671   4.216  0.0616 -0.7743  0.3767
   24MOL   C58817194   6.545   5.645   4.292 -0.3815  0.4472 -0.0119
   24MOL   C58917195   6.653   5.577   4.207 -0.0204 -0.4429  0.2200
   24MOL   C59017196   6.789   5.564   4.275 -0.2967  0.1940  0.0289
   24MOL   C59117197   6.793   5.473   4.400 -0.1360 -0.1400 -0.0142
   24MOL   C59217198   6.935   5.449   4.452  0.9412 -0.2416  0.0860
   24MOL   N59317199   6.931   5.414   4.590 -0.2996 -0.3395  0.5227
   24MOL   C59417200   6.110   5.313   4.101  0.3558 -0.7314  0.5369
   24MOL   C59517201   6.067   5.217   4.013 -0.0091 -0.1536  0.6480
   24MOL   H59617202   6.354   5.191   3.817 -0.1971  2.4529 -1.0480
   24MOL   H59717203   6.439   5.347   3.985  0.4844 -0.8467 -0.5308
   24MOL   H59817204   6.379   5.564   4.043 -0.0881 -0.9139 -0.0305
   24MOL   H59917205   6.433   5.757   4.151 -0.4259  1.9875  3.7607
   24MOL   H60017206   6.354   5.710   4.294 -1.4122  0.7877 -1.5785
   24MOL   H60117207   6.518   5.594   4.384  2.6588 -2.5267 -0.7017
   24MOL   H60217208   6.594   5.735   4.328 -1.0171  1.1307 -0.8376
   24MOL   H60317209   6.624   5.474   4.192 -0.8355  0.0599 -1.8073
   24MOL   H60417210   6.665   5.624   4.109 -0.5214 -1.1631 -0.1864
   24MOL   H60517211   6.844   5.655   4.297 -2.2921  1.0865  1.4907
   24MOL   H60617212   6.864   5.520   4.209 -0.1142  0.8622 -0.2093
   24MOL   H60717213   6.755   5.373   4.382  0.5396 -0.1242 -1.6704
   24MOL   H60817214   6.731   5.517   4.478  0.4072 -3.4987  2.4216
   24MOL   H60917215   6.986   5.371   4.395 -1.9016 -1.5048 -0.7974
   24MOL   H61017216   6.988   5.545   4.449  1.9841 -0.7127  2.2285
   24MOL   H61117217   6.840   5.416   4.633 -0.2517 -0.5394  0.6342
   24MOL   H61217218   6.051   5.345   4.186  0.5749 -0.9442  0.7659
   24MOL   H61317219   5.966   5.182   4.021 -0.7851  1.9794  0.5397
   24MOL   C61417220   7.027   5.374   4.674 -0.1251 -0.2788 -0.2410
   24MOL   O61517221   7.146   5.381   4.651 -0.3661  0.1949 -0.0494
   24MOL   C61617222   6.989   5.297   4.795  0.1471 -0.9353 -0.4064
   24MOL   C61717223   7.069   5.178   4.819 -0.2880  0.3690 -0.2958
   24MOL   C61817224   7.039   5.104   4.936 -0.6239 -0.8662 -0.5009
   24MOL   C61917225   6.937   5.147   5.026  0.1006 -0.0147  1.2645
   24MOL   C62017226   6.917   5.083   5.160 -0.5341  0.3072 -0.3984
   24MOL   O62117227   6.863   5.138   5.252  0.3388  0.3011  0.6351
   24MOL   N62217228   6.972   4.962   5.170  0.6687  0.4386 -0.0635
   24MOL   C62317229   6.974   4.876   5.286  0.1072  0.1236 -0.1336
   24MOL   C62417230   7.121   4.837   5.322 -0.1311 -0.2352  0.1784
   24MOL   C62517231   7.208   4.957   5.369 -0.0687  0.0950  0.1742
   24MOL   C62617232   7.291   5.035   5.260  0.6303 -0.3245 -0.0366
   24MOL   C62717233   7.397   4.939   5.199  0.2402 -0.6498 -0.2666
   24MOL   C62817234   7.478   4.996   5.083  0.5695  0.2156  0.0847
   24MOL   N62917235   7.603   4.921   5.073 -0.5876  0.3711 -0.5577
   24MOL   C63017236   6.868   5.267   4.996  0.2101 -0.3293 -0.0468
   24MOL   C63117237   6.892   5.345   4.881 -0.0995 -0.2615  0.6355
   24MOL   H63217238   7.146   5.141   4.752  0.5898  1.5696  0.0360
   24MOL   H63317239   7.096   5.013   4.951  1.8437  0.6834 -0.2287
   24MOL   H63417240   7.018   4.941   5.082  1.6159  0.0624  0.5195
   24MOL   H63517241   6.910   4.904   5.369 -3.6716 -2.1195 -2.1265
   24MOL   H63617242   6.921   4.783   5.263  0.8312 -0.7416  1.5616
   24MOL   H63717243   7.157   4.786   5.233 -0.8248 -0.9281  0.2933
   24MOL   H63817244   7.129   4.764   5.403  3.2259 -0.8241 -0.6021
   24MOL   H63917245   7.150   5.030   5.425 -2.3650 -1.1742 -0.4876
   24MOL   H64017246   7.278   4.924   5.446  1.4693  1.9304 -0.4089
   24MOL   H64117247   7.343   5.121   5.302 -1.3557  1.1158 -0.4973
   24MOL   H64217248   7.224   5.072   5.183  1.1840 -3.0278 -1.9106
   24MOL   H64317249   7.346   4.852   5.159 -3.4301  1.1826  0.2290
   24MOL   H64417250   7.462   4.896   5.275  0.8393 -1.5505 -1.2742
   24MOL   H64517251   7.428   4.998   4.986  3.6092  0.7173 -1.5098
   24MOL   H64617252   7.510   5.095   5.116 -3.0488  0.3807  3.5030
   24MOL   H64717253   7.624   4.849   5.141  1.2669  3.1906  1.9756
   24MOL   H64817254   6.801   5.304   5.072  0.9351  2.7977 -0.8766
   24MOL   H64917255   6.853   5.443   4.858  0.8778 -0.2846 -1.2639
   24MOL   C65017256   7.694   4.937   4.974 -0.5023 -0.7353 -0.0545
   24MOL   O65117257   7.664   4.997   4.871 -0.3582 -0.1732  0.1853
   24MOL   C65217258   7.832   4.871   5.003 -0.6541 -0.8534  0.0201
   24MOL   C65317259   0.004   4.870   5.135 -0.6146 -1.1153 -0.2044
   24MOL   C65417260   0.115   4.794   5.165  0.6836 -0.8367 -0.6956
   24MOL   C65517261   0.189   4.731   5.065  0.4316  0.3063  0.1660
   24MOL   C65617262   0.304   4.646   5.099  0.1703  0.2770 -0.4409
   24MOL   O65717263   0.401   4.629   5.022  0.2176  0.3300 -0.1227
   24MOL   N65817264   0.303   4.602   5.222 -0.0279 -0.2600 -0.2469
   24MOL   C65917265   0.386   4.489   5.271 -0.4690  0.1667  0.2924
   24MOL   C66017266   0.321   4.349   5.278  1.1445  0.2209  0.5846
   24MOL   C66117267   0.171   4.346   5.307 -0.0828  0.4095 -0.3324
   24MOL   C66217268   0.111   4.209   5.355 -0.0429  0.0921  0.9722
   24MOL   C66317269   0.150   4.152   5.491 -0.4098  0.2683 -0.4414
   24MOL   C66417270   0.072   4.027   5.526 -0.2424  0.1338  0.1415
   24MOL   N66517271   0.066   3.923   5.428  0.2816  0.3515  0.2312
   24MOL   C66617272   0.142   4.737   4.933  0.4996  0.6262  0.1180
   24MOL   C66717273   0.026   4.810   4.906  0.4927  0.2464  0.2272
   24MOL   H66817274   7.846   4.926   5.216 -1.0550 -0.9375 -0.5612
   24MOL   H66917275   0.142   4.811   5.268 -1.1618  1.8489 -0.6162
   24MOL   H67017276   0.227   4.628   5.283 -0.2521 -0.7568 -0.3113
   24MOL   H67117277   0.477   4.491   5.211 -1.1484  0.9350 -0.7579
   24MOL   H67217278   0.406   4.517   5.374  2.6687 -0.8402 -0.0058
   24MOL   H67317279   0.379   4.279   5.338 -0.8431  0.0805  2.3987
   24MOL   H67417280   0.330   4.304   5.180 -0.8995  0.4000  0.2977
   24MOL   H67517281   0.156   4.423   5.383  1.4289 -0.1666  0.5816
   24MOL   H67617282   0.123   4.364   5.211  0.9322 -2.2331 -1.3852
   24MOL   H67717283   0.136   4.138   5.277 -1.1307  0.3404  0.3871
   24MOL   H67817284   0.004   4.224   5.342  0.3136  1.6303 -0.2946
   24MOL   H67917285   0.127   4.226   5.568  1.3182  1.4564 -1.0463
   24MOL   H68017286   0.258   4.141   5.481 -0.7117 -2.5902 -0.8437
   24MOL   H68117287   0.106   3.980   5.618  0.5044  4.4298  2.1493
   24MOL   H68217288   7.855   4.062   5.535 -0.9127 -1.3539 -1.4743
   24MOL   H68317289   0.082   3.956   5.334  0.7667  0.0613  0.2118
   24MOL   H68417290   0.196   4.683   4.856 -1.1347  0.0413 -0.6445
   24MOL   H68517291   7.871   4.824   4.807 -0.4372  1.0981  0.7213
   24MOL   C68617292   0.026   3.802   5.461 -0.2126 -0.1421  0.2200
   24MOL   O68717293   7.882   3.762   5.574 -0.0425  0.6236 -0.4026
   24MOL   C68817294   0.012   3.703   5.352  0.8397 -0.1131 -0.3188
   24MOL   C68917295   0.065   3.731   5.229 -0.0724 -0.8608  0.4199
   24MOL   C69017296   0.051   3.647   5.115  0.1689  0.3408 -0.1639
   24MOL   C69117297   7.860   3.529   5.130 -0.0626  0.7645 -0.3306
   24MOL   C69217298   7.840   3.440   5.012  0.0043 -0.1890  0.1467
   24MOL   O69317299   0.016   3.335   5.001 -0.4308  0.5538 -0.2719
   24MOL   N69417300   7.741   3.477   4.934  0.0415  0.3304  0.2418
   24MOL   C69517301   7.713   3.409   4.802  0.2199 -0.8117 -0.3611
   24MOL   C69617302   7.749   3.494   4.683  0.0979  0.0119  0.0336
   24MOL   C69717303   7.663   3.620   4.675 -0.1725 -0.8064 -0.1641
   24MOL   C69817304   7.711   3.726   4.564 -0.0311 -0.3714 -0.6265
   24MOL   C69917305   7.593   3.810   4.509  0.6140 -0.2942  0.2376
   24MOL   C70017306   7.624   3.868   4.371 -0.1955  0.1903  0.8445
   24MOL   N70117307   7.506   3.922   4.303 -0.5011 -0.2636  0.1516
   24MOL   C70217308   7.807   3.494   5.258  0.4933  0.0119 -0.4528
   24MOL   C70317309   7.824   3.585   5.365 -0.0469  0.2250 -0.1535
   24MOL   H70417310   0.119   3.822   5.206 -0.7929 -0.8441 -1.2780
   24MOL   H70517311   0.094   3.667   5.018  0.7063 -0.7527 -0.1526
   24MOL   H70617312   7.686   3.559   4.955  0.8450  1.4506 -1.8875
   24MOL   H70717313   7.753   3.309   4.789  2.0274 -0.0929 -0.4410
   24MOL   H70817314   7.606   3.389   4.811 -0.3053  2.4273  1.5184
   24MOL   H70917315   7.715   3.436   4.597 -2.6857  2.3239 -0.5273
   24MOL   H71017316   7.856   3.515   4.683  0.3166 -1.0316  1.4067
   24MOL   H71117317   7.557   3.596   4.674 -0.7105  1.5014  0.4185
   24MOL   H71217318   7.683   3.670   4.770 -1.9867 -0.7042  0.1781
   24MOL   H71317319   7.773   3.676   4.490  1.6489 -1.1675  1.2766
   24MOL   H71417320   7.785   3.793   4.608 -0.4932 -0.0074 -0.3919
   24MOL   H71517321   7.556   3.879   4.585  1.9143  1.0459 -0.3244
   24MOL   H71617322   7.519   3.730   4.497 -0.7242  0.9568  0.0849
   24MOL   H71717323   7.702   3.944   4.385  0.1664 -0.4012  2.1266
   24MOL   H71817324   7.671   3.785   4.320  1.5876  0.6482  1.6712
   24MOL   H71917325   7.463   3.998   4.354 -0.4709  0.1334 -0.4009
   24MOL   H72017326   7.758   3.398   5.266 -1.1533  0.8932  0.4592
   24MOL   H72117327   7.777   3.573   5.461  0.9523  1.0470  0.4454
   24MOL   H72217328   7.526   3.970   4.216 -0.9320 -0.8975 -0.3054
   25MOL     C117329   6.523   2.130   7.033  0.3438 -0.2271 -0.3308
   25MOL     O217330   6.490   2.248   7.005  1.0194 -0.4449  0.5751
   25MOL     C317331   6.429   2.019   7.061 -0.9463 -0.2259 -0.0413
   25MOL     C417332   6.485   1.894   7.095  0.0427 -0.0733 -0.8638
   25MOL     C517333   6.395   1.788   7.116  0.2756 -0.1700  0.4087
   25MOL     C617334   6.252   1.797   7.097 -0.9714  0.2685 -0.4464
   25MOL     C717335   6.153   1.687   7.108 -0.2733 -0.4353  0.1894
   25MOL     O817336   6.039   1.692   7.064 -0.3506  0.1009 -0.4344
   25MOL     N917337   6.200   1.576   7.165  0.1093 -0.0883 -0.0135
   25MOL    C1017338   6.145   1.443   7.160 -0.2176  0.0952  0.6876
   25MOL    C1117339   6.246   1.334   7.113 -0.3800  0.1017  0.4460
   25MOL    C1217340   6.183   1.197   7.099  0.0616  0.4794 -0.2555
   25MOL    C1317341   6.292   1.097   7.086  0.0983 -0.3229 -0.4968
   25MOL    C1417342   6.349   1.045   7.213  0.0498 -0.0112  0.6658
   25MOL    C1517343   6.465   0.943   7.190  0.4646 -0.9376 -0.6991
   25MOL    N1617344   6.537   0.910   7.316  0.0196  0.1492  0.4500
   25MOL    C1717345   6.204   1.922   7.057 -0.0169 -0.1097 -0.3172
   25MOL    C1817346   6.293   2.037   7.032 -0.7058 -0.7121 -0.3766
   25MOL    H1917347   6.589   1.870   7.110  0.2525  0.7105 -1.0096
   25MOL    H2017348   6.426   1.686   7.134 -0.2795 -0.7739 -1.9070
   25MOL    H2117349   6.284   1.600   7.216 -1.0034 -0.7889  2.2049
   25MOL    H2217350   6.100   1.408   7.253 -2.2352 -2.0347 -1.0022
   25MOL    H2317351   6.064   1.434   7.087  1.0147  0.6178 -0.7606
   25MOL    H2417352   6.324   1.324   7.188  0.1308  0.6279 -0.0053
   25MOL    H2517353   6.290   1.353   7.015 -2.5809 -2.2705 -1.0678
   25MOL    H2617354   6.133   1.169   7.192  0.8527 -0.0710  0.0068
   25MOL    H2717355   6.116   1.194   7.013  0.9206 -0.9125 -0.8960
   25MOL    H2817356   6.369   1.134   7.018 -2.3326  1.1707 -2.5012
   25MOL    H2917357   6.245   1.015   7.031  2.1587 -1.6233 -0.3651
   25MOL    H3017358   6.275   0.998   7.278 -1.8916  1.9636 -0.0571
   25MOL    H3117359   6.394   1.132   7.261  3.4637 -0.7613 -1.0363
   25MOL    H3217360   6.428   0.848   7.150  0.2669 -1.9605  1.7786
   25MOL    H3317361   6.535   0.965   7.109 -0.0846 -0.0325 -0.9221
   25MOL    H3417362   6.488   0.848   7.378 -2.1157  0.6810 -0.6159
   25MOL    H3517363   6.096   1.934   7.062  0.0059  0.0110 -0.0740
   25MOL    H3617364   6.254   2.132   6.999  1.1364  0.5693  1.0258
   25MOL    H3717365   6.624   2.091   7.047  0.6781  0.9843  0.7469
   25MOL    C3817366   6.644   0.979   7.363 -0.1002 -0.6430 -0.2808
   25MOL    O3917367   6.689   1.078   7.304  0.0074  0.0508  0.3318
   25MOL    C4017368   6.697   0.937   7.496  0.2247 -0.2419 -0.2633
   25MOL    C4117369   6.713   1.027   7.604 -1.0313  0.5478 -0.4415
   25MOL    C4217370   6.757   0.983   7.728 -0.2081 -0.0725 -0.5955
   25MOL    C4317371   6.783   0.846   7.753  0.0974  0.1228  0.3455
   25MOL    C4417372   6.843   0.792   7.878  0.0878 -0.5942  0.9353
   25MOL    O4517373   6.921   0.692   7.876  0.1244  0.6102  0.4495
   25MOL    N4617374   6.807   0.859   0.105  0.0939 -0.2319  0.1109
   25MOL    C4717375   6.839   0.822   0.239 -0.2073  0.7899 -0.6546
   25MOL    C4817376   6.729   0.725   0.292  0.1378  0.5656  0.1674
   25MOL    C4917377   6.767   0.672   0.431  0.4979  0.1808  0.0655
   25MOL    C5017378   6.650   0.630   0.524 -0.2822 -0.1096  0.0654
   25MOL    C5117379   6.683   0.568   0.659  0.5572 -0.1255 -0.1073
   25MOL    C5217380   6.707   0.416   0.654 -0.1022  0.1040 -0.7032
   25MOL    N5317381   6.732   0.365   0.789  0.2317  0.2446 -0.3211
   25MOL    C5417382   6.757   0.760   7.651  0.3433  0.7157  0.1711
   25MOL    C5517383   6.708   0.799   7.524 -0.0239 -0.1847 -0.2026
   25MOL    H5617384   6.691   1.132   7.596 -0.9084  0.4553 -2.2287
   25MOL    H5717385   6.766   1.054   7.810  1.3939 -0.7886 -0.1316
   25MOL    H5817386   6.757   0.946   0.097  1.7330  0.8663  1.4698
   25MOL    H5917387   6.930   0.762   0.250  0.1635  1.1386 -1.7648
   25MOL    H6017388   6.855   0.905   0.308 -0.5456 -0.2603  0.7140
   25MOL    H6117389   6.720   0.634   0.232  1.4153  1.6238 -1.7007
   25MOL    H6217390   6.634   0.777   0.286 -0.4408 -0.7735 -4.1352
   25MOL    H6317391   6.840   0.592   0.422  1.6839  1.2741 -0.0646
   25MOL    H6417392   6.828   0.744   0.486 -0.5198  0.6951  0.5465
   25MOL    H6517393   6.575   0.575   0.467  0.4454 -1.4487  0.3842
   25MOL    H6617394   6.584   0.713   0.548 -1.9289 -1.4298  0.2546
   25MOL    H6717395   6.595   0.588   0.720 -1.3783 -0.9543 -2.5879
   25MOL    H6817396   6.774   0.611   0.701 -0.1454  0.6412  0.6472
   25MOL    H6917397   6.622   0.368   0.605 -2.8416  4.2283 -0.2334
   25MOL    H7017398   6.791   0.402   0.586  1.6523  0.8511  1.2806
   25MOL    H7117399   6.679   0.407   0.864  0.3128 -1.5513  0.7653
   25MOL    H7217400   6.764   0.654   7.670  0.6265  0.7879  0.4558
   25MOL    H7317401   6.679   0.729   7.447  0.5656 -2.9195  2.0144
   25MOL    C7417402   6.796   0.254   0.811 -0.4350  0.5035  0.5127
   25MOL    O7517403   6.846   0.187   0.717  0.1353 -0.4986  0.2671
   25MOL    C7617404   6.779   0.187   0.948  0.1774 -0.0829 -0.0841
   25MOL    C7717405   6.719   0.256   1.057 -0.5331 -0.0029  0.2339
   25MOL    C7817406   6.701   0.198   1.177 -0.2480 -0.6273  0.0557
   25MOL    C7917407   6.742   0.064   1.201  0.1329 -0.6292  0.2096
   25MOL    C8017408   6.734   0.009   1.340 -0.6205  0.1839  0.3663
   25MOL    O8117409   6.829   7.842   1.397  0.1967  0.1796 -0.5649
   25MOL    N8217410   6.616   0.024   1.397 -0.4588 -0.4985 -0.6318
   25MOL    C8317411   6.568   7.873   1.533 -0.4477 -0.3025  0.3173
   25MOL    C8417412   6.436   0.059   1.564  0.9336 -0.0565 -0.4723
   25MOL    C8517413   6.325   0.040   1.459  0.3877 -0.1037  0.5177
   25MOL    C8617414   6.187   0.102   1.495 -0.2977 -0.3641  0.3105
   25MOL    C8717415   6.076   0.087   1.392 -0.0783 -0.8503 -0.0439
   25MOL    C8817416   6.044   0.218   1.311  0.3368  1.0772  0.2760
   25MOL    N8917417   6.005   0.330   1.400 -0.1468  0.3986  0.4081
   25MOL    C9017418   6.814   7.881   1.097  0.2595  0.3803  0.1787
   25MOL    C9117419   6.827   0.057   0.972  0.6027  0.2290 -0.0703
   25MOL    H9217420   6.681   0.357   1.047 -0.8026 -0.2241 -1.0542
   25MOL    H9317421   6.663   0.260   1.257 -0.7339 -0.8707  0.0119
   25MOL    H9417422   6.550   0.082   1.346 -0.7537  0.5123  0.8628
   25MOL    H9517423   6.559   7.764   1.533 -0.2282 -0.3196  0.1656
   25MOL    H9617424   6.645   0.017   1.603 -2.0256  0.1923  1.8763
   25MOL    H9717425   6.450   0.165   1.585 -0.2709 -0.3879  2.1522
   25MOL    H9817426   6.404   0.018   1.660  3.5980  0.7860  0.8469
   25MOL    H9917427   6.365   0.062   1.360 -0.3128 -1.9023 -0.1874
   25MOL   H10017428   6.306   7.819   1.460  0.2080 -0.1156 -1.7788
   25MOL   H10117429   6.199   0.207   1.520 -1.4914 -0.6097  2.0320
   25MOL   H10217430   6.147   0.059   1.587 -2.0249  1.3854  0.4141
   25MOL   H10317431   5.985   0.065   1.447 -0.5181 -1.0626 -0.8381
   25MOL   H10417432   6.083   0.001   1.326 -0.1692 -1.8340  1.2357
   25MOL   H10517433   6.141   0.248   1.270  0.0580  2.6297  0.6896
   25MOL   H10617434   5.963   0.209   1.239  1.4874  1.5480 -1.1085
   25MOL   H10717435   5.967   0.304   1.490  0.3813 -0.8065  0.2919
   25MOL   H10817436   6.861   7.787   1.122  0.6043  0.4719 -0.1249
   25MOL   H10917437   6.880   0.012   0.889 -1.8270  1.1609 -2.1811
   25MOL   C11017438   6.012   0.460   1.365  0.4724 -0.1207  0.4128
   25MOL   O11117439   6.075   0.496   1.266 -0.4100 -0.1224  0.1006
   25MOL   C11217440   5.951   0.565   1.457  0.3171 -0.7894 -0.3348
   25MOL   C11317441   5.995   0.700   1.448 -0.7954  0.1933 -0.5509
   25MOL   C11417442   5.963   0.795   1.551  0.2182 -0.3810  0.6123
   25MOL   C11517443   5.874   0.756   1.654  0.5648 -0.5030  0.0495
   25MOL   C11617444   5.854   0.841   1.772  0.1354  0.1324 -0.7641
   25MOL   O11717445   5.829   0.789   1.883  0.7197 -0.4006  0.4548
   25MOL   N11817446   5.853   0.974   1.757 -0.4917  0.4380  1.0251
   25MOL   C11917447   5.813   1.069   1.860  0.2266 -0.2286 -0.0068
   25MOL   C12017448   5.780   1.207   1.798  0.1015 -0.3806 -1.1609
   25MOL   C12117449   5.808   1.328   1.889 -0.0478  0.0043 -0.0008
   25MOL   C12217450   5.718   1.334   2.012 -0.3142  0.3084 -0.4256
   25MOL   C12317451   5.763   1.424   2.128  0.1122 -0.4820 -0.3358
   25MOL   C12417452   5.698   1.388   2.266  0.4777  0.2440 -0.2654
   25MOL   N12517453   5.730   1.255   2.301 -0.3741  0.1889 -0.1771
   25MOL   C12617454   5.821   0.624   1.654  0.8332 -0.1477 -0.5303
   25MOL   C12717455   5.851   0.532   1.553 -0.3997  0.2182 -0.1838
   25MOL   H12817456   6.085   0.719   1.391 -0.1526 -2.9090 -0.6359
   25MOL   H12917457   6.003   0.895   1.556 -0.8148 -0.0301  2.2599
   25MOL   H13017458   5.870   1.012   1.664 -1.4280 -0.9536  0.2737
   25MOL   H13117459   5.718   1.047   1.908  0.6025  0.7161  1.1817
   25MOL   H13217460   5.883   1.067   1.943 -1.2349 -1.7910  1.2444
   25MOL   H13317461   5.681   1.212   1.753  0.3568 -0.0791 -1.7019
   25MOL   H13417462   5.847   1.222   1.713  0.6072 -3.2924 -1.3039
   25MOL   H13517463   5.912   1.324   1.921  0.2484  0.7921 -0.8591
   25MOL   H13617464   5.798   1.423   1.836 -0.6727 -0.0143  0.0849
   25MOL   H13717465   5.711   1.234   2.055 -1.3031 -0.6654 -2.7212
   25MOL   H13817466   5.612   1.341   1.989 -0.7725 -1.4864  1.0194
   25MOL   H13917467   5.754   1.530   2.106  2.9167  0.1882  1.4226
   25MOL   H14017468   5.872   1.414   2.124  0.1019 -1.3844  1.3776
   25MOL   H14117469   5.735   1.455   2.343 -1.4270  1.0051  0.0066
   25MOL   H14217470   5.590   1.383   2.254  0.5638 -1.4354 -0.4826
   25MOL   H14317471   5.665   1.184   2.269  1.6535 -1.2933 -1.1023
   25MOL   H14417472   5.765   0.580   1.734  2.2888 -1.4814 -0.2167
   25MOL   H14517473   5.812   0.432   1.558 -0.4802  0.2990  0.8322
   25MOL   C14617474   5.840   1.200   2.364  0.2561 -0.5568 -0.2584
   25MOL   O14717475   5.941   1.261   2.398 -0.2697 -0.7640  0.1639
   25MOL   C14817476   5.845   1.049   2.354 -0.2220 -0.4624 -0.1269
   25MOL   C14917477   5.959   0.978   2.308 -0.7961  0.0180  0.3419
   25MOL   C15017478   5.949   0.844   2.262 -0.3653 -0.3829 -0.5607
   25MOL   C15117479   5.837   0.772   2.293  0.0820  0.0689  0.6811
   25MOL   C15217480   5.838   0.625   2.260  0.6731 -0.0295 -0.5463
   25MOL   O15317481   5.906   0.558   2.333 -0.5113 -0.0503  0.5103
   25MOL   N15417482   5.754   0.581   2.168  0.5472  0.8392  0.6710
   25MOL   C15517483   5.708   0.444   2.158  0.1816 -0.0458 -0.3352
   25MOL   C15617484   5.597   0.417   2.261  0.0573 -0.3153 -0.1400
   25MOL   C15717485   5.558   0.271   2.242 -0.7391  0.1306  0.1321
   25MOL   C15817486   5.407   0.246   2.266  0.4491  0.0774  0.1858
   25MOL   C15917487   5.356   0.109   2.209  0.1207  0.3993 -0.2889
   25MOL   C16017488   5.223   0.063   2.262  0.0525 -0.6389 -0.2917
   25MOL   N16117489   5.189   7.818   2.204  0.5541 -0.7529 -0.4688
   25MOL   C16217490   5.723   0.837   2.344  0.2183  0.0286  0.4361
   25MOL   C16317491   5.727   0.981   2.374 -0.0117  0.3276  0.3110
   25MOL   H16417492   6.047   1.036   2.284 -0.1479 -0.2060  2.0801
   25MOL   H16517493   6.033   0.802   2.209 -0.3619  0.7934 -1.5198
   25MOL   H16617494   5.687   0.643   2.125 -1.7534 -0.8107  1.8137
   25MOL   H16717495   5.669   0.432   2.057  2.1728  0.3988 -1.1745
   25MOL   H16817496   5.786   0.368   2.163 -1.3323 -1.5405  1.3276
   25MOL   H16917497   5.514   0.488   2.265  0.8737  0.6132  0.9484
   25MOL   H17017498   5.645   0.417   2.359 -1.2150  1.6292  0.5326
   25MOL   H17117499   5.592   0.221   2.151 -2.0494 -0.1994 -0.1893
   25MOL   H17217500   5.611   0.203   2.309 -1.2389 -0.8408 -0.4466
   25MOL   H17317501   5.339   0.321   2.226 -2.1165 -0.6326  2.9812
   25MOL   H17417502   5.398   0.252   2.375  3.5145  0.6320  0.4574
   25MOL   H17517503   5.428   0.028   2.222  0.6448  1.2919  2.6098
   25MOL   H17617504   5.353   0.125   2.101  1.9855 -1.2433 -0.6236
   25MOL   H17717505   5.239   0.057   2.370 -1.4212 -1.2888 -0.0934
   25MOL   H17817506   5.141   0.132   2.241 -0.6883  0.2039  4.7841
   25MOL   H17917507   5.211   7.799   2.107 -1.7678  0.4388 -1.2707
   25MOL   H18017508   5.629   0.793   2.376  0.0703  0.3004  0.3749
   25MOL   H18117509   5.641   1.034   2.412  0.6731  1.0963  0.7956
   25MOL   C18217510   5.093   7.742   2.263  0.6549  0.3275  0.1432
   25MOL   O18317511   5.040   7.764   2.370 -0.1854 -0.4844  0.3035
   25MOL   C18417512   5.030   7.636   2.173 -0.0166  0.3673 -0.2809
   25MOL   C18517513   4.892   7.614   2.178 -0.3182  0.2271  0.2817
   25MOL   C18617514   4.837   7.518   2.083 -0.2889  0.2421 -0.5216
   25MOL   C18717515   4.920   7.452   1.990 -0.2811  0.5169 -0.1479
   25MOL   C18817516   4.854   7.356   1.903 -0.5433  0.2425 -0.6050
   25MOL   O18917517   4.793   7.391   1.798 -0.2772  0.1450  0.4331
   25MOL   N19017518   4.865   7.234   1.943  0.3403  0.3706  0.2781
   25MOL   C19117519   4.793   7.123   1.889  0.2969  0.0258  0.0424
   25MOL   C19217520   4.887   7.000   1.871  0.3792 -0.1866  0.5335
   25MOL   C19317521   4.984   7.018   1.752 -0.2987 -0.1759 -0.4810
   25MOL   C19417522   5.107   6.911   1.750  0.0077 -0.3435 -0.2262
   25MOL   C19517523   5.066   6.775   1.692 -0.5134 -0.6295 -0.3338
   25MOL   C19617524   5.196   6.696   1.680  0.5727  0.6503  0.1964
   25MOL   N19717525   5.164   6.561   1.633  0.2030  0.1238 -0.4628
   25MOL   C19817526   5.058   7.475   1.993  0.1293 -0.0739  0.9813
   25MOL   C19917527   5.120   7.562   2.088 -0.3111  0.2854  0.2282
   25MOL   H20017528   4.817   7.675   2.226  1.9259  1.7754  1.8911
   25MOL   H20117529   4.732   7.496   2.086  0.2512 -2.3435  0.3884
   25MOL   H20217530   4.908   7.223   2.034 -1.8089 -3.1910  0.9589
   25MOL   H20317531   4.709   7.091   1.949  1.9497 -3.5113  0.6040
   25MOL   H20417532   4.759   7.150   1.789  0.1401  1.9185  0.5830
   25MOL   H20517533   4.826   6.909   1.863 -0.3396  0.4041 -0.9746
   25MOL   H20617534   4.956   6.988   1.954 -0.6331  0.0200  1.4109
   25MOL   H20717535   4.926   7.010   1.660 -0.5638  2.2865 -0.5478
   25MOL   H20817536   5.027   7.117   1.751  1.4319 -0.9197 -1.2170
   25MOL   H20917537   5.145   6.893   1.850  1.5846 -0.3573 -0.8165
   25MOL   H21017538   5.190   6.952   1.692 -1.7133  0.9894 -1.8261
   25MOL   H21117539   5.012   6.790   1.599 -0.0966  0.7159 -0.3620
   25MOL   H21217540   4.996   6.729   1.762  1.6894 -4.3164 -0.3993
   25MOL   H21317541   5.279   6.738   1.623 -0.2337  1.1241 -0.6347
   25MOL   H21417542   5.249   6.681   1.774  3.0629 -0.5769 -1.3254
   25MOL   H21517543   5.066   6.540   1.629  0.1376  0.5309 -1.1511
   25MOL   H21617544   5.124   7.424   1.924 -1.4055 -0.7302 -0.0340
   25MOL   H21717545   5.228   7.571   2.092 -0.4883  1.9183  2.4752
   25MOL   C21817546   5.250   6.460   1.616  0.4473  0.1716 -0.5283
   25MOL   O21917547   5.373   6.485   1.622 -0.3532 -0.1793 -0.1973
   25MOL   C22017548   5.205   6.320   1.598  0.2138 -0.9727  0.7626
   25MOL   C22117549   5.282   6.214   1.648  0.0293 -0.1820  0.5303
   25MOL   C22217550   5.239   6.079   1.640  0.7975 -0.2342 -0.4752
   25MOL   C22317551   5.117   6.049   1.570  0.2940 -0.5057  0.0205
   25MOL   C22417552   5.053   5.915   1.577  0.0506 -0.0018  0.1724
   25MOL   O22517553   4.989   5.878   1.483  0.7614 -0.1701 -0.4419
   25MOL   N22617554   5.079   5.837   1.680 -1.0964 -0.0109  0.3197
   25MOL   C22717555   5.028   5.701   1.701  0.3242  0.3130 -0.4162
   25MOL   C22817556   5.115   5.626   1.799  0.1881 -0.4378 -0.3129
   25MOL   C22917557   5.036   5.521   1.881  0.1179 -0.6248 -0.5523
   25MOL   C23017558   5.111   5.459   2.002 -0.4898  0.4377 -0.7058
   25MOL   C23117559   5.153   5.560   2.109 -0.5456 -0.2970 -0.4080
   25MOL   C23217560   5.201   5.499   2.244 -0.3799 -0.1594  0.0188
   25MOL   N23317561   5.262   5.593   2.333  0.0012 -0.2338  0.5586
   25MOL   C23417562   5.053   6.155   1.504  0.1058  0.2982  0.7282
   25MOL   C23517563   5.085   6.289   1.525  0.0209 -0.2229 -0.9395
   25MOL   H23617564   5.363   6.239   1.714  1.0274  0.2019 -0.8305
   25MOL   H23717565   5.303   6.003   1.682  0.1188 -0.1537  0.7209
   25MOL   H23817566   5.145   5.866   1.750 -2.7264 -0.7786  2.2280
   25MOL   H23917567   4.929   5.717   1.743  0.1796 -0.0420 -0.6165
   25MOL   H24017568   5.012   5.649   1.606 -0.9884 -1.4432  0.7338
   25MOL   H24117569   5.149   5.693   1.878 -2.6294 -0.8474  1.3233
   25MOL   H24217570   5.197   5.590   1.737  0.1903  1.6934 -1.6012
   25MOL   H24317571   4.950   5.566   1.928  0.2521 -1.1584  0.2170
   25MOL   H24417572   5.024   5.445   1.803  0.5638  0.0849 -1.3165
   25MOL   H24517573   5.198   5.404   1.967 -0.9536 -0.2299 -0.8251
   25MOL   H24617574   5.044   5.382   2.041  1.7911 -0.8261  0.8684
   25MOL   H24717575   5.071   5.626   2.136  0.6564  1.6669 -1.4269
   25MOL   H24817576   5.240   5.612   2.069 -0.3141 -0.2944  0.0970
   25MOL   H24917577   5.113   5.454   2.289 -0.9114  0.5974 -0.2601
   25MOL   H25017578   5.271   5.420   2.215  0.1575  0.1570  0.4388
   25MOL   H25117579   5.234   5.690   2.325  1.3536 -0.0678 -2.9356
   25MOL   H25217580   4.962   6.120   1.458 -0.3887  1.7125  0.5911
   25MOL   H25317581   5.032   6.368   1.473 -1.2314 -0.0564  0.5172
   25MOL   C25417582   5.354   5.559   2.422  0.2957 -0.3494 -0.4835
   25MOL   O25517583   5.390   5.441   2.443 -0.0249 -0.4718  0.4133
   25MOL   C25617584   5.401   5.665   2.520  0.4785 -0.2783 -0.4549
   25MOL   C25717585   5.392   5.802   2.483  1.0051  0.1913 -0.3918
   25MOL   C25817586   5.437   5.903   2.573 -0.6212 -0.0278  0.0378
   25MOL   C25917587   5.480   5.868   2.702 -0.5316 -0.3706 -0.2826
   25MOL   C26017588   5.521   5.978   2.798 -0.2870 -0.0296 -0.0911
   25MOL   O26117589   5.471   5.986   2.914 -0.3297 -0.2429 -0.9179
   25MOL   N26217590   5.612   6.063   2.747  0.0587 -0.0077 -0.1284
   25MOL   C26317591   5.653   6.181   2.812 -0.2131 -0.2453  0.0448
   25MOL   C26417592   5.802   6.209   2.760 -0.3456  0.3596 -0.1357
   25MOL   C26517593   5.853   6.347   2.813  0.1667  1.1875 -0.1707
   25MOL   C26617594   5.895   6.339   2.961  0.2067  0.4684 -0.2819
   25MOL   C26717595   6.038   6.296   2.984  0.7045  0.4463  0.3678
   25MOL   C26817596   6.084   6.300   3.130  0.6584  0.2041  0.4040
   25MOL   N26917597   6.210   6.237   3.155  0.1417  0.7554  0.0796
   25MOL   C27017598   5.490   5.733   2.737 -0.0883 -0.0480  0.6290
   25MOL   C27117599   5.445   5.633   2.648  0.1121 -0.1091 -0.4634
   25MOL   H27217600   5.366   5.832   2.382 -1.6742 -0.4307  0.0802
   25MOL   H27317601   5.443   6.006   2.541 -2.4194  1.3958  3.9167
   25MOL   H27417602   5.648   6.050   2.654  0.1305 -0.8063  0.0104
   25MOL   H27517603   5.581   6.257   2.781  1.2744  0.5254 -1.6134
   25MOL   H27617604   5.646   6.173   2.921  2.1019  0.4931  0.2896
   25MOL   H27717605   5.801   6.202   2.651 -2.2038  0.5514 -0.1523
   25MOL   H27817606   5.858   6.126   2.803 -0.8481 -0.3631 -0.8619
   25MOL   H27917607   5.939   6.384   2.758  1.9230 -0.3671  1.4518
   25MOL   H28017608   5.773   6.420   2.798 -0.3876  0.3825 -1.1968
   25MOL   H28117609   5.822   6.279   3.016  0.0471  0.8168 -0.1115
   25MOL   H28217610   5.890   6.442   2.996  3.5640  0.8117 -0.5815
   25MOL   H28317611   6.107   6.355   2.924  2.4018 -0.5553  1.2873
   25MOL   H28417612   6.056   6.201   2.933 -0.0912  0.5606 -0.1497
   25MOL   H28517613   6.091   6.406   3.156 -2.2812 -0.0431  2.4200
   25MOL   H28617614   6.011   6.257   3.198  0.5216  2.5407  1.7941
   25MOL   H28717615   6.285   6.303   3.168  1.0709 -0.5511  1.5525
   25MOL   H28817616   5.536   5.703   2.831 -0.3244 -3.6933 -0.3449
   25MOL   H28917617   5.474   5.531   2.667  0.4429  0.0461 -0.1316
   25MOL   C29017618   6.236   6.111   3.167  0.8794 -0.0135  0.3193
   25MOL   O29117619   6.148   6.025   3.172  0.1418  0.8830  0.6878
   25MOL   C29217620   6.379   6.069   3.175 -0.5451  0.3869  0.1883
   25MOL   C29317621   6.480   6.152   3.230  0.2508  0.4312 -0.4439
   25MOL   C29417622   6.617   6.103   3.242 -0.3978  0.8031  0.5309
   25MOL   C29517623   6.651   5.975   3.190 -0.0355 -0.3813  0.7794
   25MOL   C29617624   6.796   5.931   3.179 -0.0194  0.2478  0.5427
   25MOL   O29717625   6.886   5.997   3.226 -0.2340  0.2642  0.0141
   25MOL   N29817626   6.820   5.822   3.104 -0.4973  0.2678  0.1162
   25MOL   C29917627   6.952   5.777   3.063  0.8803  0.1927 -0.1951
   25MOL   C30017628   6.942   5.639   2.995  0.4600  0.3637  0.7963
   25MOL   C30117629   7.073   5.572   2.955  0.0469  0.2636  0.4237
   25MOL   C30217630   7.124   5.499   3.076  0.0523 -0.1446 -1.0562
   25MOL   C30317631   7.245   5.417   3.037 -0.1949  0.3053 -0.1674
   25MOL   C30417632   7.284   5.329   3.159 -0.0387  0.2069 -0.1354
   25MOL   N30517633   7.367   5.409   3.254  0.4522 -0.5803 -0.5105
   25MOL   C30617634   6.548   5.894   3.136  0.0781  0.1764 -0.1727
   25MOL   C30717635   6.413   5.941   3.122  0.9047 -0.1544 -0.0828
   25MOL   H30817636   6.452   6.245   3.277  3.5063  1.9303 -1.3470
   25MOL   H30917637   6.690   6.162   3.295  1.1449 -0.1844 -0.4754
   25MOL   H31017638   6.739   5.768   3.076  0.9140 -1.1610 -1.3315
   25MOL   H31117639   6.992   5.843   2.986 -0.0590 -1.2722 -1.9798
   25MOL   H31217640   7.024   5.774   3.145  0.0216  1.1988  0.6126
   25MOL   H31317641   6.885   5.660   2.905  2.6876 -0.3351 -0.8208
   25MOL   H31417642   6.888   5.568   3.058  1.7833 -0.7129  0.7440
   25MOL   H31517643   7.046   5.498   2.879  0.4970  2.4191 -1.9048
   25MOL   H31617644   7.139   5.645   2.908 -0.6681  0.3932 -0.3914
   25MOL   H31717645   7.049   5.438   3.128  0.0232  1.0208  0.3087
   25MOL   H31817646   7.153   5.570   3.154  1.1233 -2.2643  0.5461
   25MOL   H31917647   7.325   5.485   3.009  0.2295 -0.1662 -0.0984
   25MOL   H32017648   7.228   5.352   2.952 -0.8244  0.3374 -0.0683
   25MOL   H32117649   7.200   5.285   3.213  0.5210 -1.6756 -0.7700
   25MOL   H32217650   7.336   5.244   3.116 -1.9927 -0.9218 -0.3306
   25MOL   H32317651   7.343   5.403   3.352 -0.8684 -0.2718 -0.8090
   25MOL   H32417652   6.588   5.805   3.090  2.3796  1.1845 -0.1914
   25MOL   H32517653   6.334   5.881   3.079  1.0697 -0.5766  0.1922
   25MOL   C32617654   7.485   5.469   3.232  0.4115 -0.2690  0.6272
   25MOL   O32717655   7.545   5.459   3.125  0.1851 -0.7604  0.4783
   25MOL   C32817656   7.551   5.539   3.350 -0.1544 -0.0228 -0.2412
   25MOL   C32917657   7.693   5.528   3.365  0.6378  0.6427  0.0754
   25MOL   C33017658   7.760   5.594   3.468 -0.1324 -0.3804  0.4567
   25MOL   C33117659   7.696   5.674   3.564  0.2457  0.2954 -0.4612
   25MOL   C33217660   7.781   5.745   3.665  0.4920  0.2342 -0.2602
   25MOL   O33317661   0.009   5.714   3.699 -0.1357  0.0622 -0.1185
   25MOL   N33417662   7.720   5.853   3.721  0.2141  0.1752  0.3515
   25MOL   C33517663   7.789   5.945   3.818  0.4320  0.2065 -0.3900
   25MOL   C33617664   7.689   6.021   3.906 -0.2523 -0.0401  0.0302
   25MOL   C33717665   7.592   5.929   3.979 -0.0917  0.4767  0.0237
   25MOL   C33817666   7.482   6.015   4.054  0.0875  0.4693  0.0302
   25MOL   C33917667   7.357   6.037   3.965  0.4373 -0.4798 -0.0618
   25MOL   C34017668   7.228   6.094   4.042 -0.8081  0.1395  0.1988
   25MOL   N34117669   7.130   6.138   3.946  0.5272 -0.4741  0.1822
   25MOL   C34217670   7.558   5.686   3.550  0.0851 -0.0902  0.7551
   25MOL   C34317671   7.482   5.617   3.446  0.2008 -0.2500  1.1475
   25MOL   H34417672   7.751   5.472   3.294  0.5070  0.6434 -0.0316
   25MOL   H34517673   7.866   5.578   3.473  0.2614  2.1650  1.4931
   25MOL   H34617674   7.630   5.882   3.687 -0.0438 -1.2024 -0.1537
   25MOL   H34717675   7.849   5.871   3.870  0.1305 -0.5430 -1.0903
   25MOL   H34817676   7.865   6.014   3.780  1.1589 -0.3443  0.0505
   25MOL   H34917677   7.630   6.092   3.849 -1.7114 -0.6999  0.6736
   25MOL   H35017678   7.751   6.075   3.978 -0.6629 -0.5568  0.7927
   25MOL   H35117679   7.547   5.859   3.909 -1.4573  0.3784  0.9711
   25MOL   H35217680   7.633   5.871   4.061 -0.7597  1.5153  1.1155
   25MOL   H35317681   7.521   6.109   4.093 -0.0058 -0.3012  2.0518
   25MOL   H35417682   7.452   5.958   4.143  1.0358 -0.3991 -0.2047
   25MOL   H35517683   7.330   5.938   3.929 -1.1130 -0.0748 -0.0475
   25MOL   H35617684   7.383   6.091   3.874  0.9021 -0.9415 -0.2069
   25MOL   H35717685   7.188   6.029   4.120  0.3309 -2.1527 -1.0493
   25MOL   H35817686   7.258   6.181   4.101 -0.5814  0.2892 -0.1389
   25MOL   H35917687   7.147   6.234   3.920 -0.2772  0.1363  1.8020
   25MOL   H36017688   7.505   5.738   3.629 -0.3535  0.3786  0.1625
   25MOL   H36117689   7.375   5.610   3.436 -0.0435  1.7961  2.1369
   25MOL   C36217690   7.016   6.076   3.918 -0.6426  0.4251  0.1642
   25MOL   O36317691   6.982   5.974   3.979 -0.3558  0.1269  0.7045
   25MOL   C36417692   6.929   6.139   3.814  0.3898 -0.2907  0.7863
   25MOL   C36517693   6.838   6.058   3.741  0.3471 -0.0538 -0.0971
   25MOL   C36617694   6.740   6.111   3.661  0.3523  0.1534  0.2663
   25MOL   C36717695   6.725   6.251   3.647 -0.3608  0.0182  1.0718
   25MOL   C36817696   6.631   6.304   3.548  0.2135 -0.3384  1.2517
   25MOL   O36917697   6.524   6.251   3.516 -0.0359 -0.6784  0.2215
   25MOL   N37017698   6.679   6.406   3.473 -0.4753  0.5386  0.4006
   25MOL   C37117699   6.629   6.461   3.346  0.5274  0.0368 -0.7469
   25MOL   C37217700   6.698   6.595   3.317  0.9891  0.4649  0.8427
   25MOL   C37317701   6.645   6.717   3.396  0.8111 -0.0125 -0.0560
   25MOL   C37417702   6.693   6.859   3.357  0.2376 -0.1547 -0.1851
   25MOL   C37517703   6.588   6.965   3.378  0.2365  0.0921 -0.2474
   25MOL   C37617704   6.631   7.102   3.339 -0.1125  0.3511  0.8572
   25MOL   N37717705   6.520   7.203   3.333 -0.3614  0.1313  0.0644
   25MOL   C37817706   6.822   6.334   3.710 -0.3679 -0.2926 -0.1211
   25MOL   C37917707   6.918   6.278   3.798  0.2735 -0.1888  0.2221
   25MOL   H38017708   6.843   5.951   3.749  0.0155 -0.3418 -3.1926
   25MOL   H38117709   6.680   6.038   3.608  0.7480  0.6501 -0.8938
   25MOL   H38217710   6.765   6.449   3.504 -0.0906  1.9550 -2.4437
   25MOL   H38317711   6.677   6.388   3.280  1.0127  0.5785 -0.9993
   25MOL   H38417712   6.521   6.463   3.337  0.2789  1.9059  1.9634
   25MOL   H38517713   6.696   6.610   3.209  4.0340 -3.8902  0.0343
   25MOL   H38617714   6.805   6.592   3.337  1.3650 -0.8173 -1.2171
   25MOL   H38717715   6.537   6.716   3.381  0.9669 -0.8468 -1.1663
   25MOL   H38817716   6.671   6.701   3.501 -1.8647 -1.5843  0.4002
   25MOL   H38917717   6.718   6.864   3.251  0.2240 -1.2270 -0.2505
   25MOL   H39017718   6.791   6.889   3.395 -0.8359  1.6924  1.1919
   25MOL   H39117719   6.549   6.965   3.480  2.9286  1.4733  0.8197
   25MOL   H39217720   6.499   6.951   3.316  1.4958  4.3705 -3.2285
   25MOL   H39317721   6.689   7.142   3.422  1.7184 -1.2013  0.3549
   25MOL   H39417722   6.692   7.101   3.248  0.1518  3.2922  0.9560
   25MOL   H39517723   6.441   7.167   3.384 -0.7585 -0.0171 -0.6585
   25MOL   H39617724   6.820   6.442   3.699  0.2959 -0.4596 -1.9862
   25MOL   H39717725   6.977   6.342   3.862  2.2270 -0.0893 -1.5870
   25MOL   C39817726   6.532   7.322   3.290  0.2350 -0.0240  0.1047
   25MOL   O39917727   6.634   7.360   3.234 -0.3110  0.0697  0.3623
   25MOL   C40017728   6.426   7.424   3.329  0.3535 -0.2002  0.4410
   25MOL   C40117729   6.304   7.378   3.387 -0.0319  0.5635  0.1357
   25MOL   C40217730   6.204   7.466   3.430 -0.3185  0.1911  0.5388
   25MOL   C40317731   6.221   7.603   3.399 -0.0387  0.1511  0.3984
   25MOL   C40417732   6.114   7.697   3.446 -0.6621  0.4574 -0.3509
   25MOL   O40517733   6.069   7.778   3.365 -0.0113  0.1262  0.4939
   25MOL   N40617734   6.088   7.682   3.575 -0.7897  0.1187 -0.4561
   25MOL   C40717735   5.985   7.747   3.649 -0.2017  0.0616  0.1691
   25MOL   C40817736   5.845   7.684   3.618  0.4168 -0.6956  0.2800
   25MOL   C40917737   5.765   7.695   3.749 -0.0470  0.1468  0.5130
   25MOL   C41017738   5.628   7.628   3.734 -0.6102 -0.4417  0.3333
   25MOL   C41117739   5.539   7.632   3.859  0.0675 -0.6577 -0.0724
   25MOL   C41217740   5.390   7.610   3.815  0.0673 -0.5471  0.8295
   25MOL   N41317741   5.369   7.488   3.735 -0.5678  0.2325  0.3136
   25MOL   C41417742   6.335   7.652   3.325  0.1379 -0.0217  0.0757
   25MOL   C41517743   6.437   7.561   3.298  0.1449  0.0021 -0.1713
   25MOL   H41617744   6.280   7.276   3.412  1.0179  0.3158  0.1668
   25MOL   H41717745   6.129   7.427   3.497  0.4197 -0.4712  1.0034
   25MOL   H41817746   6.160   7.642   3.634  0.2633  2.2362 -0.2542
   25MOL   H41917747   6.015   7.734   3.753  2.7178 -2.6255 -0.9295
   25MOL   H42017748   5.982   7.854   3.629  0.4349  0.5003  2.3282
   25MOL   H42117749   5.844   7.579   3.588  0.5584 -0.5476 -0.2336
   25MOL   H42217750   5.804   7.738   3.533  2.6388 -0.5760 -0.7571
   25MOL   H42317751   5.816   7.636   3.825  1.2988 -1.9500 -1.9258
   25MOL   H42417752   5.753   7.800   3.773  1.7049  0.2274  1.1415
   25MOL   H42517753   5.653   7.523   3.716 -1.1761 -0.3377 -1.1448
   25MOL   H42617754   5.569   7.661   3.649 -1.5905 -2.0372  0.3715
   25MOL   H42717755   5.558   7.728   3.908  0.5816 -1.2236  0.8678
   25MOL   H42817756   5.553   7.554   3.934 -0.3599 -0.9706 -0.3236
   25MOL   H42917757   5.323   7.609   3.902 -1.7814 -0.1680 -0.5556
   25MOL   H43017758   5.346   7.688   3.754 -4.0143 -0.9958  3.0106
   25MOL   H43117759   5.377   7.500   3.635  0.7181 -1.0444  0.2363
   25MOL   H43217760   6.343   7.757   3.301 -0.6819  0.0034 -0.1200
   25MOL   H43317761   6.521   7.601   3.244  0.2443  0.8663  0.6121
   25MOL   C43417762   5.336   7.368   3.788  0.0718  0.8016  0.8028
   25MOL   O43517763   5.304   7.362   3.906  0.4611 -0.1528  0.3105
   25MOL   C43617764   5.337   7.246   3.694 -0.5732  0.0872  0.3247
   25MOL   C43717765   5.226   7.161   3.691  0.2460 -0.4852 -0.3522
   25MOL   C43817766   5.231   7.045   3.610  0.6821 -0.6251 -0.3506
   25MOL   C43917767   5.341   7.022   3.525 -0.5089 -0.2225  0.6425
   25MOL   C44017768   5.341   6.913   3.416 -0.3460 -0.3435 -0.0956
   25MOL   O44117769   5.439   6.881   3.350 -0.3173  0.0268  0.0228
   25MOL   N44217770   5.219   6.866   3.387 -0.6753 -0.3742 -0.4261
   25MOL   C44317771   5.196   6.739   3.326 -0.3669  0.3604  0.3956
   25MOL   C44417772   5.053   6.714   3.263  0.7112 -0.1564  0.0053
   25MOL   C44517773   5.042   6.574   3.191 -0.2273 -0.1336  0.2963
   25MOL   C44617774   4.900   6.548   3.146  0.7273 -0.2900 -0.4692
   25MOL   C44717775   4.826   6.646   3.053 -0.0198 -0.4217 -0.2937
   25MOL   C44817776   4.682   6.609   3.018  0.9768  0.3520 -0.1228
   25MOL   N44917777   4.671   6.481   2.954  0.2139  0.2529  0.3067
   25MOL   C45017778   5.450   7.116   3.526  0.1976 -0.1888  0.5656
   25MOL   C45117779   5.451   7.229   3.609 -0.1338 -0.6186  0.3211
   25MOL   H45217780   5.140   7.183   3.752  0.8384  0.4505  0.1656
   25MOL   H45317781   5.151   6.972   3.614 -0.9945  1.0737 -1.8597
   25MOL   H45417782   5.137   6.909   3.427 -0.6557 -2.4746  2.0264
   25MOL   H45517783   5.268   6.704   3.252 -3.1558 -0.0304 -2.2345
   25MOL   H45617784   5.213   6.669   3.408 -0.0458 -0.2363 -0.1701
   25MOL   H45717785   5.044   6.791   3.186  2.5132  0.7362  0.6768
   25MOL   H45817786   4.980   6.704   3.343  0.2432 -0.1749 -0.4240
   25MOL   H45917787   5.110   6.587   3.106  0.2873 -0.0689  0.7151
   25MOL   H46017788   5.086   6.501   3.259  1.7171  1.6589  1.0227
   25MOL   H46117789   4.834   6.530   3.231 -0.2038 -1.2074 -1.3754
   25MOL   H46217790   4.900   6.458   3.084  0.1920 -1.2731  0.9301
   25MOL   H46317791   4.872   6.653   2.955  0.5646  2.9281  0.1636
   25MOL   H46417792   4.833   6.746   3.096 -0.7535 -0.8273  0.7852
   25MOL   H46517793   4.620   6.622   3.107  2.1543  1.4288  0.5538
   25MOL   H46617794   4.642   6.687   2.953 -1.4591  1.8663  2.9909
   25MOL   H46717795   4.752   6.463   2.896 -0.5974 -0.0141 -0.7735
   25MOL   H46817796   5.531   7.098   3.457 -0.6233  0.2880 -0.5462
   25MOL   H46917797   5.531   7.302   3.613 -1.6363  1.0740  0.5018
   25MOL   C47017798   4.557   6.415   2.944  1.1109  0.2229 -0.0705
   25MOL   O47117799   4.452   6.439   2.999  0.8135 -0.1793 -0.2107
   25MOL   C47217800   4.556   6.282   2.869  0.2343 -0.4316  0.1997
   25MOL   C47317801   4.669   6.198   2.870  0.3956  0.2671 -0.6427
   25MOL   C47417802   4.669   6.071   2.798 -0.3009  0.1897 -0.7724
   25MOL   C47517803   4.553   6.015   2.752  0.2679  0.1730  0.2058
   25MOL   C47617804   4.540   5.879   2.709  0.4307  0.5254 -0.4875
   25MOL   O47717805   4.570   5.830   2.605  0.2100 -0.2155  0.2160
   25MOL   N47817806   4.508   5.803   2.811 -0.1872  0.3088  0.0298
   25MOL   C47917807   4.452   5.669   2.818  0.4942  0.4924 -0.2505
   25MOL   C48017808   4.302   5.669   2.851 -0.3115  0.0623  0.5644
   25MOL   C48117809   4.244   5.773   2.953 -0.8069  0.3434  0.3409
   25MOL   C48217810   4.327   5.784   3.087  0.3030 -0.0532 -0.3782
   25MOL   C48317811   4.321   5.927   3.144 -0.5010 -0.4578  0.3691
   25MOL   C48417812   4.178   5.963   3.190 -0.0748  0.3770  0.3371
   25MOL   N48517813   4.180   6.090   3.260 -0.7429  0.3635  0.2277
   25MOL   C48617814   4.441   6.100   2.756  0.9853  0.6115 -0.2605
   25MOL   C48717815   4.442   6.227   2.812  0.0575 -0.5937 -0.1463
   25MOL   H48817816   4.763   6.225   2.916  0.1131 -0.2544  0.2624
   25MOL   H48917817   4.753   6.005   2.807 -1.8664 -1.7473 -0.0982
   25MOL   H49017818   4.497   5.855   2.897 -3.5678  2.0545 -1.3627
   25MOL   H49117819   4.485   5.614   2.729  1.9505  1.0500 -0.0616
   25MOL   H49217820   4.502   5.611   2.896 -0.8321 -3.0754 -1.9369
   25MOL   H49317821   4.263   5.570   2.878 -2.2282  0.7566  0.4607
   25MOL   H49417822   4.248   5.677   2.756 -0.8636 -1.4433  0.7378
   25MOL   H49517823   4.241   5.864   2.893 -1.6118  0.2530  0.2426
   25MOL   H49617824   4.138   5.753   2.971 -0.8700 -0.2117 -0.6276
   25MOL   H49717825   4.434   5.772   3.068  0.4368  1.2924 -0.5062
   25MOL   H49817826   4.291   5.699   3.145 -0.4255 -0.4278 -1.3850
   25MOL   H49917827   4.352   6.001   3.069  2.4753  0.4410  2.4040
   25MOL   H50017828   4.394   5.924   3.225 -0.4757 -1.4188  0.3104
   25MOL   H50117829   4.108   5.975   3.108  1.0788 -0.8578 -0.8718
   25MOL   H50217830   4.143   5.895   3.268  0.4331 -0.2511  0.0250
   25MOL   H50317831   4.272   6.119   3.288 -0.8292  1.9867 -1.0804
   25MOL   H50417832   4.342   6.065   2.731  1.5567  0.0747 -1.8962
   25MOL   H50517833   4.352   6.287   2.821  0.9790  0.5934  1.3950
   25MOL   C50617834   4.068   6.162   3.282 -0.7428  0.0176  0.4533
   25MOL   O50717835   3.956   6.119   3.261 -0.2779 -0.0394 -0.4167
   25MOL   C50817836   4.087   6.299   3.321  0.7830  0.0285  0.2046
   25MOL   C50917837   4.181   6.382   3.254  0.4295  0.0167 -0.4644
   25MOL   C51017838   4.185   6.522   3.277 -0.0873 -0.2329  0.5610
   25MOL   C51117839   4.102   6.576   3.377  0.8143  1.0860 -0.2041
   25MOL   C51217840   4.100   6.728   3.392 -0.7198 -1.1311  0.6242
   25MOL   O51317841   4.189   6.796   3.341  0.0240 -0.1080  0.4381
   25MOL   N51417842   3.999   6.771   3.475  0.4328 -0.7805 -0.0533
   25MOL   C51517843   3.970   6.908   3.514  0.0038 -0.6411  0.0780
   25MOL   C51617844   4.073   6.969   3.620  0.6985  0.2646 -0.3523
   25MOL   C51717845   4.033   7.104   3.677 -0.4488  0.9152 -0.2899
   25MOL   C51817846   4.134   7.167   3.771 -0.0140 -0.2657 -0.8958
   25MOL   C51917847   4.155   7.088   3.908 -0.3531  0.8478  0.0384
   25MOL   C52017848   4.224   7.176   4.018  0.1678  0.2392 -0.5215
   25MOL   N52117849   4.230   7.094   4.139 -0.3485 -0.7369  0.0856
   25MOL   C52217850   4.005   6.495   3.443  0.9110  0.1985 -0.3542
   25MOL   C52317851   3.998   6.353   3.414 -0.1255  0.8927  0.0452
   25MOL   H52417852   4.253   6.347   3.181  0.8812  0.6750 -0.3441
   25MOL   H52517853   4.262   6.574   3.222  1.4209 -2.2688  0.6488
   25MOL   H52617854   3.928   6.711   3.515 -0.6731 -0.2254 -1.1465
   25MOL   H52717855   3.988   6.957   3.418  1.1313 -0.4326  0.3944
   25MOL   H52817856   3.869   6.926   3.550 -0.3127 -1.0164 -0.6136
   25MOL   H52917857   4.172   6.977   3.575  0.4564 -0.6357 -1.0512
   25MOL   H53017858   4.074   6.899   3.703  2.0892  1.6552  0.8629
   25MOL   H53117859   4.020   7.178   3.597  0.8432  2.1149  0.5820
   25MOL   H53217860   3.932   7.095   3.716  0.1691 -0.9998  0.8932
   25MOL   H53317861   4.090   7.260   3.807  0.6625 -0.2263 -0.1636
   25MOL   H53417862   4.223   7.177   3.708  1.2346  1.6337  1.1107
   25MOL   H53517863   4.204   6.991   3.905 -2.6221 -0.3287  0.2636
   25MOL   H53617864   4.055   7.083   3.950  0.0341  4.1729  1.5404
   25MOL   H53717865   4.323   7.206   3.983  0.7978  0.3057  1.2581
   25MOL   H53817866   4.175   7.269   4.048  1.9917  0.3897  2.2233
   25MOL   H53917867   4.150   7.099   4.201 -0.0946  0.6944  0.3072
   25MOL   H54017868   3.948   6.538   3.524  1.1674 -2.7705  1.4731
   25MOL   H54117869   3.918   6.297   3.461 -0.7547  1.0008 -0.8910
   25MOL   C54217870   4.330   7.010   4.172 -0.2058 -0.0866  0.0605
   25MOL   O54317871   4.433   7.002   4.109  0.3040  0.8512 -0.8446
   25MOL   C54417872   4.303   6.938   4.304  0.4169  0.0593 -0.0418
   25MOL   C54517873   4.402   6.944   4.404 -0.0052  0.0417 -0.1604
   25MOL   C54617874   4.390   6.868   4.526  0.2099 -0.3177  0.1518
   25MOL   C54717875   4.275   6.792   4.545 -0.3394  0.0478  0.0858
   25MOL   C54817876   4.277   6.701   4.664  1.2636 -0.2297 -0.1843
   25MOL   O54917877   4.195   6.607   4.662 -0.3975  0.1501  0.3260
   25MOL   N55017878   4.354   6.723   4.774 -0.1323  0.0958 -0.3972
   25MOL   C55117879   4.362   6.650   4.897  0.6319 -0.6684 -0.4204
   25MOL   C55217880   4.283   6.718   5.013 -0.3421  0.2149  0.7780
   25MOL   C55317881   4.318   6.862   5.043  0.0372  0.7809 -0.1789
   25MOL   C55417882   4.258   6.912   5.179  0.1670  0.3674 -0.0879
   25MOL   C55517883   4.326   7.038   5.236 -0.2953  0.1870 -0.8018
   25MOL   C55617884   4.223   7.142   5.284  0.3135 -0.0988  0.1035
   25MOL   N55717885   4.302   7.258   5.331  0.4571  0.5372 -0.2380
   25MOL   C55817886   4.174   6.791   4.448  0.0094 -0.3594 -0.6546
   25MOL   C55917887   4.189   6.866   4.327 -0.0552  0.0324 -0.2734
   25MOL   H56017888   4.485   7.007   4.376 -1.3990  1.7549 -0.5215
   25MOL   H56117889   4.474   6.853   4.593  0.8801  0.3744 -0.5318
   25MOL   H56217890   4.421   6.799   4.771  0.5573 -0.4611  0.6854
   25MOL   H56317891   4.322   6.549   4.895  1.2104 -0.9429  1.5109
   25MOL   H56417892   4.470   6.644   4.910  0.2737 -1.0889  2.5223
   25MOL   H56517893   4.313   6.666   5.103 -0.4528 -1.4298 -0.1065
   25MOL   H56617894   4.177   6.695   5.006 -0.0369 -1.2471  0.7632
   25MOL   H56717895   4.425   6.872   5.060  0.4846 -1.6369 -1.3288
   25MOL   H56817896   4.291   6.939   4.971  0.7126  1.9964  0.8281
   25MOL   H56917897   4.255   6.836   5.257  0.2226 -0.2590 -0.6851
   25MOL   H57017898   4.153   6.923   5.154 -0.0057  2.9965  1.5867
   25MOL   H57117899   4.398   7.085   5.169  1.1561 -4.5125 -2.7689
   25MOL   H57217900   4.389   7.007   5.319 -0.8440 -0.0671 -0.4750
   25MOL   H57317901   4.140   7.167   5.218  0.6014 -0.7665 -0.5202
   25MOL   H57417902   4.169   7.109   5.373  1.9627  1.6541  1.7775
   25MOL   H57517903   4.394   7.249   5.371 -0.1695 -0.3492  1.0701
   25MOL   H57617904   4.082   6.736   4.465  0.1619  0.0387  1.6216
   25MOL   H57717905   4.115   6.862   4.249 -0.6331 -0.9992  0.3214
   25MOL   C57817906   4.248   7.375   5.350 -0.1836 -0.3958 -0.0224
   25MOL   O57917907   4.130   7.401   5.327 -0.0306  0.0070 -0.0526
   25MOL   C58017908   4.342   7.480   5.409  0.1097  0.6359  0.1095
   25MOL   C58117909   4.288   7.585   5.483 -0.3062  0.5665 -1.0360
   25MOL   C58217910   4.373   7.685   5.536 -0.6242  0.1812  0.0951
   25MOL   C58317911   4.506   7.695   5.498 -0.3256 -0.2480  0.1822
   25MOL   C58417912   4.593   7.813   5.530  0.9798 -0.2940 -0.1920
   25MOL   O58517913   4.618   7.850   5.642 -0.2010 -0.1482 -0.5099
   25MOL   N58617914   4.641   7.879   5.420  0.0763  0.0234  0.0802
   25MOL   C58717915   4.743   0.104   5.425 -0.3794 -0.2205  0.2487
   25MOL   C58817916   4.681   0.248   5.418 -0.2869  0.0096 -0.7153
   25MOL   C58917917   4.782   0.364   5.453 -0.4800 -0.0320  0.5675
   25MOL   C59017918   4.882   0.399   5.339 -0.3269  0.5564 -0.1217
   25MOL   C59117919   4.828   0.460   5.216  0.0101 -0.0349  0.0856
   25MOL   C59217920   4.936   0.516   5.123 -0.6724  0.4146 -0.6740
   25MOL   N59317921   5.016   0.414   5.059 -0.0172  0.2354  0.1594
   25MOL   C59417922   4.557   7.589   5.420  0.4250 -0.2332  0.2322
   25MOL   C59517923   4.483   7.478   5.375 -0.0899  0.1468 -0.0541
   25MOL   H59617924   4.184   7.598   5.508  0.1090  1.7041  0.2193
   25MOL   H59717925   4.330   7.765   5.594  0.8504  0.8610  0.2793
   25MOL   H59817926   4.621   7.841   5.329 -1.8418 -1.4925  1.0819
   25MOL   H59917927   4.796   0.085   5.518  1.2561 -1.4358 -0.8885
   25MOL   H60017928   4.817   0.084   5.347  0.9906  0.2843  1.4126
   25MOL   H60117929   4.597   0.253   5.486  1.0697  2.5134  0.8264
   25MOL   H60217930   4.622   0.265   5.328 -1.3447 -2.3226 -0.4977
   25MOL   H60317931   4.729   0.456   5.479 -1.0938 -0.7771  2.0018
   25MOL   H60417932   4.838   0.331   5.541  0.1560  1.1459  0.6211
   25MOL   H60517933   4.942   0.310   5.323  0.6449  1.2360 -0.3069
   25MOL   H60617934   4.956   0.463   5.387  0.9899 -1.6980  0.9021
   25MOL   H60717935   4.765   0.544   5.247  1.8749  0.5387  2.5429
   25MOL   H60817936   4.779   0.382   5.158  1.1302 -0.5544 -0.1642
   25MOL   H60917937   4.877   0.565   5.045 -1.6332 -3.2295 -2.3558
   25MOL   H61017938   4.998   0.594   5.168  0.7992 -1.8060  1.2422
   25MOL   H61117939   5.083   0.361   5.113  0.2010  1.6269  1.2533
   25MOL   H61217940   4.654   7.588   5.371 -0.7494 -0.7164 -2.1430
   25MOL   H61317941   4.525   7.409   5.303 -0.3138 -1.9763  1.8046
   25MOL   C61417942   5.023   0.384   4.930  0.2079 -0.5181  0.3153
   25MOL   O61517943   4.966   0.452   4.842  0.0622  0.5586 -0.2148
   25MOL   C61617944   5.094   0.255   4.903 -0.2094  0.5087  0.1915
   25MOL   C61717945   5.188   0.256   4.795 -0.0834  0.8091  0.6401
   25MOL   C61817946   5.255   0.127   4.766  0.3376  0.0812 -0.1290
   25MOL   C61917947   5.222   0.010   4.833  0.2987  0.1736  0.2975
   25MOL   C62017948   5.307   7.774   4.812 -0.4230 -0.6727  0.6534
   25MOL   O62117949   5.393   7.764   4.725  0.0843  0.1452  0.5982
   25MOL   N62217950   5.295   7.679   4.908  0.1566  0.1063 -0.4468
   25MOL   C62317951   5.365   7.557   4.936  0.9450 -0.4546  0.1972
   25MOL   C62417952   5.272   7.457   5.016 -0.4322 -0.0047  0.8141
   25MOL   C62517953   5.231   7.514   5.157  0.2375  0.3081 -0.1428
   25MOL   C62617954   5.096   7.459   5.204 -0.0436 -0.1012  0.2725
   25MOL   C62717955   5.084   7.470   5.360 -0.2108 -0.2749  0.4865
   25MOL   C62817956   4.943   7.421   5.404  0.3142 -0.2788 -0.0201
   25MOL   N62917957   4.924   7.281   5.377 -0.2436 -0.0520  0.1145
   25MOL   C63017958   5.125   0.016   4.934  0.1177 -0.0366  0.0411
   25MOL   C63117959   5.059   0.136   4.961  0.4299  0.3735 -0.8957
   25MOL   H63217960   5.197   0.342   4.731  1.1383 -0.1565 -0.5192
   25MOL   H63317961   5.334   0.118   4.692  2.1600 -0.3125  1.7895
   25MOL   H63417962   5.212   7.693   4.964  0.4871  2.9155 -0.5760
   25MOL   H63517963   5.396   7.518   4.839  0.1032  0.2945 -0.3751
   25MOL   H63617964   5.455   7.587   4.989 -0.5198  4.1650  0.3023
   25MOL   H63717965   5.313   7.357   5.034  0.0510 -0.4426 -2.4141
   25MOL   H63817966   5.189   7.421   4.956  1.1724 -1.0600 -0.8678
   25MOL   H63917967   5.313   7.488   5.225  1.5620 -0.1207 -1.8602
   25MOL   H64017968   5.216   7.622   5.162 -0.2442  0.1289  3.3812
   25MOL   H64117969   5.098   7.351   5.188 -0.3470 -0.0365 -0.2345
   25MOL   H64217970   5.005   7.492   5.154 -0.5359 -1.1839  0.4358
   25MOL   H64317971   5.088   7.577   5.382 -1.4729 -0.1917  0.3566
   25MOL   H64417972   5.161   7.407   5.405  0.7604  0.2730 -0.3625
   25MOL   H64517973   4.921   7.451   5.506  0.5917  1.8715 -0.5573
   25MOL   H64617974   4.861   7.470   5.352 -0.0907  1.8538  2.5060
   25MOL   H64717975   5.012   7.235   5.359 -0.3263  0.5224 -1.9168
   25MOL   H64817976   5.095   7.820   4.997  0.9591  0.7778  1.5287
   25MOL   H64917977   4.987   0.137   5.042  0.9412  0.9203 -0.4403
   25MOL   C65017978   4.811   7.208   5.379 -0.2138 -0.6720 -0.7307
   25MOL   O65117979   4.704   7.256   5.415 -0.2096  0.3580  0.0303
   25MOL   C65217980   4.826   7.060   5.354  0.3079 -0.1739 -0.2691
   25MOL   C65317981   4.954   7.007   5.310  0.2380 -0.2326  0.0593
   25MOL   C65417982   4.965   6.871   5.284  0.3879  0.6294  0.0944
   25MOL   C65517983   4.849   6.790   5.282  0.1323  0.0077  0.0658
   25MOL   C65617984   4.853   6.646   5.239 -0.4346 -0.1665  0.3354
   25MOL   O65717985   4.938   6.603   5.155  0.0157  0.2471 -0.1970
   25MOL   N65817986   4.759   6.574   5.295  0.1637  0.2546 -0.1519
   25MOL   C65917987   4.739   6.437   5.265 -0.3335  0.1399 -0.3773
   25MOL   C66017988   4.603   6.389   5.316  0.1081  0.2141 -0.5735
   25MOL   C66117989   4.586   6.231   5.306 -0.2701  0.2191 -0.0305
   25MOL   C66217990   4.457   6.170   5.374  0.2588 -0.4683  0.1600
   25MOL   C66317991   4.326   6.211   5.311  0.6732 -0.3026 -0.0346
   25MOL   C66417992   4.302   6.202   5.160 -0.3521 -0.3199 -0.4540
   25MOL   N66517993   4.324   6.067   5.116  0.0742 -0.0035 -0.1801
   25MOL   C66617994   4.723   6.847   5.308  0.0747 -0.5558  0.1099
   25MOL   C66717995   4.711   6.977   5.358 -0.9606  0.0140 -0.4674
   25MOL   H66817996   5.045   7.063   5.298 -0.1945  0.2576 -0.9649
   25MOL   H66917997   5.063   6.831   5.261 -0.5242 -1.1200 -0.8626
   25MOL   H67017998   4.720   6.614   5.379  1.2112  0.7255  0.1131
   25MOL   H67117999   4.733   6.426   5.157  2.1276  0.9931 -0.6455
   25MOL   H67218000   4.821   6.380   5.308  0.1896 -0.4876 -2.1829
   25MOL   H67318001   4.519   6.439   5.267 -0.7403  0.2276  0.8573
   25MOL   H67418002   4.605   6.418   5.421 -0.1318 -0.0321 -0.5021
   25MOL   H67518003   4.588   6.198   5.202  1.0966 -0.4274  0.1897
   25MOL   H67618004   4.682   6.193   5.343 -1.0311  0.1263  1.8991
   25MOL   H67718005   4.452   6.197   5.480 -0.7421 -2.8398  0.7566
   25MOL   H67818006   4.473   6.062   5.365  0.5584 -0.5441  1.5502
   25MOL   H67918007   4.305   6.313   5.342 -0.2064 -0.7981  1.0119
   25MOL   H68018008   4.242   6.166   5.364  2.0241 -1.4654  1.1623
   25MOL   H68118009   4.212   6.251   5.122  0.0504  0.4194 -0.4565
   25MOL   H68218010   4.375   6.260   5.103 -0.2321  0.7599  0.7837
   25MOL   H68318011   4.419   6.037   5.101 -0.9471 -3.1381 -0.6344
   25MOL   H68418012   4.632   6.789   5.310 -1.2339  1.4675  0.4660
   25MOL   H68518013   4.614   7.021   5.377 -0.7144 -0.6557  2.6424
   25MOL   C68618014   4.228   5.972   5.119  0.8066 -0.6953  0.7631
   25MOL   O68718015   4.109   5.996   5.132 -0.0965  0.3162 -0.4890
   25MOL   C68818016   4.284   5.836   5.094 -0.6207 -0.2138 -0.0634
   25MOL   C68918017   4.235   5.758   4.991 -0.4417  0.3441  0.2905
   25MOL   C69018018   4.293   5.633   4.973 -0.6369  0.2610 -0.3122
   25MOL   C69118019   4.399   5.582   5.056  0.0747  0.5444  0.4631
   25MOL   C69218020   4.453   5.448   5.033 -0.3318 -0.6174 -0.4960
   25MOL   O69318021   4.427   5.348   5.107  0.1722  0.1568  0.1309
   25MOL   N69418022   4.550   5.451   4.939 -0.9901 -0.3269  0.3166
   25MOL   C69518023   4.611   5.330   4.876 -0.5101  0.5305 -0.4271
   25MOL   C69618024   4.518   5.278   4.767 -0.6870  0.1945  0.3099
   25MOL   C69718025   4.495   5.377   4.659  0.8061 -0.3126 -0.1365
   25MOL   C69818026   4.415   5.326   4.529  0.0245  0.2719 -0.2347
   25MOL   C69918027   4.502   5.263   4.420 -0.3378  0.6940 -0.0646
   25MOL   C70018028   4.575   5.135   4.468  0.8380  0.4307 -0.3929
   25MOL   N70118029   4.643   5.068   4.359  0.0468  0.3890 -0.5523
   25MOL   C70218030   4.433   5.660   5.168  0.1183  0.6034  0.3866
   25MOL   C70318031   4.378   5.787   5.185 -0.4953  0.3435  0.0426
   25MOL   H70418032   4.159   5.804   4.930 -0.7621  1.1846  1.2985
   25MOL   H70518033   4.261   5.577   4.886  0.7305 -1.6399  0.3839
   25MOL   H70618034   4.567   5.546   4.908 -1.7236  0.4785  2.3064
   25MOL   H70718035   4.702   5.367   4.829 -0.3173  0.9443  0.2698
   25MOL   H70818036   4.633   5.260   4.956 -0.6100  2.5587  1.4357
   25MOL   H70918037   4.423   5.242   4.806 -0.4048 -0.6137  0.2651
   25MOL   H71018038   4.558   5.185   4.726  1.4426  0.9143  0.7139
   25MOL   H71118039   4.451   5.464   4.709  0.1998 -1.2785  1.0250
   25MOL   H71218040   4.594   5.410   4.629  0.7181  1.0085  0.9307
   25MOL   H71318041   4.368   5.412   4.482 -0.8460  0.7068  1.4166
   25MOL   H71418042   4.339   5.251   4.551  1.2257 -0.9334 -0.0952
   25MOL   H71518043   4.580   5.331   4.387  0.1078  0.1199 -0.2093
   25MOL   H71618044   4.438   5.252   4.332  0.3830 -0.3784 -0.4653
   25MOL   H71718045   4.648   5.161   4.545  0.8330 -0.5100 -0.0591
   25MOL   H71818046   4.495   5.076   4.514 -0.5556  1.7423 -1.1058
   25MOL   H71918047   4.575   5.019   4.302 -0.4196 -1.5398  1.5537
   25MOL   H72018048   4.510   5.610   5.226 -0.2220 -1.3843 -0.8121
   25MOL   H72118049   4.404   5.845   5.273  1.3333 -0.5582  0.1131
   25MOL   H72218050   4.696   4.993   4.401 -0.3019  0.9873  0.9966
   26MOL     C118051   2.470   3.459   4.296 -0.3557  0.3141  0.3448
   26MOL     O218052   2.370   3.517   4.245  0.0353  0.3953 -0.3348
   26MOL     C318053   2.498   3.314   4.272 -0.5311  0.0016 -0.4017
   26MOL     C418054   2.621   3.267   4.308 -1.0168 -0.6605 -0.0767
   26MOL     C518055   2.645   3.125   4.302 -0.2835 -0.0471  0.0207
   26MOL     C618056   2.546   3.032   4.263 -0.1390 -0.1294 -0.2352
   26MOL     C718057   2.580   2.881   4.247  0.2205 -0.3157  0.2657
   26MOL     O818058   2.495   2.802   4.208 -0.0705  0.4625 -0.1509
   26MOL     N918059   2.703   2.835   4.280  0.1496  0.4740  0.0148
   26MOL    C1018060   2.744   2.693   4.271  0.1972  0.5191  0.2986
   26MOL    C1118061   2.762   2.637   4.415 -0.1999 -0.5478  0.2900
   26MOL    C1218062   2.798   2.493   4.433  0.9209 -0.2179 -0.1202
   26MOL    C1318063   2.831   2.460   4.574 -0.1427  0.2307 -0.0262
   26MOL    C1418064   2.856   2.312   4.579  0.6436 -0.2600  0.4062
   26MOL    C1518065   2.903   2.260   4.713  0.2523 -0.5041 -0.1869
   26MOL    N1618066   3.037   2.307   4.744 -0.4071  0.6117  0.6751
   26MOL    C1718067   2.418   3.084   4.239  0.0240  0.1783  0.7179
   26MOL    C1818068   2.399   3.224   4.250 -0.2851  0.6132 -0.3081
   26MOL    H1918069   2.703   3.327   4.345  0.5764 -3.0979  0.5286
   26MOL    H2018070   2.746   3.092   4.317  0.4100  2.1396  0.3978
   26MOL    H2118071   2.774   2.900   4.311  1.0262 -1.1527  1.4614
   26MOL    H2218072   2.664   2.642   4.219 -1.7423  2.8043  0.9481
   26MOL    H2318073   2.837   2.691   4.215 -0.4757 -3.2908 -0.7820
   26MOL    H2418074   2.676   2.660   4.479  0.0445  2.0188 -0.2517
   26MOL    H2518075   2.845   2.692   4.459 -2.7546  3.6504  0.1068
   26MOL    H2618076   2.725   2.424   4.390  1.8322 -0.1569 -1.8075
   26MOL    H2718077   2.878   2.463   4.366  0.6341  1.4481 -1.2227
   26MOL    H2818078   2.745   2.500   4.626 -2.0357 -0.2865 -2.6708
   26MOL    H2918079   2.921   2.514   4.603  1.0403 -1.6727 -0.0625
   26MOL    H3018080   2.915   2.263   4.501  0.7528 -0.9134  0.8985
   26MOL    H3118081   2.762   2.261   4.559 -0.5491  0.7870  3.1201
   26MOL    H3218082   2.838   2.295   4.793  0.9705  1.0745 -0.2845
   26MOL    H3318083   2.895   2.151   4.716 -0.3945 -0.4378  0.5191
   26MOL    H3418084   3.053   2.406   4.751 -0.6873  0.7990 -1.0583
   26MOL    H3518085   2.338   3.018   4.210 -1.9359  2.4917  0.7158
   26MOL    H3618086   2.300   3.263   4.227 -0.9949 -1.0200 -0.0965
   26MOL    H3718087   2.546   3.508   4.357 -0.1307 -2.1289  2.1219
   26MOL    C3818088   3.125   2.231   4.806  0.3940  0.0033  0.2543
   26MOL    O3918089   3.118   2.111   4.817 -0.3422 -0.1939  0.1142
   26MOL    C4018090   3.239   2.302   4.882  0.2223 -0.4065 -0.1313
   26MOL    C4118091   3.307   2.411   4.821  0.4035  0.4485 -0.1248
   26MOL    C4218092   3.414   2.476   4.875 -0.0162 -0.5238 -0.3185
   26MOL    C4318093   3.471   2.419   4.990  0.5224 -0.5865 -0.0111
   26MOL    C4418094   3.589   2.491   5.058 -0.5161 -0.4303  0.3250
   26MOL    O4518095   3.621   2.466   5.173 -0.2793  0.9015  0.0218
   26MOL    N4618096   3.659   2.580   4.983  0.1595  0.3176 -0.1548
   26MOL    C4718097   3.770   2.662   5.041 -0.5810  0.2026  0.3201
   26MOL    C4818098   3.900   2.658   4.958  0.6015 -0.2741  0.5910
   26MOL    C4918099   3.986   2.540   5.005  0.1593 -0.0297  0.5916
   26MOL    C5018100   4.136   2.549   4.959  0.3688  0.1272 -0.4379
   26MOL    C5118101   4.148   2.525   4.811 -0.4099 -0.2555  0.7402
   26MOL    C5218102   4.291   2.565   4.766 -0.0070  0.2571  0.4402
   26MOL    N5318103   4.295   2.536   4.621  0.2829  0.1397  0.1894
   26MOL    C5418104   3.405   2.316   5.060 -0.0780 -0.2223  0.0789
   26MOL    C5518105   3.291   2.254   5.005  0.9696 -0.0926  0.4791
   26MOL    H5618106   3.272   2.438   4.723 -1.3379  0.0418  0.3689
   26MOL    H5718107   3.467   2.551   4.819 -1.5307  1.3513  0.6608
   26MOL    H5818108   3.612   2.606   4.897 -0.2001  0.8968  0.2104
   26MOL    H5918109   3.732   2.763   5.051 -1.5045  0.0333 -1.2521
   26MOL    H6018110   3.787   2.636   5.145 -1.7992 -0.4020  0.3737
   26MOL    H6118111   3.953   2.750   4.982  1.1392 -0.4537  0.0876
   26MOL    H6218112   3.870   2.671   4.854  0.1009 -2.3959  0.4339
   26MOL    H6318113   4.004   2.555   5.112  1.5225  0.5883  0.2845
   26MOL    H6418114   3.944   2.444   4.976  5.9086 -2.4481 -0.3132
   26MOL    H6518115   4.195   2.472   5.009  2.4547  1.0882 -1.3857
   26MOL    H6618116   4.168   2.649   4.988 -0.0984  0.2349 -0.2973
   26MOL    H6718117   4.080   2.591   4.756  0.4183  0.1037  0.1505
   26MOL    H6818118   4.128   2.420   4.795 -2.8802  0.1347  1.0342
   26MOL    H6918119   4.304   2.670   4.790 -1.7194  0.5391  0.2031
   26MOL    H7018120   4.358   2.494   4.815  1.6400  2.9194  2.1389
   26MOL    H7118121   4.235   2.461   4.590 -0.2618 -0.5088  2.6217
   26MOL    H7218122   3.443   2.279   5.153 -1.3022  0.7687  0.9883
   26MOL    H7318123   3.248   2.169   5.056 -0.3919  2.2298  3.3415
   26MOL    C7418124   4.362   2.616   4.534 -0.4301 -0.9888 -0.0220
   26MOL    O7518125   4.425   2.718   4.561  0.2366 -0.1606  0.2953
   26MOL    C7618126   4.352   2.581   4.388 -0.3459  0.5597 -0.1863
   26MOL    C7718127   4.382   2.672   4.287 -0.3172 -0.8715 -0.2395
   26MOL    C7818128   4.402   2.633   4.153  0.3155 -0.1182 -0.1385
   26MOL    C7918129   4.360   2.505   4.110  0.3213 -0.4520 -0.2257
   26MOL    C8018130   4.367   2.463   3.965 -0.1979 -0.2834  0.3271
   26MOL    O8118131   4.341   2.546   3.873  0.4318  0.8070 -0.2701
   26MOL    N8218132   4.394   2.339   3.940 -0.1670  0.2155 -0.5033
   26MOL    C8318133   4.389   2.278   3.810  0.2095 -0.0469  0.4759
   26MOL    C8418134   4.323   2.136   3.819  0.7637  0.0899  0.1951
   26MOL    C8518135   4.336   2.050   3.690 -0.2806  0.2108 -0.3721
   26MOL    C8618136   4.484   1.997   3.670  0.5227 -0.5644  0.1321
   26MOL    C8718137   4.501   1.905   3.548  0.3831 -0.1071 -0.1660
   26MOL    C8818138   4.655   1.885   3.523  0.3419  0.0511 -0.7525
   26MOL    N8918139   4.689   1.806   3.407  0.2338 -0.5010  0.1947
   26MOL    C9018140   4.321   2.416   4.214  0.3225 -0.3809  0.1278
   26MOL    C9118141   4.320   2.449   4.345 -0.2178 -0.3952 -0.2104
   26MOL    H9218142   4.423   2.767   4.316 -0.7015 -0.8751  0.3274
   26MOL    H9318143   4.441   2.710   4.088 -2.7765  0.7280 -1.0648
   26MOL    H9418144   4.420   2.286   4.022 -1.2170  0.9248  0.3070
   26MOL    H9518145   4.323   2.341   3.750 -0.5444 -0.2217  1.1093
   26MOL    H9618146   4.487   2.270   3.764 -0.7404 -1.7054 -1.3264
   26MOL    H9718147   4.220   2.150   3.850  0.1344  1.7602 -2.4906
   26MOL    H9818148   4.368   2.076   3.897 -0.3168 -0.6478  0.2602
   26MOL    H9918149   4.267   1.967   3.703  2.2092 -1.9520 -0.4708
   26MOL   H10018150   4.296   2.111   3.610  2.5720  1.3933 -0.9827
   26MOL   H10118151   4.525   1.949   3.758  0.0464  0.1273  0.7313
   26MOL   H10218152   4.552   2.081   3.654  0.2246 -0.6313 -1.5752
   26MOL   H10318153   4.448   1.946   3.462 -0.7606 -1.3028 -0.0453
   26MOL   H10418154   4.463   1.808   3.581 -0.8373 -0.3152 -2.1100
   26MOL   H10518155   4.685   1.990   3.516 -0.9636  0.3495 -2.2266
   26MOL   H10618156   4.695   1.836   3.611  0.8084 -1.3157 -1.7146
   26MOL   H10718157   4.639   1.719   3.405 -0.6637 -0.0188  0.8813
   26MOL   H10818158   4.290   2.315   4.188  1.2707 -1.0359  1.5237
   26MOL   H10918159   4.310   2.374   4.422  1.3251  0.4544  0.8371
   26MOL   C11018160   4.769   1.851   3.310  0.3004  0.3468 -0.4140
   26MOL   O11118161   4.826   1.961   3.315 -0.4102  0.3009  0.5842
   26MOL   C11218162   4.773   1.762   3.188 -0.2876  0.0009  0.0363
   26MOL   C11318163   4.768   1.621   3.202 -0.1867  0.2723  0.6954
   26MOL   C11418164   4.776   1.546   3.086 -0.3363 -0.1430  0.3167
   26MOL   C11518165   4.781   1.603   2.964 -0.4143  0.6002 -0.1259
   26MOL   C11618166   4.773   1.519   2.839  0.1374 -0.6401 -0.3504
   26MOL   O11718167   4.851   1.423   2.825 -0.0278  0.5851  0.2305
   26MOL   N11818168   4.676   1.556   2.751 -0.6324 -0.0206 -0.3712
   26MOL   C11918169   4.632   1.505   2.626 -0.4437 -0.2815  0.0498
   26MOL   C12018170   4.589   1.360   2.625  0.6638  0.1399  0.0803
   26MOL   C12118171   4.534   1.312   2.486 -0.4378 -0.0122  0.0201
   26MOL   C12218172   4.640   1.309   2.375  0.0885  0.2140 -0.3447
   26MOL   C12318173   4.577   1.311   2.234  0.1154 -0.5027  0.0777
   26MOL   C12418174   4.665   1.364   2.119  0.6089  0.4644  0.1214
   26MOL   N12518175   4.604   1.363   1.986  0.5304  0.2073  0.1661
   26MOL   C12618176   4.786   1.741   2.952  0.3600  0.8030 -0.1671
   26MOL   C12718177   4.780   1.827   3.060 -1.1004  0.1789 -0.7311
   26MOL   H12818178   4.761   1.571   3.298  1.9951  0.3940  0.9494
   26MOL   H12918179   4.776   1.440   3.109 -0.4118 -0.2232 -0.0350
   26MOL   H13018180   4.615   1.631   2.781  0.2100  0.3812  0.3759
   26MOL   H13118181   4.559   1.571   2.577 -1.4560 -0.6208  1.0839
   26MOL   H13218182   4.724   1.504   2.568 -0.7891  0.2939 -0.5304
   26MOL   H13318183   4.509   1.337   2.696  1.9063 -0.9957  1.1464
   26MOL   H13418184   4.668   1.300   2.670 -2.7472 -2.6854  2.6598
   26MOL   H13518185   4.486   1.214   2.496  0.0719 -0.2637  0.0106
   26MOL   H13618186   4.446   1.369   2.457 -0.5496 -0.4019 -0.4100
   26MOL   H13718187   4.699   1.217   2.380  0.9834  0.7584 -0.7946
   26MOL   H13818188   4.708   1.395   2.376 -0.1224  0.3793  0.4802
   26MOL   H13918189   4.491   1.379   2.244  1.2336  0.6732  2.2117
   26MOL   H14018190   4.539   1.213   2.206  0.2057  0.0682 -2.1065
   26MOL   H14118191   4.711   1.458   2.151 -2.1155  1.8910  0.0373
   26MOL   H14218192   4.744   1.290   2.116 -2.7987 -3.3334  0.1044
   26MOL   H14318193   4.503   1.357   1.984  0.5268  0.4912 -0.4924
   26MOL   H14418194   4.792   1.787   2.854 -0.7020  2.2112  0.4112
   26MOL   H14518195   4.778   1.934   3.050  0.4386  0.2716 -0.2535
   26MOL   C14618196   4.674   1.362   1.872  0.3333  0.0428  0.4865
   26MOL   O14718197   4.801   1.371   1.864 -0.4916  0.1209 -0.5186
   26MOL   C14818198   4.584   1.348   1.755  0.0320  0.4613 -1.1150
   26MOL   C14918199   4.466   1.265   1.764  0.6916 -0.0993 -0.3398
   26MOL   C15018200   4.397   1.246   1.640 -0.0336  0.2377 -0.4711
   26MOL   C15118201   4.432   1.308   1.518  0.6593  0.2089 -0.4429
   26MOL   C15218202   4.354   1.287   1.388  0.3788  0.3621 -1.2055
   26MOL   O15318203   4.376   1.358   1.292  0.4773  0.1262  0.1812
   26MOL   N15418204   4.263   1.191   1.396 -0.0755 -0.2799 -0.0561
   26MOL   C15518205   4.170   1.161   1.293 -0.5547  0.0506  0.3662
   26MOL   C15618206   4.133   1.010   1.278  0.1377 -0.4316  0.4571
   26MOL   C15718207   4.075   0.988   1.143  0.0763  0.8656 -0.0474
   26MOL   C15818208   4.024   0.847   1.100  0.1715 -0.3732 -0.7013
   26MOL   C15918209   3.907   0.804   1.193 -0.1325  0.1994 -0.0491
   26MOL   C16018210   3.774   0.876   1.165  0.3194  0.0626  0.1152
   26MOL   N16118211   3.772   1.013   1.205  0.6498 -1.0962 -0.8602
   26MOL   C16218212   4.541   1.391   1.523 -0.5404 -0.0356  0.1762
   26MOL   C16318213   4.615   1.411   1.636 -0.2050  0.7712  0.9389
   26MOL   H16418214   4.431   1.233   1.860 -0.9227  0.3189 -0.7698
   26MOL   H16518215   4.304   1.191   1.644  0.6828 -0.8953  2.3556
   26MOL   H16618216   4.279   1.114   1.461 -0.6109 -0.6913 -0.4093
   26MOL   H16718217   4.076   1.213   1.308  0.1624  1.6163 -0.4657
   26MOL   H16818218   4.209   1.197   1.198 -0.4879 -0.6269  0.1323
   26MOL   H16918219   4.055   0.979   1.348 -0.9789  0.3777 -0.3990
   26MOL   H17018220   4.216   0.939   1.284  0.4128 -0.1627 -0.1281
   26MOL   H17118221   3.997   1.063   1.125  0.4245  1.6228  1.5622
   26MOL   H17218222   4.151   1.013   1.069  0.8309  0.0986  0.4548
   26MOL   H17318223   4.098   0.767   1.104  0.4229 -0.1675 -1.1485
   26MOL   H17418224   3.996   0.843   0.995  0.5651  0.4379 -0.8434
   26MOL   H17518225   3.931   0.795   1.299 -3.8801 -2.1008  0.6746
   26MOL   H17618226   3.898   0.700   1.162  3.4350  0.1414 -1.0979
   26MOL   H17718227   3.740   0.876   1.062  0.4218  0.0333  0.0820
   26MOL   H17818228   3.699   0.820   1.221  1.2996 -1.3954 -0.0016
   26MOL   H17918229   3.816   1.074   1.139  1.6980  0.3522  1.1277
   26MOL   H18018230   4.566   1.445   1.434 -1.0362 -0.5940 -0.3092
   26MOL   H18118231   4.695   1.483   1.638  0.6940 -0.1115 -1.1330
   26MOL   C18218232   3.719   1.062   1.322 -0.1402 -0.0398  0.3127
   26MOL   O18318233   3.659   0.988   1.403 -0.1327  0.0349 -0.5564
   26MOL   C18418234   3.730   1.211   1.349 -0.5860 -0.5219 -0.3272
   26MOL   C18518235   3.756   1.298   1.246  0.5611  0.0112 -0.1761
   26MOL   C18618236   3.754   1.434   1.252 -0.0875  0.4465  0.2747
   26MOL   C18718237   3.741   1.489   1.385 -0.5250  0.6514  0.2833
   26MOL   C18818238   3.753   1.633   1.410 -0.1367  0.0696  0.0755
   26MOL   O18918239   3.719   1.681   1.523 -0.0793  0.2603 -0.0280
   26MOL   N19018240   3.798   1.714   1.311 -0.7733  0.2839 -0.0783
   26MOL   C19118241   3.830   1.859   1.336  0.4217 -0.0036 -0.0323
   26MOL   C19218242   3.921   1.891   1.465 -0.1443  0.6455  0.1376
   26MOL   C19318243   4.050   1.812   1.445 -0.0013  0.3577 -0.1943
   26MOL   C19418244   4.106   1.750   1.577  0.3162 -0.3264 -0.5371
   26MOL   C19518245   4.253   1.700   1.563 -0.4164 -0.6468  0.0350
   26MOL   C19618246   4.300   1.611   1.685 -0.9136  0.4141 -0.2863
   26MOL   N19718247   4.269   1.682   1.808  0.0110 -0.4016  0.6670
   26MOL   C19818248   3.719   1.403   1.496 -0.4899 -0.0135 -0.3644
   26MOL   C19918249   3.715   1.263   1.479  0.3161 -0.6442  0.6478
   26MOL   H20018250   3.749   1.253   1.148 -0.2982  2.0605 -1.0647
   26MOL   H20118251   3.766   1.497   1.165 -0.8606 -1.4574 -1.2470
   26MOL   H20218252   3.845   1.675   1.230  1.0818  0.5211  0.8575
   26MOL   H20318253   3.875   1.904   1.248 -2.1176  0.1452 -1.2849
   26MOL   H20418254   3.730   1.902   1.343 -0.4813 -1.9920 -0.3594
   26MOL   H20518255   3.859   1.861   1.549 -1.8833 -0.5965 -1.5443
   26MOL   H20618256   3.938   1.998   1.474 -1.2391  1.0311 -2.0705
   26MOL   H20718257   4.044   1.739   1.364  0.8463  0.0268  0.0415
   26MOL   H20818258   4.127   1.884   1.419  0.6750 -0.5528 -0.7530
   26MOL   H20918259   4.045   1.669   1.618  1.5393  0.2925  2.6238
   26MOL   H21018260   4.101   1.823   1.657 -1.1927  1.5562 -2.2679
   26MOL   H21118261   4.332   1.774   1.549  0.9602 -2.2701 -0.9917
   26MOL   H21218262   4.250   1.620   1.489 -0.7673  0.0132 -0.6531
   26MOL   H21318263   4.253   1.513   1.684 -2.3880  1.0955 -0.2062
   26MOL   H21418264   4.408   1.597   1.681 -0.7610  1.8643 -1.8124
   26MOL   H21518265   4.232   1.775   1.801  0.6425 -0.1755  0.2842
   26MOL   H21618266   3.712   1.438   1.598 -1.7740  2.3884 -1.2461
   26MOL   H21718267   3.692   1.206   1.568 -1.8408 -0.6869  0.1001
   26MOL   C21818268   4.288   1.632   1.929 -0.8065  0.2389 -0.4745
   26MOL   O21918269   4.326   1.515   1.955 -0.4924  0.7126 -0.4928
   26MOL   C22018270   4.268   1.727   2.043 -0.0662 -0.2016 -0.1796
   26MOL   C22118271   4.188   1.838   2.018 -0.1563 -0.4082 -0.4590
   26MOL   C22218272   4.172   1.935   2.115  0.1713 -0.4074  0.1680
   26MOL   C22318273   4.220   1.916   2.241 -0.0260  0.1128 -0.3938
   26MOL   C22418274   4.188   2.018   2.352 -0.5528 -0.4740 -0.0381
   26MOL   O22518275   4.097   2.101   2.353  0.3818 -0.3175 -0.0647
   26MOL   N22618276   4.280   2.015   2.452 -0.0637  0.2101 -0.6795
   26MOL   C22718277   4.299   2.116   2.561 -0.3564  0.6604 -0.2591
   26MOL   C22818278   4.410   2.216   2.529 -0.4084 -0.7802  0.1705
   26MOL   C22918279   4.434   2.326   2.639  0.4229 -0.4255 -0.7333
   26MOL   C23018280   4.528   2.428   2.574 -0.1940  0.4554  0.0495
   26MOL   C23118281   4.560   2.534   2.687  0.3395 -0.0267  0.3459
   26MOL   C23218282   4.678   2.631   2.651 -0.6088  0.4576  0.0073
   26MOL   N23318283   4.800   2.563   2.627 -0.1916  0.3856  0.5164
   26MOL   C23418284   4.281   1.791   2.272  0.4923  0.2601 -0.1764
   26MOL   C23518285   4.305   1.700   2.171  0.7009  0.5397  0.1504
   26MOL   H23618286   4.149   1.852   1.918  0.7739  1.7193 -0.5747
   26MOL   H23718287   4.117   2.021   2.080 -0.3780 -0.3412  1.1844
   26MOL   H23818288   4.363   1.961   2.437  2.0045  2.7968  0.9387
   26MOL   H23918289   4.212   2.175   2.587 -0.2255  0.9168 -0.4004
   26MOL   H24018290   4.335   2.062   2.649 -0.6027 -0.8171 -1.0463
   26MOL   H24118291   4.381   2.256   2.432  0.2366  1.7284  0.9789
   26MOL   H24218292   4.509   2.174   2.515  0.4896  1.1639  0.6659
   26MOL   H24318293   4.338   2.368   2.669  1.8087  1.6791  0.9246
   26MOL   H24418294   4.481   2.288   2.729 -1.0341 -0.2096  0.1419
   26MOL   H24518295   4.490   2.480   2.486  0.1984  0.1343 -0.3113
   26MOL   H24618296   4.624   2.384   2.546 -0.5659 -1.6205  1.9394
   26MOL   H24718297   4.568   2.476   2.779  0.7745 -1.2449 -0.4452
   26MOL   H24818298   4.465   2.587   2.697  0.3169  0.5193 -2.4352
   26MOL   H24918299   4.645   2.701   2.574  1.2706  0.8803 -0.4488
   26MOL   H25018300   4.707   2.683   2.743  0.9076  0.5276 -0.4898
   26MOL   H25118301   4.801   2.464   2.645 -0.1201  0.5457  1.3958
   26MOL   H25218302   4.316   1.761   2.370  3.5425 -1.2420 -1.6519
   26MOL   H25318303   4.358   1.610   2.201  0.9795  0.4762 -0.5177
   26MOL   C25418304   4.915   2.612   2.601 -0.6362 -0.5526  0.1446
   26MOL   O25518305   4.933   2.733   2.585 -0.0916  0.0609 -0.1823
   26MOL   C25618306   5.028   2.513   2.577  0.2263  0.4859  0.2215
   26MOL   C25718307   5.006   2.383   2.521 -0.1228  0.9456  0.0939
   26MOL   C25818308   5.114   2.293   2.505 -0.4211  0.1412  0.1438
   26MOL   C25918309   5.246   2.332   2.528  0.4344 -0.6878  0.0837
   26MOL   C26018310   5.352   2.232   2.495  0.0502 -0.0933  0.0333
   26MOL   O26118311   5.331   2.114   2.516  0.0277 -0.2947  0.0805
   26MOL   N26218312   5.466   2.275   2.449  0.4128 -0.5094 -0.2662
   26MOL   C26318313   5.587   2.200   2.430 -0.2916  0.0781  0.7358
   26MOL   C26418314   5.584   2.145   2.277  0.0716  0.3794  0.9865
   26MOL   C26518315   5.690   2.055   2.231 -0.1622  0.7315 -0.2588
   26MOL   C26618316   5.685   2.038   2.081  0.1199 -0.4529 -0.1120
   26MOL   C26718317   5.802   1.941   2.038 -0.6561  0.4835  0.9710
   26MOL   C26818318   5.785   1.919   1.884  0.6211 -0.1121 -0.1054
   26MOL   N26918319   5.872   1.804   1.849 -0.3339  0.6986 -0.3968
   26MOL   C27018320   5.271   2.463   2.565 -0.3199  0.0202  0.4996
   26MOL   C27118321   5.164   2.551   2.595 -0.1083  0.8477  0.8438
   26MOL   H27218322   4.906   2.347   2.502 -0.1403 -0.5307  2.6919
   26MOL   H27318323   5.099   2.195   2.464 -2.0566  0.0925  0.8209
   26MOL   H27418324   5.476   2.375   2.437  3.3142 -0.7788 -0.4629
   26MOL   H27518325   5.672   2.265   2.447  2.2352 -2.7861 -0.5437
   26MOL   H27618326   5.597   2.121   2.505  2.2485 -0.0804  0.2626
   26MOL   H27718327   5.566   2.229   2.210  2.2066 -2.0636 -2.7957
   26MOL   H27818328   5.495   2.089   2.247  1.2530 -0.3019 -1.3475
   26MOL   H27918329   5.779   2.107   2.264  0.0331  0.0772  0.2624
   26MOL   H28018330   5.678   1.960   2.284 -0.8023  0.2462 -1.2529
   26MOL   H28118331   5.690   2.127   2.018 -0.8072 -0.0603  0.3543
   26MOL   H28218332   5.585   1.999   2.063 -0.4518  0.8633  0.1644
   26MOL   H28318333   5.791   1.842   2.083 -1.0783 -0.3161 -0.8345
   26MOL   H28418334   5.902   1.981   2.052  0.2568 -2.3052  2.7559
   26MOL   H28518335   5.681   1.887   1.876  0.4324  0.8838 -1.7803
   26MOL   H28618336   5.799   2.009   1.825 -1.8295 -0.8407 -1.8740
   26MOL   H28718337   5.926   1.756   1.919 -0.2764  0.0153 -0.9026
   26MOL   H28818338   5.366   2.514   2.573  0.1209 -0.9282  1.5055
   26MOL   H28918339   5.177   2.648   2.641  1.2120  0.1861  1.8909
   26MOL   C29018340   5.877   1.751   1.723 -0.0690 -0.0702  0.3473
   26MOL   O29118341   5.821   1.811   1.629  0.0683  0.7276  0.0669
   26MOL   C29218342   5.952   1.628   1.701 -0.0538 -0.3675  0.3802
   26MOL   C29318343   6.054   1.587   1.793  0.1650 -0.2141 -0.0662
   26MOL   C29418344   6.123   1.466   1.762 -0.2074  0.0423 -0.3269
   26MOL   C29518345   6.096   1.395   1.646 -0.1581  1.0768 -0.2697
   26MOL   C29618346   6.151   1.255   1.630  0.2939 -0.3695 -0.5109
   26MOL   O29718347   6.166   1.176   1.725 -0.6676 -0.4260  0.1732
   26MOL   N29818348   6.175   1.218   1.503 -0.2006  0.5175  0.1850
   26MOL   C29918349   6.238   1.090   1.461 -0.3024  0.5698 -0.4686
   26MOL   C30018350   6.235   1.073   1.307 -0.1125 -0.3725 -0.1968
   26MOL   C30118351   6.295   0.936   1.269 -0.1193  0.4295  0.2993
   26MOL   C30218352   6.234   0.851   1.158 -0.4883  0.1547 -0.3362
   26MOL   C30318353   6.279   0.704   1.141  0.5798  0.3382 -0.3352
   26MOL   C30418354   6.218   0.628   1.025  0.5727  0.4703  0.0624
   26MOL   N30518355   6.267   0.489   1.023  0.5030  0.1276  0.5320
   26MOL   C30618356   5.997   1.437   1.554  0.1471  0.1279 -0.1132
   26MOL   C30718357   5.925   1.550   1.586  0.0085  0.1050 -0.2301
   26MOL   H30818358   6.085   1.653   1.873 -0.8236 -0.0280  0.1801
   26MOL   H30918359   6.200   1.438   1.833 -0.8292 -0.5373  0.1209
   26MOL   H31018360   6.140   1.284   1.435  0.7139  1.9596  1.0827
   26MOL   H31118361   6.337   1.074   1.505  0.1918 -3.9996 -2.9436
   26MOL   H31218362   6.168   1.011   1.489  1.4808 -2.0082 -3.0447
   26MOL   H31318363   6.284   1.149   1.246  1.2720 -0.7012  0.4814
   26MOL   H31418364   6.130   1.059   1.282 -1.5671 -0.9799  5.5849
   26MOL   H31518365   6.399   0.959   1.247 -0.3562  0.1526 -1.1112
   26MOL   H31618366   6.302   0.879   1.362 -1.3147 -1.0239 -0.4711
   26MOL   H31718367   6.246   0.913   1.069 -0.6782 -0.7663 -0.9992
   26MOL   H31818368   6.126   0.844   1.172 -0.5844  1.0159 -0.6166
   26MOL   H31918369   6.266   0.651   1.236 -1.7030  0.5745 -0.4746
   26MOL   H32018370   6.383   0.700   1.110 -0.1023 -2.8378 -2.4557
   26MOL   H32118371   6.110   0.617   1.038  0.4474  2.0553  0.3799
   26MOL   H32218372   6.237   0.672   0.928 -2.2816 -1.7269 -1.5994
   26MOL   H32318373   6.234   0.433   1.100  0.7836 -1.4312 -0.4326
   26MOL   H32418374   5.973   1.384   1.463 -1.3746 -0.0734  0.3946
   26MOL   H32518375   5.844   1.578   1.520 -0.9646  1.9739  1.7054
   26MOL   C32618376   6.332   0.433   0.918  0.8360 -0.4646  0.4265
   26MOL   O32718377   6.353   0.499   0.814  0.0600  0.8812  0.0846
   26MOL   C32818378   6.368   0.284   0.917 -0.1114 -0.8040 -0.0100
   26MOL   C32918379   6.422   0.225   0.800 -0.4547  0.0498  0.6430
   26MOL   C33018380   6.459   0.093   0.798 -0.5476  0.2451 -0.0396
   26MOL   C33118381   6.467   0.018   0.922  0.9281 -0.4837  0.2458
   26MOL   C33218382   6.518   7.764   0.924  0.5905 -0.5493 -0.1806
   26MOL   O33318383   6.463   7.679   0.987 -0.2318 -0.4935 -0.3650
   26MOL   N33418384   6.636   7.741   0.858  0.3465  0.0254  0.2111
   26MOL   C33518385   6.704   7.618   0.874  0.3315 -0.4715 -0.7464
   26MOL   C33618386   6.837   7.617   0.795 -0.6256  0.4411  0.0886
   26MOL   C33718387   6.916   7.484   0.802  0.0602 -0.7856 -0.2236
   26MOL   C33818388   6.843   7.365   0.736  0.4333  0.4252 -0.1188
   26MOL   C33918389   6.910   7.222   0.760  0.3142  0.1882 -0.5810
   26MOL   C34018390   6.837   7.103   0.695 -0.4086 -0.4909  0.0071
   26MOL   N34118391   6.695   7.110   0.718  0.2646 -0.1089 -0.1746
   26MOL   C34218392   6.411   0.079   1.037 -0.3688  0.8808  0.3472
   26MOL   C34318393   6.360   0.208   1.030  0.6742  0.1150 -0.2867
   26MOL   H34418394   6.438   0.272   0.704 -1.2959 -0.3899  0.2849
   26MOL   H34518395   6.489   0.062   0.699  0.6391 -0.5040  0.5450
   26MOL   H34618396   6.681   7.818   0.810  0.2148  0.5095  0.8510
   26MOL   H34718397   6.729   7.599   0.978 -0.4246  0.3152 -0.4179
   26MOL   H34818398   6.639   7.545   0.826  0.6700 -0.7307 -0.8097
   26MOL   H34918399   6.898   7.695   0.841  0.9662  0.6145 -2.2285
   26MOL   H35018400   6.817   7.637   0.690  0.4663 -1.0394 -0.4214
   26MOL   H35118401   7.017   7.475   0.761 -0.0111  2.2991 -1.1747
   26MOL   H35218402   6.941   7.454   0.904  0.2230  0.8937  0.2513
   26MOL   H35318403   6.831   7.389   0.630 -1.3518  0.2808  0.0365
   26MOL   H35418404   6.745   7.362   0.782  0.3951  0.4882 -0.1945
   26MOL   H35518405   6.900   7.202   0.867  1.3472 -1.0644 -0.7070
   26MOL   H35618406   7.016   7.207   0.742  0.2038 -1.2702 -0.0780
   26MOL   H35718407   6.843   7.100   0.586 -0.3147 -0.3448  0.0075
   26MOL   H35818408   6.881   7.008   0.723  3.4740  1.2536  0.0920
   26MOL   H35918409   6.645   7.156   0.643  2.8356  2.3314 -0.4806
   26MOL   H36018410   6.411   0.031   1.134 -0.1997 -2.0797 -1.0586
   26MOL   H36118411   6.309   0.240   1.119  2.9253  0.4085  0.9267
   26MOL   C36218412   6.640   7.069   0.835  0.2095 -0.5545 -0.3551
   26MOL   O36318413   6.699   7.009   0.926  0.5563 -0.1517 -0.2836
   26MOL   C36418414   6.496   7.108   0.851 -0.1804 -0.0657 -0.0369
   26MOL   C36518415   6.395   7.011   0.835  0.2567  0.4693 -0.1400
   26MOL   C36618416   6.259   7.050   0.841 -0.2895 -0.1906 -0.1711
   26MOL   C36718417   6.226   7.180   0.879  0.0846 -0.7694  0.4261
   26MOL   C36818418   6.081   7.221   0.871 -0.3957 -0.8540  0.0376
   26MOL   O36918419   6.000   7.151   0.817 -0.0479 -0.1696 -0.1329
   26MOL   N37018420   6.039   7.334   0.924 -0.2589 -0.0509  0.0568
   26MOL   C37118421   5.909   7.394   0.912 -0.4607 -0.3974 -0.1969
   26MOL   C37218422   5.811   7.329   1.008  0.2505  0.5872  0.0753
   26MOL   C37318423   5.678   7.406   1.006  0.4918  0.3546 -0.4205
   26MOL   C37418424   5.556   7.328   1.060 -0.0792  0.1051 -0.4423
   26MOL   C37518425   5.500   7.218   0.967 -0.8852  0.0044 -0.2209
   26MOL   C37618426   5.381   7.150   1.026 -0.3955 -0.1905  0.3355
   26MOL   N37718427   5.344   7.034   0.953  0.3051  0.3557 -0.2371
   26MOL   C37818428   6.326   7.277   0.903 -0.5442 -0.2617 -0.0929
   26MOL   C37918429   6.458   7.236   0.893 -0.3464 -0.2022 -0.0695
   26MOL   H38018430   6.420   6.912   0.799 -0.4612  0.7611 -1.4824
   26MOL   H38118431   6.179   6.980   0.821 -0.0031 -1.6544  3.3526
   26MOL   H38218432   6.115   7.396   0.950  0.4765 -1.7655  2.1936
   26MOL   H38318433   5.931   7.492   0.954  0.6389 -0.7433  0.0319
   26MOL   H38418434   5.881   7.407   0.808  0.0437  0.4526 -0.2282
   26MOL   H38518435   5.839   7.340   1.113  1.8687  2.5375 -0.5243
   26MOL   H38618436   5.795   7.223   0.990 -1.5370  1.2325 -2.5033
   26MOL   H38718437   5.682   7.490   1.075 -0.7695  0.6141 -0.6433
   26MOL   H38818438   5.649   7.454   0.913  1.5457  2.8441  0.4805
   26MOL   H38918439   5.479   7.399   1.090  0.9072  1.1833 -0.3952
   26MOL   H39018440   5.588   7.278   1.152 -2.0641 -0.7110 -0.1866
   26MOL   H39118441   5.587   7.155   0.948  0.9734  1.7834  2.0785
   26MOL   H39218442   5.472   7.265   0.873 -0.7242  1.3208  0.3845
   26MOL   H39318443   5.406   7.111   1.125 -0.5179  0.0755  0.4727
   26MOL   H39418444   5.301   7.223   1.037  1.0648  1.2467  1.9373
   26MOL   H39518445   5.363   6.938   0.978  2.5172  0.1859 -2.3729
   26MOL   H39618446   6.307   7.382   0.920 -0.1950 -0.1965 -0.1099
   26MOL   H39718447   6.537   7.308   0.908 -0.1211 -0.5290  0.3107
   26MOL   C39818448   5.285   7.044   0.833 -0.2899 -0.3304  0.4018
   26MOL   O39918449   5.242   7.147   0.773 -0.4952  0.2788 -0.3597
   26MOL   C40018450   5.269   6.914   0.767  0.0016  0.5325  0.2828
   26MOL   C40118451   5.291   6.899   0.630  0.2041  0.6230  0.2705
   26MOL   C40218452   5.272   6.769   0.574 -0.1225  0.0215 -0.7064
   26MOL   C40318453   5.242   6.655   0.649 -0.1137 -0.1221  0.2955
   26MOL   C40418454   5.212   6.528   0.588 -0.6419  0.1353 -0.0081
   26MOL   O40518455   5.097   6.489   0.576  0.5135 -0.3532  0.4165
   26MOL   N40618456   5.328   6.473   0.545  0.1781 -0.6657 -0.5357
   26MOL   C40718457   5.344   6.350   0.464 -0.8705  0.2740 -0.0605
   26MOL   C40818458   5.407   6.237   0.556 -0.0961 -0.7467  0.6162
   26MOL   C40918459   5.530   6.276   0.633  0.2423  0.8584 -0.2979
   26MOL   C41018460   5.568   6.168   0.741  0.2311 -0.1018 -0.3805
   26MOL   C41118461   5.668   6.235   0.839  0.8200  0.7907  0.0245
   26MOL   C41218462   5.728   6.145   0.950  0.6314  0.4749  0.3864
   26MOL   N41318463   5.794   6.234   1.047 -0.3779  0.0226 -0.1264
   26MOL   C41418464   5.224   6.670   0.788 -0.0838 -0.6950 -0.8429
   26MOL   C41518465   5.227   6.799   0.842  0.3178 -0.1571 -0.3186
   26MOL   H41618466   5.312   6.977   0.558  1.3432  1.7503  1.7905
   26MOL   H41718467   5.292   6.751   0.469  1.0085 -2.3315 -0.1181
   26MOL   H41818468   5.414   6.522   0.566 -0.5965  0.7622 -0.6328
   26MOL   H41918469   5.249   6.328   0.416 -2.0442  0.0625  2.3036
   26MOL   H42018470   5.406   6.365   0.375 -1.0164 -0.1304 -0.2310
   26MOL   H42118471   5.424   6.149   0.494  0.6356 -0.0703 -0.1721
   26MOL   H42218472   5.324   6.221   0.624 -0.4368 -1.3769  0.0510
   26MOL   H42318473   5.613   6.286   0.563 -1.2855  0.2964 -2.2084
   26MOL   H42418474   5.512   6.367   0.690 -0.0780  0.5611  0.0767
   26MOL   H42518475   5.624   6.092   0.687  1.6619  1.1033 -0.6195
   26MOL   H42618476   5.478   6.132   0.790  1.0030 -1.1792  0.2516
   26MOL   H42718477   5.623   6.319   0.893  0.0791  0.0699  0.5468
   26MOL   H42818478   5.752   6.272   0.781  0.6790 -0.1420 -0.7777
   26MOL   H42918479   5.649   6.094   1.004  0.9354  0.7438  1.0896
   26MOL   H43018480   5.806   6.082   0.908 -0.7735 -1.8938  1.2743
   26MOL   H43118481   5.762   6.206   1.139 -2.0810 -0.1539 -0.7537
   26MOL   H43218482   5.199   6.578   0.838  4.0738 -1.4275  0.0555
   26MOL   H43318483   5.214   6.810   0.949  1.3305 -1.0214 -0.0966
   26MOL   C43418484   5.894   6.321   1.032 -0.6916  0.1152 -0.5281
   26MOL   O43518485   5.971   6.340   0.931 -0.1682  0.2481 -0.3768
   26MOL   C43618486   5.915   6.412   1.154 -0.2070 -0.7863  0.0174
   26MOL   C43718487   5.802   6.463   1.224 -0.4119 -0.5237  0.2633
   26MOL   C43818488   5.817   6.565   1.318 -0.3288 -0.9809 -0.1135
   26MOL   C43918489   5.950   6.597   1.363 -0.4585  0.4186  0.1852
   26MOL   C44018490   5.974   6.697   1.478  0.2490 -0.3344  0.3204
   26MOL   O44118491   5.879   6.720   1.553 -0.2484  0.6048  0.5680
   26MOL   N44218492   6.097   6.752   1.485 -0.0117 -0.6173 -0.3140
   26MOL   C44318493   6.126   6.867   1.566  0.1870  0.6472  0.6574
   26MOL   C44418494   6.281   6.875   1.579  0.4685 -0.1212  0.7496
   26MOL   C44518495   6.320   7.015   1.632  0.0501  0.3713  0.4381
   26MOL   C44618496   6.473   7.031   1.640 -0.6316 -0.1030  0.2963
   26MOL   C44718497   6.534   6.944   1.753 -0.1698 -0.0024 -0.2700
   26MOL   C44818498   6.686   6.945   1.739 -0.4110 -0.2672  0.1579
   26MOL   N44918499   6.728   7.084   1.763  0.0629 -0.0539 -0.0226
   26MOL   C45018500   6.060   6.528   1.310 -0.5689 -0.2662  0.0525
   26MOL   C45118501   6.043   6.441   1.203  0.1021 -0.2840 -0.6883
   26MOL   H45218502   5.700   6.460   1.189 -0.3895  1.7237 -0.0873
   26MOL   H45318503   5.732   6.615   1.363 -0.6559 -1.2989 -0.3759
   26MOL   H45418504   6.170   6.720   1.423 -0.6022 -2.0374 -0.2998
   26MOL   H45518505   6.084   6.957   1.522  2.8744  2.4619  1.7099
   26MOL   H45618506   6.085   6.858   1.666  1.8565 -1.7296  1.1898
   26MOL   H45718507   6.343   6.855   1.492  3.7495 -0.9229  3.1874
   26MOL   H45818508   6.288   6.803   1.660  1.2483 -0.0419  0.7541
   26MOL   H45918509   6.291   7.095   1.563  1.7281 -0.4062 -1.2085
   26MOL   H46018510   6.269   7.034   1.727  0.0427  2.2672  0.0763
   26MOL   H46118511   6.486   7.139   1.647 -1.1286 -0.0184 -0.1050
   26MOL   H46218512   6.521   7.012   1.544 -0.2100  1.5392  0.1684
   26MOL   H46318513   6.519   6.838   1.733  1.6341 -0.4596  0.8084
   26MOL   H46418514   6.492   6.954   1.853 -1.3185 -2.0651 -0.5117
   26MOL   H46518515   6.722   6.887   1.823 -1.1224  0.3006  0.8643
   26MOL   H46618516   6.718   6.891   1.650  4.5007  1.9802  0.4201
   26MOL   H46718517   6.669   7.130   1.831  2.9006 -0.4639  2.8561
   26MOL   H46818518   6.160   6.540   1.348  0.3908 -0.4336 -2.3646
   26MOL   H46918519   6.134   6.394   1.170 -0.1158 -2.1907  1.2479
   26MOL   C47018520   6.804   7.154   1.683  0.7012 -0.3550  0.2762
   26MOL   O47118521   6.870   7.102   1.599 -0.4008 -0.0135  0.2667
   26MOL   C47218522   6.789   7.300   1.688  0.3116  0.3584  0.4486
   26MOL   C47318523   6.825   7.375   1.573 -0.5469 -0.2486  0.7441
   26MOL   C47418524   6.833   7.515   1.588  0.4449 -1.2059  0.3394
   26MOL   C47518525   6.809   7.583   1.714  0.4479 -0.2773  0.2499
   26MOL   C47618526   6.816   7.733   1.742  0.3278 -0.0669  0.0334
   26MOL   O47718527   6.745   7.802   1.815 -0.1931  0.1245  0.1146
   26MOL   N47818528   6.922   7.789   1.682 -0.4558 -0.2240  0.5609
   26MOL   C47918529   6.972   0.043   1.714 -0.6739 -0.4942 -0.0962
   26MOL   C48018530   7.089   0.072   1.619  0.4072 -0.1032 -0.3045
   26MOL   C48118531   7.159   0.196   1.674  0.7802  0.4501  0.4761
   26MOL   C48218532   7.268   0.254   1.584 -0.0985  0.0985  0.0655
   26MOL   C48318533   7.404   0.185   1.595  0.0840 -0.4976 -0.6025
   26MOL   C48418534   7.516   0.258   1.520  1.0857  0.4068  0.0194
   26MOL   N48518535   7.641   0.196   1.562  0.0438  0.3124  0.1654
   26MOL   C48618536   6.764   7.503   1.821 -0.3160  0.2521  0.0948
   26MOL   C48718537   6.755   7.364   1.809 -0.6209  0.0556  0.1264
   26MOL   H48818538   6.846   7.327   1.479  0.3590  1.1258  0.2490
   26MOL   H48918539   6.865   7.571   1.501 -1.4659  0.1246  0.4599
   26MOL   H49018540   6.965   7.733   1.609  1.1260  0.9694  0.5614
   26MOL   H49118541   6.893   0.118   1.709 -0.5265 -0.2090  1.4444
   26MOL   H49218542   7.019   0.042   1.812  1.7768  0.5110 -1.2290
   26MOL   H49318543   7.053   0.085   1.517  0.7023  1.8587 -0.1720
   26MOL   H49418544   7.159   7.875   1.624  1.5404  0.6000 -3.3399
   26MOL   H49518545   7.083   0.274   1.673  2.2874  1.9957 -2.5762
   26MOL   H49618546   7.198   0.194   1.776 -1.4967 -0.5967  1.3490
   26MOL   H49718547   7.291   0.357   1.612  2.6781 -1.1317  2.5765
   26MOL   H49818548   7.228   0.265   1.484  0.5817 -0.3616 -0.2587
   26MOL   H49918549   7.393   0.080   1.568 -1.7686 -0.8424  1.3296
   26MOL   H50018550   7.429   0.194   1.701 -0.1207  0.3557 -0.6217
   26MOL   H50118551   7.509   0.250   1.412 -0.0357  1.2097  0.0292
   26MOL   H50218552   7.530   0.363   1.547 -0.2942  0.0402  2.3329
   26MOL   H50318553   7.638   0.143   1.649 -0.4479 -1.9432 -1.1695
   26MOL   H50418554   6.748   7.544   1.920 -0.3501 -1.1116  0.6552
   26MOL   H50518555   6.736   7.306   1.898 -0.5121 -1.1660 -0.6326
   26MOL   C50618556   7.752   0.190   1.495 -0.2321  0.4803 -0.4165
   26MOL   O50718557   7.764   0.244   1.384  0.8292 -0.1905 -0.6633
   26MOL   C50818558   7.863   0.109   1.555  0.2356 -0.1391  0.3571
   26MOL   C50918559   0.060   0.025   1.470 -0.1487 -0.0248  0.2667
   26MOL   C51018560   0.155   7.833   1.538  0.1725  0.1294 -0.2381
   26MOL   C51118561   0.153   7.820   1.679  0.7098  0.7376 -0.8128
   26MOL   C51218562   0.237   7.713   1.745  0.1224 -0.3240 -0.0908
   26MOL   O51318563   0.211   7.672   1.859  0.2045  0.0709  0.3090
   26MOL   N51418564   0.344   7.670   1.676 -0.6209  0.3505  0.1830
   26MOL   C51518565   0.430   7.562   1.727  0.1401 -0.6401 -0.2230
   26MOL   C51618566   0.427   7.438   1.632 -0.1249 -0.1939 -0.0865
   26MOL   C51718567   0.288   7.378   1.602 -0.5079  0.0210  0.1284
   26MOL   C51818568   0.290   7.251   1.512  0.0643 -0.2231  0.3845
   26MOL   C51918569   0.150   7.207   1.463  0.7565  0.2559  0.3897
   26MOL   C52018570   0.046   7.156   1.568  0.5742 -0.2069 -0.2602
   26MOL   N52118571   7.852   7.267   1.617  0.3079 -0.1111 -0.0846
   26MOL   C52218572   0.081   0.025   1.760 -0.1477  0.4397 -0.0210
   26MOL   C52318573   7.875   0.107   1.700 -0.1869  0.8657  0.1795
   26MOL   H52418574   0.044   0.026   1.363 -2.7839  1.3311  0.6114
   26MOL   H52518575   0.215   7.769   1.474 -1.4080 -1.9018  0.2675
   26MOL   H52618576   0.369   7.724   1.595  3.1408  0.5217  1.3739
   26MOL   H52718577   0.528   7.607   1.742 -0.1791 -0.0869  0.2219
   26MOL   H52818578   0.394   7.539   1.827  0.5757  0.4246  0.1919
   26MOL   H52918579   0.486   7.360   1.681  0.8705 -0.2433 -1.3402
   26MOL   H53018580   0.481   7.455   1.539 -0.1305  0.9938  0.1204
   26MOL   H53118581   0.237   7.346   1.693  1.7853 -0.7524  1.1676
   26MOL   H53218582   0.214   7.451   1.568  1.6716  1.7943 -0.9429
   26MOL   H53318583   0.350   7.182   1.573  0.3350 -0.6517 -0.3531
   26MOL   H53418584   0.347   7.277   1.423 -0.3368  0.5546  0.3549
   26MOL   H53518585   0.159   7.124   1.392 -0.2485  1.5012 -1.2317
   26MOL   H53618586   0.110   7.287   1.401  0.4331 -1.0753 -1.1513
   26MOL   H53718587   7.866   7.083   1.521  0.1112 -0.3700  0.6167
   26MOL   H53818588   0.090   7.108   1.656  0.2248 -0.2485 -0.1061
   26MOL   H53918589   7.858   7.355   1.568 -0.0974  0.4417  0.8430
   26MOL   H54018590   0.077   0.012   1.868  0.5895 -1.5950 -0.2216
   26MOL   H54118591   7.817   0.167   1.769  0.9259  0.4802  1.4694
   26MOL   C54218592   7.783   7.275   1.735  0.4963 -0.7028  0.3666
   26MOL   O54318593   7.773   7.183   1.813 -0.5596 -0.6519 -1.0458
   26MOL   C54418594   7.705   7.404   1.751 -0.7446  0.0066  0.5291
   26MOL   C54518595   7.583   7.405   1.811 -0.4353 -0.4252 -0.2813
   26MOL   C54618596   7.522   7.525   1.851 -0.0818 -0.9327 -0.6444
   26MOL   C54718597   7.588   7.651   1.823  0.4320 -0.7025 -0.5824
   26MOL   C54818598   7.539   7.784   1.875 -0.4132 -0.0344 -0.1274
   26MOL   O54918599   7.608   7.885   1.864 -0.8381  0.1353 -0.1913
   26MOL   N55018600   7.423   7.789   1.950 -0.4486 -0.3526 -0.1308
   26MOL   C55118601   7.376   0.023   2.027 -0.4499 -0.1572 -0.3501
   26MOL   C55218602   7.269   0.002   2.142  0.0402  0.4818 -0.0541
   26MOL   C55318603   7.319   0.012   2.285  0.2494 -0.0944  0.6591
   26MOL   C55418604   7.205   7.874   2.387  0.3102  0.5682  0.2777
   26MOL   C55518605   7.168   7.720   2.413  0.4695 -0.2071  0.6478
   26MOL   C55618606   7.067   7.687   2.524 -0.0555 -0.0997 -0.1544
   26MOL   N55718607   7.055   7.544   2.537  0.4089 -0.0478 -0.3160
   26MOL   C55818608   7.702   7.651   1.744  0.6641 -0.5215 -0.3438
   26MOL   C55918609   7.763   7.526   1.706  0.8076 -0.3442 -0.0015
   26MOL   H56018610   7.533   7.312   1.835 -1.3660  0.6864  2.1737
   26MOL   H56118611   7.430   7.521   1.907  1.8327 -3.1574  2.5264
   26MOL   H56218612   7.368   7.705   1.960 -0.4217 -0.2540  1.0134
   26MOL   H56318613   7.466   0.072   2.063 -0.3429  0.5037 -1.5340
   26MOL   H56418614   7.323   0.077   1.950 -0.9021 -1.1256 -0.7304
   26MOL   H56518615   7.220   7.791   2.135  1.0007 -0.0833  1.0494
   26MOL   H56618616   7.193   0.081   2.137 -0.2935  0.1686  0.0274
   26MOL   H56718617   7.399   7.830   2.314  1.0656  2.0786  3.7595
   26MOL   H56818618   7.350   0.116   2.294  1.4892 -0.5427  1.6865
   26MOL   H56918619   7.123   0.054   2.359  1.2261  0.1420 -3.6446
   26MOL   H57018620   7.248   0.032   2.477  3.7520  1.8356 -1.8938
   26MOL   H57118621   7.264   7.678   2.444  0.1194 -1.8495 -0.4359
   26MOL   H57218622   7.129   7.678   2.320  1.0440  1.8424 -0.5376
   26MOL   H57318623   7.112   7.732   2.612  2.3715  4.5176 -3.5472
   26MOL   H57418624   6.970   7.732   2.503 -0.2617 -0.0184  0.9579
   26MOL   H57518625   7.123   7.485   2.491  1.0801 -0.0951  0.7221
   26MOL   H57618626   7.743   7.746   1.713  0.9398 -0.7309 -0.6318
   26MOL   H57718627   7.852   7.528   1.645  2.5906  1.3413  2.5896
   26MOL   C57818628   6.946   7.471   2.568  0.5159 -0.7740  1.0106
   26MOL   O57918629   6.835   7.517   2.604 -0.5781 -0.3538  0.1762
   26MOL   C58018630   6.962   7.320   2.546 -0.0949  0.5706 -1.2801
   26MOL   C58118631   7.050   7.246   2.632  0.2606 -0.6504 -0.1615
   26MOL   C58218632   7.052   7.109   2.608  0.5797  0.0886  0.0839
   26MOL   C58318633   6.967   7.039   2.512  0.1055  0.1924 -0.2511
   26MOL   C58418634   6.982   6.895   2.488  0.0236  0.2209  0.0591
   26MOL   O58518635   6.938   6.843   2.384  0.7215 -0.0062 -0.1389
   26MOL   N58618636   7.039   6.821   2.589 -0.0454  0.5960  0.6705
   26MOL   C58718637   7.084   6.680   2.587  0.2101  0.0196  0.4591
   26MOL   C58818638   6.968   6.576   2.612 -0.2789 -0.1055 -0.4037
   26MOL   C58918639   7.008   6.435   2.588 -0.1312 -0.7291 -0.0772
   26MOL   C59018640   6.890   6.336   2.568 -0.2021  0.5701 -0.1028
   26MOL   C59118641   6.824   6.350   2.428 -0.1765 -0.0408 -0.2531
   26MOL   C59218642   6.764   6.218   2.377  0.0273  0.4304 -0.5789
   26MOL   N59318643   6.860   6.122   2.327 -0.6658 -1.1456 -0.0627
   26MOL   C59418644   6.870   7.118   2.446  0.0783 -1.0259  0.3061
   26MOL   C59518645   6.879   7.260   2.453 -0.1474 -0.2697 -0.1498
   26MOL   H59618646   7.117   7.290   2.704 -0.4042 -1.4940  0.9834
   26MOL   H59718647   7.123   7.054   2.668  0.4603  0.6645  0.7551
   26MOL   H59818648   7.084   6.868   2.666  1.1656 -0.3077  0.5288
   26MOL   H59918649   7.127   6.663   2.488  2.1413  0.7729  1.1288
   26MOL   H60018650   7.170   6.681   2.654 -1.1754 -0.0985  2.2788
   26MOL   H60118651   6.882   6.598   2.547  0.6899  0.7988 -1.4076
   26MOL   H60218652   6.935   6.580   2.716  1.3959 -3.5647  0.3242
   26MOL   H60318653   7.067   6.427   2.497  0.8089  1.7642  0.2729
   26MOL   H60418654   7.055   6.396   2.679  0.8639 -3.1855 -1.5899
   26MOL   H60518655   6.828   6.355   2.655  1.3441  0.2893  1.0947
   26MOL   H60618656   6.933   6.236   2.564 -1.3478  0.0685  0.0207
   26MOL   H60718657   6.887   6.387   2.347  0.7539  0.7184  0.8061
   26MOL   H60818658   6.752   6.432   2.436  1.2304  1.3046 -1.0535
   26MOL   H60918659   6.703   6.178   2.458  0.3941  0.5173 -0.2540
   26MOL   H61018660   6.692   6.233   2.297 -0.9328  0.6719  0.3112
   26MOL   H61118661   6.867   6.045   2.391 -1.1310 -1.6308 -0.5939
   26MOL   H61218662   6.796   7.083   2.375 -3.3015  3.0359  1.6348
   26MOL   H61318663   6.812   7.320   2.394  1.0550 -0.3986 -1.6809
   26MOL   C61418664   6.928   6.132   2.205 -0.0419 -0.4654 -0.0723
   26MOL   O61518665   6.905   6.232   2.138 -0.1434 -0.4873  0.0778
   26MOL   C61618666   7.023   6.024   2.161  0.2488 -0.8033 -0.8995
   26MOL   C61718667   7.017   5.976   2.032 -0.1372  0.6632  0.5150
   26MOL   C61818668   7.080   5.855   1.998 -0.1681 -0.0158 -0.6457
   26MOL   C61918669   7.148   5.785   2.096  0.2281  0.7769  0.4472
   26MOL   C62018670   7.211   5.655   2.053 -0.4722  0.2581 -0.2474
   26MOL   O62118671   7.199   5.615   1.934 -0.1628  0.3759  0.2725
   26MOL   N62218672   7.269   5.586   2.152 -0.0166 -0.2075  0.0198
   26MOL   C62318673   7.340   5.464   2.129  0.8823 -0.0633 -0.0732
   26MOL   C62418674   7.493   5.481   2.120 -0.2330 -0.3929 -0.1050
   26MOL   C62518675   7.556   5.551   2.238  0.4257  0.1739  0.3080
   26MOL   C62618676   7.550   5.707   2.228  0.5623  0.5473 -0.5262
   26MOL   C62718677   7.617   5.776   2.344 -0.1894 -0.4734 -1.0711
   26MOL   C62818678   7.620   5.927   2.322 -0.6615 -0.1361  0.5163
   26MOL   N62918679   7.699   6.002   2.419 -0.5225 -0.6208 -0.1450
   26MOL   C63018680   7.158   5.837   2.224 -0.5115 -0.3353 -0.0962
   26MOL   C63118681   7.101   5.957   2.260 -0.0600 -1.1103  0.0063
   26MOL   H63218682   6.948   6.022   1.963  0.7310 -0.9897 -1.5215
   26MOL   H63318683   7.065   5.815   1.899  1.2161  2.6406 -1.9814
   26MOL   H63418684   7.279   5.613   2.248 -0.0925  1.5318 -0.4529
   26MOL   H63518685   7.309   5.402   2.213 -2.8509  0.8734 -0.6784
   26MOL   H63618686   7.302   5.412   2.041  0.0638  1.0996 -0.4202
   26MOL   H63718687   7.529   5.514   2.023  0.2297  0.0506  0.2138
   26MOL   H63818688   7.529   5.378   2.123 -0.5219 -0.4966 -0.1501
   26MOL   H63918689   7.512   5.509   2.329  0.3906 -1.1490 -0.3179
   26MOL   H64018690   7.660   5.522   2.244  0.8646  0.4032 -4.3737
   26MOL   H64118691   7.451   5.751   2.216  0.8606  0.7451 -2.5504
   26MOL   H64218692   7.597   5.741   2.135 -1.4006  1.2710 -1.2859
   26MOL   H64318693   7.710   5.720   2.354  0.4228  0.7477  0.2201
   26MOL   H64418694   7.562   5.745   2.434 -3.3917 -0.9121 -3.0964
   26MOL   H64518695   7.663   5.957   2.227 -0.2685  0.5377  0.9067
   26MOL   H64618696   7.522   5.974   2.329 -1.2109 -1.0688 -0.6817
   26MOL   H64718697   7.662   6.036   2.506  1.1112 -0.6164  0.5632
   26MOL   H64818698   7.217   5.784   2.297  2.9955  0.9302 -1.8773
   26MOL   H64918699   7.104   5.985   2.365 -0.1705  1.8505 -0.7419
   26MOL   C65018700   7.835   5.990   2.423  1.0730  0.0357  0.4994
   26MOL   O65118701   0.017   5.966   2.318  0.1752  0.0094  0.3208
   26MOL   C65218702   0.006   6.000   2.563  0.5776  0.0640  0.5796
   26MOL   C65318703   0.141   5.963   2.573 -0.0949 -0.5643  0.1318
   26MOL   C65418704   0.211   5.978   2.695  0.0953 -0.2159  0.2967
   26MOL   C65518705   0.137   6.015   2.808 -0.4479 -0.1130 -0.0424
   26MOL   C65618706   0.209   6.012   2.942  0.5427  1.0353 -0.5812
   26MOL   O65718707   0.142   6.004   3.049  0.1836 -0.5530  0.3488
   26MOL   N65818708   0.340   6.021   2.942  0.0103  0.0746 -0.6548
   26MOL   C65918709   0.441   6.028   3.052  0.5066  0.4315 -0.0931
   26MOL   C66018710   0.452   5.894   3.133 -0.0407  0.7836 -0.4026
   26MOL   C66118711   0.537   5.914   3.256 -0.1526 -0.2498 -0.0615
   26MOL   C66218712   0.531   5.800   3.358  0.5418 -0.0748 -0.0752
   26MOL   C66318713   0.583   5.666   3.316  0.2649 -0.0263  0.1516
   26MOL   C66418714   0.569   5.554   3.423 -0.2475 -0.2315  0.1361
   26MOL   N66518715   0.625   5.424   3.375 -0.0638  0.1780 -0.1757
   26MOL   C66618716   7.881   6.043   2.798  0.3857 -0.0404 -0.2554
   26MOL   C66718717   7.818   6.032   2.678 -0.6865 -0.3482 -0.9881
   26MOL   H66818718   0.189   5.938   2.479  0.2923  2.4137 -0.4946
   26MOL   H66918719   0.316   5.954   2.698 -0.2047 -2.2200 -2.8070
   26MOL   H67018720   0.381   6.029   2.851  0.3121 -4.0340 -0.9495
   26MOL   H67118721   0.533   6.066   3.007  1.2977 -1.0328  0.2427
   26MOL   H67218722   0.416   6.113   3.116  1.5117  0.7935 -0.1755
   26MOL   H67318723   0.489   5.815   3.068  1.3605  2.2204 -1.3873
   26MOL   H67418724   0.350   5.865   3.156 -0.0324 -0.2909 -1.6265
   26MOL   H67518725   0.641   5.931   3.229 -0.3710 -0.4086 -1.0074
   26MOL   H67618726   0.506   6.009   3.300 -0.3658  0.6191 -2.0446
   26MOL   H67718727   0.428   5.787   3.392  0.1126 -2.4151 -2.1098
   26MOL   H67818728   0.585   5.828   3.448  0.4520  1.7369 -0.5545
   26MOL   H67918729   0.688   5.673   3.290  0.1343 -0.0207 -0.3767
   26MOL   H68018730   0.529   5.635   3.226  0.9662 -1.2530  0.1488
   26MOL   H68118731   0.618   5.572   3.518 -1.6075 -0.5427  0.9060
   26MOL   H68218732   0.463   5.543   3.445  0.4575 -1.9523  2.8734
   26MOL   H68318733   0.558   5.350   3.358 -1.1665  1.2874 -0.7945
   26MOL   H68418734   7.816   6.069   2.880  0.1264  0.8901 -0.7387
   26MOL   H68518735   7.712   6.050   2.669 -0.2930  1.5680 -2.3608
   26MOL   C68618736   0.753   5.395   3.364 -0.1605 -0.3903  0.0160
   26MOL   O68718737   0.846   5.464   3.407  0.3153 -0.0728 -0.9088
   26MOL   C68818738   0.790   5.265   3.299  0.1351 -0.6872  0.4353
   26MOL   C68918739   0.916   5.212   3.307  0.6111 -0.8246  0.6790
   26MOL   C69018740   0.958   5.090   3.250  0.5049  0.0579  0.1931
   26MOL   C69118741   0.873   5.022   3.161  0.9097  0.3968  0.0228
   26MOL   C69218742   0.919   4.904   3.080  0.7803 -0.2850  1.1725
   26MOL   O69318743   1.002   4.919   2.990  0.4086  0.1211 -0.0541
   26MOL   N69418744   0.864   4.782   3.116 -0.3327  0.2330 -0.0840
   26MOL   C69518745   0.897   4.652   3.065 -0.5919  0.4277  0.2952
   26MOL   C69618746   0.816   4.626   2.931 -0.0267 -0.7082  0.5314
   26MOL   C69718747   0.808   4.481   2.891 -0.0204  0.0553 -0.1411
   26MOL   C69818748   0.713   4.462   2.775  0.1628 -0.2556  0.8942
   26MOL   C69918749   0.755   4.362   2.665 -0.2955 -0.4754 -0.3959
   26MOL   C70018750   0.655   4.327   2.559 -0.1613  0.6342 -0.5108
   26MOL   N70118751   0.729   4.237   2.467 -0.0677  0.4810  0.3579
   26MOL   C70218752   0.743   5.072   3.149  0.3960 -0.3726 -1.0172
   26MOL   C70318753   0.698   5.184   3.228 -0.3369 -0.0804 -0.8925
   26MOL   H70418754   0.994   5.264   3.359  0.0059 -1.5982  2.3895
   26MOL   H70518755   1.062   5.059   3.260  0.5409 -0.0387 -0.4428
   26MOL   H70618756   0.791   4.784   3.186  0.2620  2.5705  0.5271
   26MOL   H70718757   1.001   4.627   3.042 -1.0567  0.3654 -1.8081
   26MOL   H70818758   0.857   4.581   3.138  0.5487  1.1390  1.6471
   26MOL   H70918759   0.870   4.678   2.852 -2.3587  0.1241 -0.5728
   26MOL   H71018760   0.713   4.660   2.943 -0.9387 -3.0372 -0.4539
   26MOL   H71118761   0.912   4.458   2.869 -0.6388 -0.6259 -2.6078
   26MOL   H71218762   0.780   4.420   2.976 -0.1894 -0.5329 -0.6164
   26MOL   H71318763   0.706   4.559   2.725 -0.5523 -0.7147  0.0993
   26MOL   H71418764   0.615   4.434   2.814  0.3223 -0.9278  0.8103
   26MOL   H71518765   0.795   4.270   2.708 -0.4810 -0.6965 -0.6981
   26MOL   H71618766   0.839   4.409   2.614 -0.2352  0.4892  0.5769
   26MOL   H71718767   0.558   4.306   2.603 -0.3887 -0.3696 -1.4875
   26MOL   H71818768   0.637   4.408   2.488  0.6212  0.2163 -1.2037
   26MOL   H71918769   0.806   4.291   2.431 -0.1922 -0.3282 -1.2152
   26MOL   H72018770   0.661   5.023   3.097  1.1109 -0.3181 -2.2018
   26MOL   H72118771   0.594   5.210   3.215 -0.5873  0.2186  1.4140
   26MOL   H72218772   0.762   4.155   2.515  0.3774  0.0574 -0.6500
   27MOL     C118773   3.444   3.753   5.272  0.0025 -0.2347 -0.3969
   27MOL     O218774   3.403   3.726   5.157  0.5061 -0.1396 -0.0326
   27MOL     C318775   3.531   3.864   5.313 -0.5834 -0.4206  0.2073
   27MOL     C418776   3.605   3.848   5.434 -0.3842 -0.2577 -0.3200
   27MOL     C518777   3.680   3.956   5.492  0.4102 -0.6941  0.0436
   27MOL     C618778   3.687   4.071   5.415 -0.4113 -0.6418 -0.0129
   27MOL     C718779   3.772   4.189   5.468 -0.6331  0.6191  0.5539
   27MOL     O818780   3.805   4.206   5.588 -0.0897 -0.5509  0.2909
   27MOL     N918781   3.809   4.279   5.375  1.4035  0.1005  0.0228
   27MOL    C1018782   3.865   4.410   5.402 -0.3785 -0.9106 -0.9895
   27MOL    C1118783   3.743   4.502   5.392  0.3090 -0.5842  0.0420
   27MOL    C1218784   3.784   4.649   5.405  0.1798 -0.4810 -0.3510
   27MOL    C1318785   3.670   4.744   5.394  0.8881  0.0654 -0.2304
   27MOL    C1418786   3.693   4.886   5.432  0.3922  0.9461  0.4180
   27MOL    C1518787   3.570   4.983   5.442 -0.0155  0.7702 -0.0699
   27MOL    N1618788   3.607   5.099   5.516  0.3334 -0.4784  0.1921
   27MOL    C1718789   3.613   4.089   5.295  0.4593  0.5140  0.5302
   27MOL    C1818790   3.534   3.989   5.242  0.1816  0.6570 -0.0736
   27MOL    H1918791   3.591   3.753   5.485  0.2724 -1.8893 -3.0877
   27MOL    H2018792   3.732   3.946   5.585  0.5724 -1.6557 -0.1529
   27MOL    H2118793   3.752   4.267   5.293 -0.6239  0.0347  1.3982
   27MOL    H2218794   3.906   4.411   5.503  0.9190  0.0445 -1.5171
   27MOL    H2318795   3.940   4.436   5.328 -1.4101  2.2360 -0.9992
   27MOL    H2418796   3.670   4.477   5.469  1.0720  0.0858  0.9894
   27MOL    H2518797   3.683   4.491   5.302 -0.7590 -1.3684  0.8432
   27MOL    H2618798   3.820   4.671   5.505 -0.6136 -1.0509  0.0680
   27MOL    H2718799   3.852   4.680   5.326  2.7991 -2.4883  1.0146
   27MOL    H2818800   3.587   4.705   5.453  0.8508  0.5084  0.0157
   27MOL    H2918801   3.636   4.744   5.290 -0.2178  0.3393  0.1285
   27MOL    H3018802   3.783   4.928   5.388 -0.2455  1.7428 -0.1325
   27MOL    H3118803   3.724   4.876   5.536 -1.0076  0.2709  0.7698
   27MOL    H3218804   3.524   5.013   5.348 -1.5687  1.3486  0.8578
   27MOL    H3318805   3.501   4.922   5.500  0.6925 -0.5763 -0.6280
   27MOL    H3418806   3.699   5.096   5.557  0.2526 -0.9157  0.3422
   27MOL    H3518807   3.620   4.179   5.236 -0.4083 -0.6700 -1.4547
   27MOL    H3618808   3.471   4.007   5.156 -1.5669 -0.9451  0.8242
   27MOL    H3718809   3.432   3.673   5.344  1.4526 -0.5726 -0.5144
   27MOL    C3818810   3.531   5.203   5.546  0.1441 -0.2415  0.0320
   27MOL    O3918811   3.421   5.235   5.498 -0.0388  0.1896  0.0741
   27MOL    C4018812   3.589   5.289   5.655 -0.2321 -0.5344  0.0383
   27MOL    C4118813   3.658   5.236   5.769 -0.2488 -0.8984  0.0831
   27MOL    C4218814   3.711   5.325   5.867 -0.2297 -0.3905 -0.0825
   27MOL    C4318815   3.689   5.466   5.861  0.1564  0.2704 -0.4030
   27MOL    C4418816   3.763   5.557   5.957 -0.0311 -0.2375 -0.0408
   27MOL    O4518817   3.763   5.680   5.944  0.0207 -0.6917 -0.2354
   27MOL    N4618818   3.819   5.499   6.063 -0.2331 -0.1364  0.4035
   27MOL    C4718819   3.900   5.567   6.165 -0.5805 -0.3030  0.2710
   27MOL    C4818820   4.000   5.474   6.222  0.2535 -0.2791 -0.2312
   27MOL    C4918821   4.093   5.408   6.118 -0.1202 -0.3145  0.1797
   27MOL    C5018822   4.206   5.330   6.186  0.1473  0.1404  0.4537
   27MOL    C5118823   4.304   5.280   6.082  0.4021 -0.1814  0.4885
   27MOL    C5218824   4.399   5.170   6.131 -0.5242  0.3107  0.1325
   27MOL    N5318825   4.434   5.081   6.021 -0.2181 -0.3746  0.0542
   27MOL    C5418826   3.611   5.514   5.752 -0.0388 -0.5574  0.0355
   27MOL    C5518827   3.564   5.430   5.650 -0.1754  0.4164 -0.0080
   27MOL    H5618828   3.682   5.131   5.777  0.2897 -0.7097  1.0130
   27MOL    H5718829   3.773   5.285   5.946  1.8477  2.1918 -0.3380
   27MOL    H5818830   3.822   5.398   6.060  0.0041 -0.1280  0.3962
   27MOL    H5918831   3.942   5.664   6.135  0.4985 -1.5086 -2.2961
   27MOL    H6018832   3.833   5.600   6.244  1.1152  1.9713  0.8298
   27MOL    H6118833   3.949   5.395   6.276 -0.8272 -0.5276 -1.5920
   27MOL    H6218834   4.056   5.520   6.304  0.1372  0.8117 -0.7589
   27MOL    H6318835   4.035   5.346   6.049  0.8406 -1.6333  0.5426
   27MOL    H6418836   4.138   5.490   6.062  0.0001 -0.5454 -0.0622
   27MOL    H6518837   4.156   5.241   6.225  0.9213 -0.0775  0.9627
   27MOL    H6618838   4.251   5.385   6.268  0.2250  0.2945  0.3083
   27MOL    H6718839   4.368   5.361   6.048  0.9911 -1.0509 -0.5056
   27MOL    H6818840   4.247   5.249   5.994 -0.1090  0.7757  0.4799
   27MOL    H6918841   4.484   5.211   6.186 -1.9939 -0.7478  3.3297
   27MOL    H7018842   4.347   5.115   6.210  1.0830 -0.7383  0.4837
   27MOL    H7118843   4.367   5.011   5.995 -0.8246  0.2157  0.0040
   27MOL    H7218844   3.578   5.614   5.727 -0.5424 -1.4761 -3.3067
   27MOL    H7318845   3.501   5.462   5.569 -0.5416 -2.2722 -0.8093
   27MOL    C7418846   4.536   5.089   5.941  0.7260  0.0225  1.0306
   27MOL    O7518847   4.618   5.182   5.934  0.0508  0.1969  0.4093
   27MOL    C7618848   4.547   4.975   5.840  0.1651  0.3749  0.2062
   27MOL    C7718849   4.622   4.988   5.726  0.2392 -0.1668  0.7049
   27MOL    C7818850   4.630   4.876   5.638  0.5807  0.2548 -0.5902
   27MOL    C7918851   4.569   4.753   5.666 -0.0498  0.2963  0.0191
   27MOL    C8018852   4.581   4.645   5.564 -1.5267  0.2475 -0.9186
   27MOL    O8118853   4.603   4.670   5.445  0.4222 -0.3436 -0.4807
   27MOL    N8218854   4.556   4.520   5.606  0.8298 -0.0381  0.7655
   27MOL    C8318855   4.555   4.401   5.518 -0.0953 -0.2045  0.4086
   27MOL    C8418856   4.661   4.306   5.570 -0.8026  0.6682  0.3199
   27MOL    C8518857   4.618   4.245   5.701 -0.4366  0.3035 -0.7670
   27MOL    C8618858   4.716   4.134   5.749 -0.1996  1.1079 -0.6016
   27MOL    C8718859   4.678   4.075   5.880  0.0274  1.5029 -0.1781
   27MOL    C8818860   4.676   4.165   6.010  0.0064  0.3473  0.1084
   27MOL    N8918861   4.685   4.080   6.131 -0.5972  0.1398  0.8647
   27MOL    C9018862   4.485   4.745   5.782  0.7747 -0.2556  0.1399
   27MOL    C9118863   4.474   4.855   5.866  0.0827 -0.2345  0.0626
   27MOL    H9218864   4.682   5.074   5.700  1.0451 -0.8193  0.3618
   27MOL    H9318865   4.671   4.886   5.539 -2.2242 -1.7600 -2.0149
   27MOL    H9418866   4.547   4.494   5.703 -1.0386 -3.4244 -0.2591
   27MOL    H9518867   4.457   4.356   5.535 -1.0859  1.9977  0.7156
   27MOL    H9618868   4.575   4.423   5.413 -0.0628 -0.5062  0.3509
   27MOL    H9718869   4.759   4.354   5.560  0.1025 -1.3086 -0.5609
   27MOL    H9818870   4.671   4.229   5.494 -2.4792  0.9381 -0.1937
   27MOL    H9918871   4.614   4.322   5.777 -2.3993 -0.5055 -0.0343
   27MOL   H10018872   4.521   4.197   5.695 -0.7306  0.9048 -0.8517
   27MOL   H10118873   4.821   4.162   5.743  0.3683 -0.7923 -0.0968
   27MOL   H10218874   4.704   4.051   5.679  3.2818  0.6400 -0.7332
   27MOL   H10318875   4.745   3.990   5.893 -1.4140 -0.0558 -2.5397
   27MOL   H10418876   4.580   4.032   5.859 -0.5216  1.1818  2.8888
   27MOL   H10518877   4.758   4.236   6.008  0.5385 -0.2699 -0.2981
   27MOL   H10618878   4.587   4.228   6.009  0.0324  0.3753 -1.3824
   27MOL   H10718879   4.774   4.035   6.148  0.0791  1.7120  1.5817
   27MOL   H10818880   4.429   4.654   5.799 -1.5953  1.1126 -0.1478
   27MOL   H10918881   4.407   4.841   5.949 -2.2135 -0.3289 -1.7418
   27MOL   C11018882   4.605   4.105   6.236 -0.7114  0.2429  0.2202
   27MOL   O11118883   4.506   4.179   6.235 -0.0747  0.8419 -0.5012
   27MOL   C11218884   4.641   4.032   6.366  0.6971  0.0781 -0.3810
   27MOL   C11318885   4.678   3.897   6.363 -0.1368 -0.1644 -0.8464
   27MOL   C11418886   4.722   3.838   6.484 -0.4290 -0.5385 -0.1728
   27MOL   C11518887   4.743   3.917   6.600 -0.3444  0.2168  0.5510
   27MOL   C11618888   4.812   3.864   6.722 -0.0041 -0.7484 -0.5514
   27MOL   O11718889   4.901   3.924   6.777  0.0993 -0.2760  0.5590
   27MOL   N11818890   4.779   3.736   6.750  0.3815 -0.4186 -0.0441
   27MOL   C11918891   4.823   3.642   6.861 -0.0866 -0.8988  0.2947
   27MOL   C12018892   4.878   3.519   6.795  0.1883  0.0441  0.5940
   27MOL   C12118893   4.891   3.392   6.881 -0.8769  0.6599 -0.9831
   27MOL   C12218894   5.022   3.369   6.958 -1.0110 -0.6119 -0.2762
   27MOL   C12318895   5.039   3.456   7.079  0.0658 -0.0988 -0.6134
   27MOL   C12418896   5.150   3.395   7.175 -0.5614  0.2052 -0.0691
   27MOL   N12518897   5.150   3.462   7.296 -0.5611 -0.6110  0.3569
   27MOL   C12618898   4.702   4.050   6.600 -0.3102 -0.1129  0.2342
   27MOL   C12718899   4.649   4.110   6.484 -0.4637  0.5032  0.0221
   27MOL   H12818900   4.683   3.837   6.274 -1.4464 -1.4265 -0.0885
   27MOL   H12918901   4.762   3.738   6.479 -1.5937 -0.9176 -2.3540
   27MOL   H13018902   4.699   3.701   6.699  1.0595 -0.8315 -0.8387
   27MOL   H13118903   4.906   3.681   6.919  1.1802 -1.7027 -0.9719
   27MOL   H13218904   4.739   3.620   6.927 -0.1901 -2.6736 -0.4152
   27MOL   H13318905   4.977   3.526   6.748 -0.3859  1.5703 -0.4330
   27MOL   H13418906   4.811   3.502   6.711 -0.0350  1.9684  0.3564
   27MOL   H13518907   4.811   3.390   6.956 -1.3400  0.3025 -1.4777
   27MOL   H13618908   4.861   3.297   6.835 -0.3426 -0.4666  0.9245
   27MOL   H13718909   5.109   3.368   6.892  0.4980 -1.6745  1.6844
   27MOL   H13818910   5.024   3.271   7.007  1.1828 -1.2705 -1.6069
   27MOL   H13918911   4.959   3.431   7.149  2.6384 -1.6269  1.8909
   27MOL   H14018912   5.040   3.564   7.065  1.7468 -0.0391 -0.1122
   27MOL   H14118913   5.142   3.289   7.197  2.3979 -0.1809 -0.6935
   27MOL   H14218914   5.248   3.417   7.132  0.3230 -0.8944  1.3287
   27MOL   H14318915   5.062   3.488   7.339 -0.2079  1.5611 -0.1523
   27MOL   H14418916   4.708   4.113   6.688 -0.6632  1.5365 -0.9050
   27MOL   H14518917   4.612   4.211   6.487 -0.0122  0.7335 -1.5618
   27MOL   C14618918   5.255   3.463   7.382 -0.2598  0.3037  0.5103
   27MOL   O14718919   5.363   3.411   7.358 -0.3714  0.4198  0.2111
   27MOL   C14818920   5.235   3.541   7.512 -0.1341 -0.2523  0.0259
   27MOL   C14918921   5.343   3.552   7.597  0.3438 -0.7056  0.1820
   27MOL   C15018922   5.328   3.630   7.714 -0.0042  0.3834 -0.1545
   27MOL   C15118923   5.208   3.703   7.735 -0.2354  0.1775 -0.1471
   27MOL   C15218924   5.192   3.788   7.852 -0.1676  0.6218  0.1494
   27MOL   O15318925   5.078   3.827   0.002 -0.2005 -0.1758  0.0883
   27MOL   N15418926   5.302   3.810   0.040  0.1173 -0.4095  0.0470
   27MOL   C15518927   5.296   3.889   0.158 -0.1481 -0.2167 -0.2875
   27MOL   C15618928   5.435   3.912   0.208 -0.5585  0.5926  0.2964
   27MOL   C15718929   5.521   3.989   0.113 -0.1307  0.2272 -0.4383
   27MOL   C15818930   5.653   4.026   0.171  0.0786  0.3564 -0.4935
   27MOL   C15918931   5.746   4.108   0.071  0.5590 -0.0546  0.2276
   27MOL   C16018932   5.897   4.120   0.104 -0.5278 -0.7022 -0.1491
   27MOL   N16118933   5.955   4.196   7.881 -0.5256 -0.1732 -0.4147
   27MOL   C16218934   5.100   3.686   7.649  0.0771  0.6584  0.0041
   27MOL   C16318935   5.115   3.599   7.539  0.5578 -0.1739 -0.4976
   27MOL   H16418936   5.439   3.509   7.575  0.7844  0.1945  0.3533
   27MOL   H16518937   5.416   3.647   7.774 -0.2038  1.9929 -0.2945
   27MOL   H16618938   5.393   3.778   0.014  0.3698 -0.5658  1.0813
   27MOL   H16718939   5.234   3.977   0.140 -0.4776 -0.0750  1.4323
   27MOL   H16818940   5.236   3.838   0.233 -0.2076 -1.8152 -1.4043
   27MOL   H16918941   5.474   3.817   0.243 -1.5716 -0.0565 -0.3286
   27MOL   H17018942   5.427   3.967   0.302 -2.0922  2.3399 -0.8267
   27MOL   H17118943   5.535   3.935   0.019 -0.2198  0.1879 -0.4292
   27MOL   H17218944   5.460   4.075   0.083  0.3619  0.4750 -0.7328
   27MOL   H17318945   5.698   3.931   0.199 -2.5388 -0.3553  1.5284
   27MOL   H17418946   5.619   4.090   0.252  0.6433 -0.3505  0.3064
   27MOL   H17518947   5.693   4.202   0.057 -0.3562 -0.0789  3.1882
   27MOL   H17618948   5.741   4.058   7.860 -1.1072 -0.5640  0.5592
   27MOL   H17718949   5.902   4.184   0.192 -2.9277 -0.4139 -0.1793
   27MOL   H17818950   5.948   4.024   0.109 -2.1359 -1.5212  0.8547
   27MOL   H17918951   5.999   4.141   7.809  0.2825 -0.9421  0.6459
   27MOL   H18018952   5.014   3.743   7.680  0.9748  1.5641  0.8824
   27MOL   H18118953   5.030   3.588   7.474 -0.0668 -0.5864  0.3856
   27MOL   C18218954   5.950   4.334   7.872  0.7732 -0.4614 -0.1623
   27MOL   O18318955   5.931   4.414   0.077 -0.0689  0.2189 -0.7060
   27MOL   C18418956   5.963   4.385   7.734  0.3401 -0.7433 -0.3149
   27MOL   C18518957   5.915   4.313   7.618  0.2561  0.2521 -0.6331
   27MOL   C18618958   5.934   4.364   7.490  0.1786 -0.0915  0.2737
   27MOL   C18718959   5.990   4.489   7.478  0.4270 -0.7923 -0.1686
   27MOL   C18818960   6.012   4.552   7.340  0.2859  0.3668  0.4185
   27MOL   O18918961   6.090   4.643   7.332 -0.4119 -0.5559  0.8170
   27MOL   N19018962   5.943   4.508   7.239  0.0244 -0.6154  0.1871
   27MOL   C19118963   5.953   4.569   7.103  0.0220 -0.7216  0.7671
   27MOL   C19218964   6.087   4.546   7.040  0.1061  0.6405  0.4591
   27MOL   C19318965   6.101   4.600   6.895  0.0429  0.0912  0.2117
   27MOL   C19418966   6.039   4.516   6.782  0.3818  0.5327  0.1834
   27MOL   C19518967   6.025   4.599   6.648  0.1519  0.4694  0.4010
   27MOL   C19618968   5.991   4.520   6.520 -0.3866 -0.5461 -0.2035
   27MOL   N19718969   6.102   4.431   6.483  0.7305 -0.3338 -0.4982
   27MOL   C19818970   6.026   4.569   7.593 -0.2634  0.2805  0.3860
   27MOL   C19918971   6.025   4.513   7.721  0.4043 -0.3405  0.7847
   27MOL   H20018972   5.865   4.218   7.627  0.6539  0.1662  0.8705
   27MOL   H20118973   5.902   4.304   7.406 -1.5229 -0.2452  0.9962
   27MOL   H20218974   5.863   4.447   7.254 -0.1768 -0.1184  1.1791
   27MOL   H20318975   5.877   4.533   7.034  0.1945  1.4262 -0.6008
   27MOL   H20418976   5.935   4.676   7.110 -1.6287 -0.8363 -1.4093
   27MOL   H20518977   6.107   4.439   7.041  1.5812  0.9099  0.0015
   27MOL   H20618978   6.170   4.596   7.090 -0.6027  0.0650  2.2625
   27MOL   H20718979   6.044   4.692   6.905  1.6163  0.9826  1.0650
   27MOL   H20818980   6.204   4.630   6.874  0.6038 -1.0217  1.2647
   27MOL   H20918981   5.949   4.466   6.818 -1.1342  2.4594 -0.7820
   27MOL   H21018982   6.099   4.427   6.764  0.3355  0.4553  0.4169
   27MOL   H21118983   6.114   4.659   6.631 -0.1100  0.7377 -0.0463
   27MOL   H21218984   5.950   4.678   6.657 -0.2494  0.0180  1.0898
   27MOL   H21318985   5.901   4.460   6.538 -0.6664  0.4273  1.8370
   27MOL   H21418986   5.982   4.600   6.447  0.3833  0.6688  1.0160
   27MOL   H21518987   6.118   4.345   6.533  0.3033  0.6928  1.4653
   27MOL   H21618988   6.043   4.673   7.569 -2.5450  0.6773  0.3760
   27MOL   H21718989   6.059   4.573   7.804  0.0029  1.5072 -0.3650
   27MOL   C21818990   6.178   4.443   6.369  0.1113  0.0889  0.7453
   27MOL   O21918991   6.160   4.526   6.284 -0.0944  0.2213 -0.0988
   27MOL   C22018992   6.287   4.341   6.355 -0.1233 -0.6685  0.8519
   27MOL   C22118993   6.370   4.314   6.468 -0.1204  1.2176  0.7615
   27MOL   C22218994   6.478   4.221   6.461  0.5742  0.0447 -0.2572
   27MOL   C22318995   6.497   4.146   6.345 -0.1161  0.6776 -0.0287
   27MOL   C22418996   6.599   4.036   6.332  0.0497 -0.3277  0.2165
   27MOL   O22518997   6.639   4.010   6.222 -0.3759 -0.1648 -0.8793
   27MOL   N22618998   6.636   3.978   6.445  0.8185  0.0471  0.1336
   27MOL   C22718999   6.748   3.884   6.446 -0.0567  0.0373  0.1661
   27MOL   C22819000   6.724   3.752   6.378  0.1994 -0.2507  0.4959
   27MOL   C22919001   6.812   3.628   6.416  0.1546  0.1776 -0.1517
   27MOL   C23019002   6.786   3.492   6.340 -0.1245  0.0670 -0.0190
   27MOL   C23119003   6.642   3.458   6.314 -0.3756  0.1915  0.1475
   27MOL   C23219004   6.646   3.322   6.251 -0.1658  0.0259  0.1701
   27MOL   N23319005   6.520   3.254   6.216  0.5699 -0.0345  0.3830
   27MOL   C23419006   6.413   4.173   6.237  0.1978  0.1069 -0.0671
   27MOL   C23519007   6.316   4.273   6.236  0.4200 -0.4701 -0.4091
   27MOL   H23619008   6.353   4.376   6.554 -2.8911  1.6990 -0.0852
   27MOL   H23719009   6.552   4.232   6.538  0.0263 -1.6063  0.5265
   27MOL   H23819010   6.599   4.009   6.534  1.5950  1.5992 -0.0695
   27MOL   H23919011   6.840   3.928   6.409  1.3005 -1.1688  2.0031
   27MOL   H24019012   6.758   3.870   6.554 -3.8757  1.3070  0.7687
   27MOL   H24119013   6.739   3.767   6.271 -2.4740 -3.7732 -0.4752
   27MOL   H24219014   6.619   3.724   6.385 -0.1390 -0.2442 -3.3139
   27MOL   H24319015   6.918   3.654   6.413  0.0330  0.7786  0.4975
   27MOL   H24419016   6.803   3.611   6.523  0.0142  0.6268 -0.0911
   27MOL   H24519017   6.836   3.406   6.384 -0.7581  0.0099  0.6036
   27MOL   H24619018   6.838   3.507   6.246 -0.5293 -0.6376 -0.3622
   27MOL   H24719019   6.611   3.530   6.238 -2.4532 -2.3737 -1.5433
   27MOL   H24819020   6.583   3.465   6.406  1.4005  0.3844  1.2792
   27MOL   H24919021   6.685   3.349   6.153 -1.5846  0.7358 -0.2147
   27MOL   H25019022   6.713   3.252   6.299 -0.0365 -0.0155 -0.0691
   27MOL   H25119023   6.509   3.160   6.252 -0.3458 -1.2472 -2.8516
   27MOL   H25219024   6.426   4.108   6.152  2.3638  0.9890 -0.4382
   27MOL   H25319025   6.256   4.292   6.148  1.7978  1.1018 -1.0283
   27MOL   C25419026   6.434   3.304   6.118 -0.1566 -0.2658 -0.3275
   27MOL   O25519027   6.443   3.421   6.077  0.3792 -0.3013  0.5077
   27MOL   C25619028   6.324   3.215   6.062 -0.0882 -0.7908  0.1966
   27MOL   C25719029   6.218   3.281   5.990 -0.2650 -0.2885  0.3470
   27MOL   C25819030   6.114   3.204   5.945  0.1239 -0.0861 -0.1222
   27MOL   C25919031   6.106   3.067   5.975 -0.1755 -0.1254  0.5719
   27MOL   C26019032   5.982   2.990   5.938 -0.5162  0.4501  0.3178
   27MOL   O26119033   5.885   3.048   5.895  0.8764 -0.7213 -0.2932
   27MOL   N26219034   5.982   2.856   5.959  0.0257  0.0702  0.1610
   27MOL   C26319035   5.861   2.784   5.925 -0.4098 -0.1419 -0.4054
   27MOL   C26419036   5.870   2.638   5.971 -0.3520  0.0323  0.2824
   27MOL   C26519037   5.740   2.562   5.938 -0.9295 -0.1154 -0.5343
   27MOL   C26619038   5.752   2.409   5.956 -0.0356  0.3139 -0.2653
   27MOL   C26719039   5.623   2.335   5.918 -0.2818  0.9671 -0.0237
   27MOL   C26819040   5.638   2.176   5.919  0.2682  0.3992  0.1222
   27MOL   N26919041   5.734   2.143   5.816  0.0331  0.7758 -0.0455
   27MOL   C27019042   6.207   3.007   6.053 -0.5148  0.4448 -0.3709
   27MOL   C27119043   6.316   3.078   6.091 -0.4096  0.1700 -0.2802
   27MOL   H27219044   6.225   3.388   5.980  2.1944 -0.3413  1.2937
   27MOL   H27319045   6.036   3.249   5.886  0.0257 -0.2000 -0.0801
   27MOL   H27419046   6.064   2.808   5.992  0.5999 -0.5444 -2.0333
   27MOL   H27519047   5.772   2.818   5.978 -0.2498 -2.4246  1.4076
   27MOL   H27619048   5.837   2.807   5.821 -0.7272 -2.3264 -0.8352
   27MOL   H27719049   5.887   2.640   6.078  1.0953 -1.3362  0.0877
   27MOL   H27819050   5.956   2.587   5.929 -0.4155 -0.3497  0.6144
   27MOL   H27919051   5.659   2.591   6.005  0.2010  0.8943  0.4141
   27MOL   H28019052   5.706   2.575   5.835  0.7704 -2.3453 -1.3998
   27MOL   H28119053   5.789   2.379   6.054  2.7480  0.2763 -1.2825
   27MOL   H28219054   5.837   2.378   5.896  0.1921  0.7950 -0.1927
   27MOL   H28319055   5.587   2.368   5.821 -0.7049  0.0839 -0.1720
   27MOL   H28419056   5.549   2.364   5.993  0.1167 -0.0286  0.7798
   27MOL   H28519057   5.687   2.139   6.009 -0.3935 -0.3305  0.1894
   27MOL   H28619058   5.539   2.131   5.915  0.2706  0.4307 -0.2675
   27MOL   H28719059   5.831   2.146   5.844 -0.1503  1.2264  0.5587
   27MOL   H28819060   6.208   2.902   6.077 -0.4169  0.6481  0.5243
   27MOL   H28919061   6.395   3.033   6.150  1.5739  1.0370 -2.2201
   27MOL   C29019062   5.700   2.119   5.688  0.3672  0.0222 -0.0306
   27MOL   O29119063   5.587   2.125   5.641  0.2106 -0.2605  0.5672
   27MOL   C29219064   5.822   2.082   5.604 -0.3434 -0.0666 -0.2457
   27MOL   C29319065   5.801   2.042   5.474 -0.3279 -0.3324 -0.5444
   27MOL   C29419066   5.904   1.991   5.397 -0.2020 -0.3806 -0.7597
   27MOL   C29519067   6.036   1.971   5.443  0.8516  0.0278  0.2894
   27MOL   C29619068   6.140   1.911   5.359 -0.1321 -0.1257 -0.1409
   27MOL   O29719069   6.118   1.812   5.289 -0.9139  0.5293 -0.8552
   27MOL   N29819070   6.263   1.972   5.366 -0.0341 -0.4304 -0.6548
   27MOL   C29919071   6.380   1.924   5.291  0.3383  0.3700  0.2879
   27MOL   C30019072   6.466   1.818   5.358  0.5814  0.1249  0.3649
   27MOL   C30119073   6.521   1.848   5.501  0.4743 -0.7357  0.2198
   27MOL   C30219074   6.425   1.812   5.615  0.0040 -1.0538  0.2642
   27MOL   C30319075   6.449   1.883   5.749 -0.9091  0.2642  0.6013
   27MOL   C30419076   6.580   1.844   5.822 -0.0956  0.1839  0.6921
   27MOL   N30519077   6.701   1.892   5.751  0.8180  0.6152  0.2312
   27MOL   C30619078   6.060   2.019   5.571  0.3024 -0.2261 -0.1904
   27MOL   C30719079   5.955   2.065   5.652 -0.3452 -0.2312 -0.1372
   27MOL   H30819080   5.698   2.033   5.443 -0.3045  0.0295 -0.7322
   27MOL   H30919081   5.882   1.951   5.299  1.1328 -0.6138 -0.9703
   27MOL   H31019082   6.285   2.051   5.426 -2.7466 -0.2493  0.1669
   27MOL   H31119083   6.353   1.891   5.191  1.5880 -0.7598  0.3219
   27MOL   H31219084   6.444   2.011   5.276  2.4591 -1.7222 -3.1824
   27MOL   H31319085   6.551   1.807   5.290  0.7096  0.5215  0.4555
   27MOL   H31419086   6.417   1.721   5.348 -0.2603  0.4996  0.8511
   27MOL   H31519087   6.617   1.800   5.519  0.3261 -0.9995  0.3064
   27MOL   H31619088   6.543   1.955   5.500 -3.3006  0.1074 -0.4718
   27MOL   H31719089   6.413   1.705   5.626 -1.6420 -1.0012 -0.9287
   27MOL   H31819090   6.325   1.848   5.591  0.8047  0.4535 -0.9235
   27MOL   H31919091   6.369   1.872   5.822  0.1744  0.1696  1.7985
   27MOL   H32019092   6.462   1.988   5.726 -0.6552  0.0135 -0.3927
   27MOL   H32119093   6.579   1.882   5.924  2.2548  2.1415  0.0458
   27MOL   H32219094   6.606   1.738   5.825  1.6596  0.5255 -1.1091
   27MOL   H32319095   6.678   1.934   5.662  0.4042 -3.7013 -1.7983
   27MOL   H32419096   6.161   2.015   5.608  0.2606  0.3278 -0.0262
   27MOL   H32519097   5.985   2.091   5.753  0.0370 -1.2130  0.0059
   27MOL   C32619098   6.824   1.892   5.798 -0.7485  0.3317  0.1031
   27MOL   O32719099   6.852   1.871   5.915 -0.0365 -0.0206  0.3740
   27MOL   C32819100   6.926   1.929   5.700  0.2112 -0.5914 -0.0362
   27MOL   C32919101   7.049   1.983   5.757 -0.6108  0.3658 -0.0521
   27MOL   C33019102   7.155   2.027   5.674  0.3649  0.5997  0.1731
   27MOL   C33119103   7.141   2.014   5.530 -0.1186 -0.1401 -0.0248
   27MOL   C33219104   7.236   2.067   5.433  0.2898 -0.1757 -0.2092
   27MOL   O33319105   7.234   2.038   5.311 -0.3209  0.2552 -0.0630
   27MOL   N33419106   7.330   2.141   5.487 -0.1722  0.1674  0.2207
   27MOL   C33519107   7.440   2.213   5.425  0.3735  0.6077 -0.3111
   27MOL   C33619108   7.558   2.116   5.443 -0.4666  0.0308 -0.3042
   27MOL   C33719109   7.588   2.056   5.581 -0.3760 -0.7256  0.1353
   27MOL   C33819110   7.716   1.976   5.594  0.4880 -0.4239 -0.8648
   27MOL   C33919111   7.713   1.892   5.723 -0.3216 -0.3720 -0.4817
   27MOL   C34019112   7.738   1.973   5.857 -0.2824  0.0075  0.7528
   27MOL   N34119113   7.752   1.888   5.975 -0.1377 -0.4472 -0.0559
   27MOL   C34219114   7.025   1.939   5.483 -0.6433 -0.3549 -0.1412
   27MOL   C34319115   6.920   1.902   5.568  0.0365  0.2147  0.4803
   27MOL   H34419116   7.061   1.988   5.864 -0.6319 -0.6824 -0.0051
   27MOL   H34519117   7.240   2.077   5.720  0.5151  0.5423 -0.0423
   27MOL   H34619118   7.321   2.154   5.587 -0.4791 -2.2324  0.5514
   27MOL   H34719119   7.425   2.250   5.324  0.3754  1.0273 -0.1578
   27MOL   H34819120   7.466   2.307   5.475 -0.8142  0.7532  0.0361
   27MOL   H34919121   7.643   2.165   5.396  1.0608 -1.0896  1.2127
   27MOL   H35019122   7.548   2.034   5.371  1.9417  0.9502 -1.7486
   27MOL   H35119123   7.585   2.124   5.667  1.0638 -1.3908  0.7110
   27MOL   H35219124   7.501   1.994   5.602 -1.4897  0.1925 -1.6067
   27MOL   H35319125   7.803   2.040   5.606  0.6637 -1.1959  2.9330
   27MOL   H35419126   7.729   1.903   5.515 -0.8004 -0.5899 -0.9293
   27MOL   H35519127   7.796   1.822   5.712  0.9532  0.8270  1.2994
   27MOL   H35619128   7.625   1.828   5.727  0.5100 -1.4458  1.7908
   27MOL   H35719129   7.831   2.028   5.842  0.3414 -0.9561  0.9839
   27MOL   H35819130   7.657   2.043   5.875 -1.1269 -1.0493  1.1608
   27MOL   H35919131   7.792   1.798   5.951  3.2199  1.6777 -2.7981
   27MOL   H36019132   7.012   1.914   5.379  3.0541  1.1388 -1.0613
   27MOL   H36119133   6.834   1.853   5.524  0.0935 -0.3184  0.9534
   27MOL   C36219134   7.745   1.935   6.102  0.2412 -0.0596  0.0877
   27MOL   O36319135   7.707   2.048   6.127 -0.4897 -0.1033  0.3806
   27MOL   C36419136   7.791   1.845   6.209 -0.0490  0.1502 -0.0700
   27MOL   C36519137   7.704   1.810   6.313 -0.2275 -0.1260  0.3236
   27MOL   C36619138   7.743   1.724   6.417  0.2902 -0.6846 -0.6440
   27MOL   C36719139   7.878   1.680   6.421  0.5528  0.3160 -0.4531
   27MOL   C36819140   0.039   1.574   6.519 -0.5564  0.3490 -0.2594
   27MOL   O36919141   0.149   1.522   6.491  0.1620 -0.4559  0.0181
   27MOL   N37019142   7.856   1.552   6.628  0.3960 -0.7307 -0.1241
   27MOL   C37119143   0.037   1.499   6.738  1.0508 -0.5046  0.2757
   27MOL   C37219144   0.058   1.608   6.848 -0.2841  0.7524  0.1377
   27MOL   C37319145   0.102   1.546   6.977 -0.2345  0.3110  0.3193
   27MOL   C37419146   0.112   1.663   7.082  0.3758  0.1043 -0.5801
   27MOL   C37519147   0.176   1.618   7.216  0.2658  0.0086 -0.3553
   27MOL   C37619148   0.122   1.493   7.278  0.4660  0.3360 -0.7589
   27MOL   N37719149   7.863   1.501   7.295 -0.2921 -0.8602 -0.3579
   27MOL   C37819150   0.077   1.718   6.317  0.1618 -0.1652  0.0370
   27MOL   C37919151   0.038   1.799   6.210  0.2891  0.4494  0.5879
   27MOL   H38019152   7.602   1.842   6.321  0.6490  2.8098  0.4347
   27MOL   H38119153   7.664   1.696   6.485  1.1905 -0.9439  0.3095
   27MOL   H38219154   7.768   1.596   6.651 -0.6427 -3.2112  0.9280
   27MOL   H38319155   7.862   1.415   6.772  2.1287 -1.4615 -0.1142
   27MOL   H38419156   0.134   1.452   6.720  0.7675 -0.8630 -0.3261
   27MOL   H38519157   7.848   1.652   6.876 -0.4220 -0.1465  1.1535
   27MOL   H38619158   0.121   1.688   6.811 -0.4832  0.5786 -0.5821
   27MOL   H38719159   0.031   1.467   7.001  2.7088 -2.2931  0.8612
   27MOL   H38819160   0.200   1.500   6.965 -1.2155 -2.1304  1.2086
   27MOL   H38919161   0.024   1.725   7.093  1.0806  0.8600  0.8284
   27MOL   H39019162   0.180   1.733   7.033  1.0743  0.7602  1.2746
   27MOL   H39119163   0.183   1.705   7.282  2.4901  0.7662 -1.5596
   27MOL   H39219164   0.271   1.577   7.182  0.7863 -0.1887  1.2997
   27MOL   H39319165   0.142   1.401   7.224 -1.0829 -0.9501  0.7899
   27MOL   H39419166   0.165   1.494   7.378  0.3772 -0.1724 -0.7173
   27MOL   H39519167   7.810   1.577   7.254 -0.2449 -2.0230 -2.6837
   27MOL   H39619168   0.183   1.699   6.331 -0.0575 -1.2492  0.2664
   27MOL   H39719169   0.107   1.827   6.131 -0.3853  0.9128  0.1524
   27MOL   C39819170   7.790   1.423   7.372  0.6032  0.3127  0.2303
   27MOL   O39919171   7.850   1.337   7.441 -0.6451 -0.1490  0.4529
   27MOL   C40019172   7.644   1.428   7.342  0.4283  0.0830 -0.3013
   27MOL   C40119173   7.578   1.306   7.323 -0.6737  0.2971  0.1238
   27MOL   C40219174   7.442   1.298   7.287 -0.3262  0.1539  0.6297
   27MOL   C40319175   7.375   1.414   7.260 -0.5949  0.6559 -0.4394
   27MOL   C40419176   7.227   1.403   7.222 -0.0800 -0.2071  0.0776
   27MOL   O40519177   7.162   1.495   7.261  0.0043  0.3382 -0.9760
   27MOL   N40619178   7.186   1.296   7.151  0.3846  0.1510 -0.0125
   27MOL   C40719179   7.048   1.247   7.143 -0.0202 -0.0910  0.8421
   27MOL   C40819180   6.992   1.239   6.995 -0.4066 -0.2275 -0.1162
   27MOL   C40919181   6.838   1.213   6.988  0.1367 -0.1453 -0.4649
   27MOL   C41019182   6.780   1.233   6.852  0.2750 -0.5824 -0.8131
   27MOL   C41119183   6.630   1.239   6.846 -0.3650 -0.5954 -0.6213
   27MOL   C41219184   6.568   1.229   6.707  0.2261  0.2147  0.6305
   27MOL   N41319185   6.578   1.092   6.650 -0.6462 -0.1487  0.1304
   27MOL   C41419186   7.438   1.538   7.273 -0.0066 -0.2495 -0.4895
   27MOL   C41519187   7.576   1.547   7.307 -0.0981  0.1939 -0.2423
   27MOL   H41619188   7.641   1.218   7.320 -0.6516  0.3245 -0.1678
   27MOL   H41719189   7.408   1.198   7.266  1.9207 -0.1571 -1.9399
   27MOL   H41819190   7.255   1.253   7.089  0.6761  1.9721 -0.9859
   27MOL   H41919191   7.043   1.147   7.185  0.5192 -0.0044  1.1118
   27MOL   H42019192   6.986   1.305   7.212  0.0436  2.1598 -0.9192
   27MOL   H42119193   7.054   1.161   6.952 -0.9503 -1.2159  0.8582
   27MOL   H42219194   7.011   1.336   6.949 -2.6291  0.2369 -0.1329
   27MOL   H42319195   6.810   1.110   7.007 -0.1257 -0.3563 -1.9580
   27MOL   H42419196   6.782   1.273   7.060 -1.0851 -0.3167 -1.2664
   27MOL   H42519197   6.823   1.159   6.785  0.1525 -0.8260 -0.6245
   27MOL   H42619198   6.810   1.332   6.819 -1.1537 -0.5337 -2.0399
   27MOL   H42719199   6.593   1.337   6.876  0.0722 -0.1717 -1.4554
   27MOL   H42819200   6.575   1.165   6.905  2.2032 -1.6771  0.5078
   27MOL   H42919201   6.460   1.247   6.705  0.1894 -0.1161 -1.0032
   27MOL   H43019202   6.610   1.301   6.637  0.5449 -0.0722  0.5239
   27MOL   H43119203   6.536   1.015   6.701  2.8870 -0.8881  2.0633
   27MOL   H43219204   7.388   1.631   7.250  1.4815  0.7134  0.0687
   27MOL   H43319205   7.620   1.644   7.328  1.7901 -0.4840 -0.9805
   27MOL   C43419206   6.635   1.067   6.530 -0.0572 -0.2249 -0.0263
   27MOL   O43519207   6.706   1.147   6.463  0.1385 -0.0034 -0.1097
   27MOL   C43619208   6.624   0.925   6.480  0.3558  0.5919  0.2421
   27MOL   C43719209   6.520   0.835   6.520 -0.2169 -0.3149  0.0589
   27MOL   C43819210   6.524   0.704   6.470 -0.6719  0.4544 -0.1068
   27MOL   C43919211   6.628   0.656   6.385  0.1174 -0.2032  0.5531
   27MOL   C44019212   6.625   0.516   6.328  0.2505 -0.5395 -0.4390
   27MOL   O44119213   6.597   0.425   6.402  0.3491 -0.0986  0.4643
   27MOL   N44219214   6.649   0.510   6.199  0.0979 -0.4950  0.1393
   27MOL   C44319215   6.610   0.404   6.107  0.8923 -0.3507 -0.7406
   27MOL   C44419216   6.732   0.346   6.032 -1.0640 -1.3005  0.2177
   27MOL   C44519217   6.703   0.250   5.916 -0.0620 -0.4402 -0.4969
   27MOL   C44619218   6.829   0.206   5.842 -0.3216 -0.3277  1.3469
   27MOL   C44719219   6.818   0.159   5.697 -0.2243 -0.1260 -0.0925
   27MOL   C44819220   6.954   0.123   5.624 -0.3027 -0.2079  0.3645
   27MOL   N44919221   7.054   0.074   5.717 -0.5539  0.3504 -0.0684
   27MOL   C45019222   6.724   0.746   6.343 -0.0173 -0.4220 -0.0328
   27MOL   C45119223   6.723   0.883   6.390  0.4013 -0.4461 -0.2210
   27MOL   H45219224   6.438   0.865   6.583  1.3463  1.1625  1.4183
   27MOL   H45319225   6.452   0.633   6.507  1.5346 -1.0059  1.5498
   27MOL   H45419226   6.693   0.592   6.161 -0.8306  0.0692  0.2632
   27MOL   H45519227   6.579   0.324   6.174 -0.4946  0.4209 -0.4270
   27MOL   H45619228   6.545   0.446   6.031  0.0150 -2.1069 -0.9581
   27MOL   H45719229   6.776   0.286   6.112  0.6526 -0.3850 -0.0213
   27MOL   H45819230   6.803   0.417   5.991  1.0624 -3.0338  0.7765
   27MOL   H45919231   6.656   0.161   5.958  1.6534  0.0470  2.5255
   27MOL   H46019232   6.626   0.291   5.851  0.2996 -0.2089 -0.7822
   27MOL   H46119233   6.881   0.128   5.899  0.0901 -1.6203 -0.7405
   27MOL   H46219234   6.904   0.284   5.833  0.3269 -1.0288  0.6133
   27MOL   H46319235   6.763   0.235   5.641  1.3651  0.8154 -0.4013
   27MOL   H46419236   6.760   0.067   5.702 -2.2231  1.0478 -0.8583
   27MOL   H46519237   6.930   0.053   5.544  2.5406  1.3348 -1.9390
   27MOL   H46619238   6.995   0.208   5.568  1.6308 -0.0092  2.0438
   27MOL   H46719239   7.025   7.884   5.778  0.6599 -1.0670 -1.2304
   27MOL   H46819240   6.809   0.718   6.282  0.4957 -0.4893  0.7159
   27MOL   H46919241   6.795   0.956   6.356 -1.9156  2.8901  1.6847
   27MOL   C47019242   7.188   0.093   5.713 -0.0288 -0.9728 -0.6218
   27MOL   O47119243   7.241   0.156   5.621 -0.0415 -0.6296 -0.1375
   27MOL   C47219244   7.270   0.033   5.821 -0.4474 -0.3235 -0.9578
   27MOL   C47319245   7.406   0.005   5.800 -0.0840  0.1358  0.5235
   27MOL   C47419246   7.491   7.842   5.899  0.3542  0.6857 -0.2019
   27MOL   C47519247   7.429   7.818   6.028 -0.1649  0.4565  0.3651
   27MOL   C47619248   7.500   7.758   6.149  0.8384  0.3000  0.3455
   27MOL   O47719249   7.439   7.731   6.251  0.0635  0.2144 -0.5176
   27MOL   N47819250   7.638   7.752   6.138 -0.7426 -0.0573  0.0683
   27MOL   C47919251   7.715   7.735   6.257  0.2257 -0.6676 -0.0814
   27MOL   C48019252   7.770   7.871   6.309 -0.5859  0.3034  0.7646
   27MOL   C48119253   7.870   0.060   6.215 -0.4616 -0.1513 -0.5438
   27MOL   C48219254   0.058   0.174   6.291  1.0937  0.3611 -0.1711
   27MOL   C48319255   0.164   0.124   6.387  0.3953 -0.3743 -0.0029
   27MOL   C48419256   0.225   0.239   6.479 -0.2946 -0.7427  0.2226
   27MOL   N48519257   0.296   0.182   6.588  0.1799  0.3691  0.2131
   27MOL   C48619258   7.300   7.852   6.055  0.0246  0.4222  0.0063
   27MOL   C48719259   7.218   0.016   5.955  0.2644  0.2758 -0.3195
   27MOL   H48819260   7.452   0.038   5.708  0.5754  2.0634  1.5329
   27MOL   H48919261   7.592   7.813   5.873  0.3708  0.1207  0.5176
   27MOL   H49019262   7.691   7.791   6.061  0.0214 -1.3184 -0.0453
   27MOL   H49119263   7.674   7.684   6.344  1.5062  1.8345  2.0725
   27MOL   H49219264   7.792   7.667   6.219 -1.9945 -1.0366 -4.1326
   27MOL   H49319265   7.821   7.852   6.404 -1.3159  1.7619  1.4626
   27MOL   H49419266   7.688   0.048   6.344 -0.4023  0.0548  1.6485
   27MOL   H49519267   0.049   7.874   6.165  0.8562  0.6680 -0.0215
   27MOL   H49619268   7.819   0.099   6.127 -0.7843 -0.9332 -0.7125
   27MOL   H49719269   7.869   0.239   6.336  0.7987  1.4947 -2.2571
   27MOL   H49819270   0.100   0.252   6.228  1.1360  0.3059 -0.2105
   27MOL   H49919271   0.242   0.079   6.326 -0.9052 -2.0882 -0.4384
   27MOL   H50019272   0.115   0.054   6.454 -1.1278 -0.2828 -1.0114
   27MOL   H50119273   0.297   0.291   6.416 -0.5433 -1.7264 -0.9065
   27MOL   H50219274   0.146   0.309   6.506 -0.0479 -1.0053  1.6995
   27MOL   H50319275   0.372   0.118   6.569 -1.1607 -1.8833  2.2191
   27MOL   H50419276   7.255   7.837   6.152  1.2259  1.6368  0.7785
   27MOL   H50519277   7.124   0.063   5.979  1.8624  1.4304  4.2399
   27MOL   C50619278   0.256   0.201   6.713  0.7563  0.2842 -0.4056
   27MOL   O50719279   0.164   0.267   6.743  0.6014  0.0400  0.0187
   27MOL   C50819280   0.334   0.125   6.818  0.6780 -0.0709 -0.1199
   27MOL   C50919281   0.474   0.096   6.806  0.2673 -0.0763  1.2640
   27MOL   C51019282   0.555   0.041   6.913 -0.2308 -0.5463  0.3622
   27MOL   C51119283   0.500   0.024   7.037  0.4448  0.2085 -0.0927
   27MOL   C51219284   0.587   7.849   7.143  0.3818  0.3460 -0.9217
   27MOL   O51319285   0.711   7.845   7.137  0.0965  0.2621  0.2688
   27MOL   N51419286   0.521   7.798   7.251  0.0402  0.0319  0.6428
   27MOL   C51519287   0.598   7.748   7.363  0.0336  0.5474 -0.4167
   27MOL   C51619288   0.620   7.601   7.372  0.0924  0.5831  0.4738
   27MOL   C51719289   0.689   7.532   7.257 -0.6174  0.5319 -0.2763
   27MOL   C51819290   0.734   7.389   7.295 -0.5468  0.6355  0.0848
   27MOL   C51919291   0.777   7.318   7.167  0.0607  0.4510 -0.3845
   27MOL   C52019292   0.829   7.171   7.190  0.5478 -0.3983  0.7947
   27MOL   N52119293   0.951   7.164   7.268 -0.4026 -0.3041  0.1009
   27MOL   C52219294   0.360   0.051   7.054  0.4236 -0.0391  0.5199
   27MOL   C52319295   0.280   0.108   6.947  0.9737 -0.2674  0.6653
   27MOL   H52419296   0.512   0.126   6.709  2.8963 -4.0414  0.9481
   27MOL   H52519297   0.660   0.019   6.900 -0.5851 -1.2768 -1.3634
   27MOL   H52619298   0.425   7.767   7.247  0.3739 -0.9307  0.0667
   27MOL   H52719299   0.695   7.796   7.372  0.1559 -0.1760  3.0740
   27MOL   H52819300   0.540   7.770   7.453 -1.5630  1.3721 -1.6259
   27MOL   H52919301   0.535   7.543   7.409  0.4506 -0.1066  0.2129
   27MOL   H53019302   0.690   7.589   7.455  0.7388 -0.6573 -0.2527
   27MOL   H53119303   0.619   7.531   7.173 -1.0536 -0.6087  0.0884
   27MOL   H53219304   0.773   7.594   7.225 -0.2683 -0.4973 -1.4196
   27MOL   H53319305   0.655   7.328   7.339  0.6377 -2.0756 -1.4218
   27MOL   H53419306   0.827   7.392   7.352 -0.5230 -1.4975  0.2163
   27MOL   H53519307   0.849   7.385   7.122 -0.5210  1.1806 -0.2329
   27MOL   H53619308   0.689   7.296   7.106 -0.6666  1.0782  0.4172
   27MOL   H53719309   0.753   7.104   7.232  0.2950 -0.3941  0.3527
   27MOL   H53819310   0.852   7.127   7.093  0.5882 -1.3466  1.2250
   27MOL   H53919311   0.942   7.099   7.345 -1.6217 -1.1766 -0.7516
   27MOL   H54019312   0.306   0.035   7.146  2.1289 -1.5283  1.2865
   27MOL   H54119313   0.175   0.119   6.968  0.3145 -2.6252 -1.2180
   27MOL   C54219314   1.066   7.232   7.244 -0.1280  0.9322  0.4919
   27MOL   O54319315   1.089   7.309   7.153  0.0213 -0.1636 -0.7113
   27MOL   C54419316   1.183   7.198   7.332  0.3015  0.1597  0.6399
   27MOL   C54519317   1.163   7.187   7.473  0.5295  0.5712  0.2308
   27MOL   C54619318   1.272   7.147   7.551  0.5777  0.1279  0.4884
   27MOL   C54719319   1.395   7.118   7.501 -0.0703 -0.3734  0.1797
   27MOL   C54819320   1.507   7.070   7.589  0.1605  0.7248  0.3492
   27MOL   O54919321   1.532   7.122   7.694 -0.2312  0.3542 -0.6000
   27MOL   N55019322   1.561   6.956   7.547  0.3639  0.0976 -0.1255
   27MOL   C55119323   1.661   6.874   7.618  0.0503  0.0141  1.0154
   27MOL   C55219324   1.701   6.751   7.536 -0.0022 -0.2742  0.8869
   27MOL   C55319325   1.788   6.646   7.612 -0.0511  0.2740 -0.2372
   27MOL   C55419326   1.890   6.586   7.513  0.6496  0.7874 -0.6098
   27MOL   C55519327   1.970   6.474   7.578 -0.6292  0.3655  0.0559
   27MOL   C55619328   2.095   6.428   7.498 -0.0046  0.1197 -0.3602
   27MOL   N55719329   2.153   6.527   7.406  0.3341  0.8432  0.2219
   27MOL   C55819330   1.412   7.132   7.365 -0.5899 -0.2254  0.7566
   27MOL   C55919331   1.306   7.166   7.278 -0.6112  0.2482  0.1902
   27MOL   H56019332   1.066   7.202   7.517  0.3261  0.7777 -0.2822
   27MOL   H56119333   1.263   7.131   7.657 -0.5040 -1.1260  0.2226
   27MOL   H56219334   1.539   6.929   7.452 -1.4636  0.7364  0.0944
   27MOL   H56319335   1.756   6.920   7.646  1.5832 -2.9805  0.9096
   27MOL   H56419336   1.615   6.834   7.708  0.0988 -2.1923  0.0788
   27MOL   H56519337   1.753   6.789   7.449 -1.6395  0.2809  0.1307
   27MOL   H56619338   1.613   6.697   7.502  0.9835 -0.3061 -1.7209
   27MOL   H56719339   1.848   6.687   7.694  0.8018 -1.7797  0.1890
   27MOL   H56819340   1.722   6.570   7.654 -0.6032  1.1329  0.4922
   27MOL   H56919341   1.963   6.663   7.488  0.2537  1.1918 -0.5397
   27MOL   H57019342   1.840   6.548   7.424 -1.2239  1.2934  0.2035
   27MOL   H57119343   1.914   6.385   7.605 -0.0396 -0.0245 -0.0097
   27MOL   H57219344   2.017   6.515   7.667 -2.7911 -1.4787  2.1324
   27MOL   H57319345   2.170   6.371   7.553 -1.6595 -1.3249  0.4525
   27MOL   H57419346   2.056   6.342   7.443  0.6346  0.4584 -1.3547
   27MOL   H57519347   2.220   6.591   7.446 -0.3583  0.5465  1.9034
   27MOL   H57619348   1.500   7.103   7.310 -0.3450  0.0313  1.0100
   27MOL   H57719349   1.326   7.170   7.172  1.9391 -1.9479  0.5510
   27MOL   C57819350   2.138   6.533   7.274  0.0773  0.0825  0.4315
   27MOL   O57919351   2.091   6.450   7.200 -0.9418  0.0658 -0.6793
   27MOL   C58019352   2.199   6.649   7.202  0.0984 -0.6056  0.7710
   27MOL   C58119353   2.145   6.695   7.083 -0.4759  0.2252  0.2507
   27MOL   C58219354   2.190   6.818   7.019  0.2716  0.4950  0.5051
   27MOL   C58319355   2.291   6.893   7.086 -0.0141  0.7920  0.1527
   27MOL   C58419356   2.323   7.034   7.036 -0.0618  0.1132 -0.4295
   27MOL   O58519357   2.294   7.075   6.921  0.1203 -0.3361  0.1903
   27MOL   N58619358   2.368   7.126   7.125  0.0751 -0.1123 -0.1936
   27MOL   C58719359   2.387   7.265   7.099  0.0397 -0.6766  0.2552
   27MOL   C58819360   2.246   7.339   7.104 -0.3989 -0.0320  0.3304
   27MOL   C58919361   2.251   7.495   7.109  0.1949  0.7276  0.3485
   27MOL   C59019362   2.111   7.562   7.114 -0.1252  0.0534  0.3912
   27MOL   C59119363   2.030   7.566   6.981 -0.4549 -0.5016  0.1539
   27MOL   C59219364   1.880   7.599   7.010 -0.2552  0.4349  0.3404
   27MOL   N59319365   1.795   7.601   6.887 -0.0674 -0.1925 -0.0904
   27MOL   C59419366   2.357   6.841   7.203 -0.0946  0.8640  0.2688
   27MOL   C59519367   2.301   6.728   7.257 -1.0036 -0.4238  0.3656
   27MOL   H59619368   2.071   6.634   7.033 -1.9514  1.5096  0.8086
   27MOL   H59719369   2.148   6.851   6.925 -0.3072  0.1611  0.6387
   27MOL   H59819370   2.372   7.109   7.225  1.3165 -1.3788 -0.4357
   27MOL   H59919371   2.453   7.304   7.177  1.1085 -1.3188 -0.3210
   27MOL   H60019372   2.444   7.283   7.008 -0.0939  2.3539  0.7186
   27MOL   H60119373   2.181   7.300   7.183  0.4730  0.0974  1.1163
   27MOL   H60219374   2.188   7.308   7.018  0.9409 -2.1750  0.1719
   27MOL   H60319375   2.315   7.521   7.193 -0.0634 -0.1771  0.8272
   27MOL   H60419376   2.310   7.529   7.024 -0.6217  1.0348 -0.1073
   27MOL   H60519377   2.133   7.661   7.153  1.2517  0.6060 -1.6931
   27MOL   H60619378   2.044   7.517   7.187 -1.2539  0.6392 -0.2864
   27MOL   H60719379   2.042   7.470   6.930 -1.1792 -2.2162  3.0900
   27MOL   H60819380   2.058   7.655   6.924 -1.4492 -1.5770 -2.0661
   27MOL   H60919381   1.837   7.527   7.080 -1.8766  1.5294  0.4938
   27MOL   H61019382   1.876   7.699   7.054  1.6595 -0.1646  1.9841
   27MOL   H61119383   1.762   7.510   6.859 -1.4420 -0.4803  2.3189
   27MOL   H61219384   2.437   6.898   7.246  0.6175  1.4987 -1.8288
   27MOL   H61319385   2.340   6.702   7.354  1.5918  0.8243 -0.2925
   27MOL   C61419386   1.738   7.712   6.840 -0.0526  0.2157  0.3374
   27MOL   O61519387   1.791   7.819   6.862  1.0236 -0.4219 -0.4812
   27MOL   C61619388   1.616   7.708   6.742 -0.0353 -0.1131  0.0992
   27MOL   C61719389   1.554   7.583   6.707  0.3562 -0.1355  0.4490
   27MOL   C61819390   1.436   7.589   6.626  1.0433  0.6932 -0.7141
   27MOL   C61919391   1.380   7.714   6.588 -0.1695 -0.1798  0.0858
   27MOL   C62019392   1.257   7.721   6.505 -0.4908 -0.5134 -0.5582
   27MOL   O62119393   1.238   7.640   6.416  0.6968 -0.0034 -0.1656
   27MOL   N62219394   1.169   7.816   6.536 -0.1968  0.1841  0.1245
   27MOL   C62319395   1.044   7.829   6.467 -0.5158  0.0873  0.2299
   27MOL   C62419396   0.962   0.050   6.534  0.3034  0.1553  0.3318
   27MOL   C62519397   0.840   0.101   6.454 -0.7609  0.7309 -1.0716
   27MOL   C62619398   0.769   0.223   6.510  0.1568 -0.3096 -0.7888
   27MOL   C62719399   0.665   0.285   6.420 -0.2178 -0.2038  0.4221
   27MOL   C62819400   0.710   0.374   6.302  0.6678  0.3165  0.2026
   27MOL   N62919401   0.774   0.495   6.354  0.5247  0.6724  0.2722
   27MOL   C63019402   1.442   7.829   6.615 -0.6027  0.2152  0.3334
   27MOL   C63119403   1.562   7.828   6.695 -0.1615 -1.0782  0.5688
   27MOL   H63219404   1.591   7.484   6.728  1.5546  0.2582  0.2279
   27MOL   H63319405   1.396   7.492   6.598 -0.3886  1.8962 -2.9797
   27MOL   H63419406   1.206   0.009   6.587  0.8141 -1.2859  1.7026
   27MOL   H63519407   1.074   7.850   6.365  2.3649 -1.5225  0.6948
   27MOL   H63619408   0.998   7.730   6.474 -0.3302  0.0800  1.5399
   27MOL   H63719409   1.014   0.145   6.549  0.4751  0.1289 -0.0897
   27MOL   H63819410   0.934   0.012   6.633  0.2550 -0.1650  0.1948
   27MOL   H63919411   0.874   0.131   6.355  1.6433 -0.0837 -0.5192
   27MOL   H64019412   0.768   0.022   6.435 -0.7130  0.0285  1.5106
   27MOL   H64119413   0.842   0.296   6.548 -0.5567  0.0525 -0.0914
   27MOL   H64219414   0.718   0.186   6.599  0.0396 -0.8015 -1.0605
   27MOL   H64319415   0.590   0.341   6.475 -2.9299 -4.0243  0.8757
   27MOL   H64419416   0.609   0.202   6.375  0.3704 -1.3719  1.7991
   27MOL   H64519417   0.778   0.324   6.233  0.9798  3.3781 -1.8052
   27MOL   H64619418   0.616   0.397   6.250 -0.9778 -0.1429  2.8804
   27MOL   H64719419   0.790   0.491   6.454  1.1220 -0.1230  0.1455
   27MOL   H64819420   1.411   0.040   6.582  1.0567  0.0972 -1.6547
   27MOL   H64919421   1.609   0.037   6.717  2.4310 -2.0459 -0.5769
   27MOL   C65019422   0.809   0.601   6.271  0.9320 -0.2843 -0.6275
   27MOL   O65119423   0.781   0.605   6.149  0.5844  0.3664 -0.9120
   27MOL   C65219424   0.885   0.711   6.339  0.1504  0.2408 -0.2019
   27MOL   C65319425   0.915   0.701   6.476 -0.0125  0.8670 -0.1472
   27MOL   C65419426   0.971   0.813   6.550  0.9835  0.2035  0.0961
   27MOL   C65519427   1.003   0.927   6.478 -0.4182 -0.0922 -0.3213
   27MOL   C65619428   1.057   1.050   6.554 -0.5260 -0.2622 -0.1467
   27MOL   O65719429   1.057   1.050   6.677 -0.1620 -0.4994 -0.5718
   27MOL   N65819430   1.101   1.154   6.487 -0.0785  0.0997 -0.3058
   27MOL   C65919431   1.150   1.274   6.545 -0.5447 -0.5488  0.8998
   27MOL   C66019432   1.273   1.324   6.484  0.2574 -0.0364 -1.1550
   27MOL   C66119433   1.337   1.435   6.564 -0.2193 -0.2819 -0.7773
   27MOL   C66219434   1.450   1.509   6.488 -0.2324  0.2377  0.3513
   27MOL   C66319435   1.409   1.635   6.411 -0.2731 -0.7413 -0.8720
   27MOL   C66419436   1.392   1.753   6.513 -0.3361 -0.5632 -0.4148
   27MOL   N66519437   1.312   1.861   6.456 -0.3270  0.0605  0.2050
   27MOL   C66619438   0.984   0.933   6.338  0.0332 -0.6326 -0.3456
   27MOL   C66719439   0.931   0.824   6.269 -0.2929  0.8586  0.3062
   27MOL   H66819440   0.890   0.610   6.530 -0.0288  0.8690 -0.1510
   27MOL   H66919441   0.991   0.807   6.656  1.6188 -2.2055 -0.1359
   27MOL   H67019442   1.083   1.142   6.389  1.0012  1.5572 -0.6964
   27MOL   H67119443   1.070   1.345   6.520  1.1426  1.3057  0.6931
   27MOL   H67219444   1.168   1.264   6.652 -2.9053 -0.2210  1.3762
   27MOL   H67319445   1.247   1.359   6.384 -0.3079  3.5016  0.1276
   27MOL   H67419446   1.350   1.248   6.478 -1.2579 -1.5569 -1.5687
   27MOL   H67519447   1.258   1.506   6.587  2.6271  2.0977  2.1455
   27MOL   H67619448   1.381   1.393   6.654  0.8451  3.5301  0.5505
   27MOL   H67719449   1.492   1.439   6.416  0.5120 -0.1250  1.1336
   27MOL   H67819450   1.529   1.536   6.559  0.3635  1.4764 -0.7629
   27MOL   H67919451   1.317   1.607   6.360  0.4826 -2.8022 -1.1373
   27MOL   H68019452   1.473   1.660   6.327 -0.1005  0.7113 -0.3306
   27MOL   H68119453   1.349   1.714   6.605 -1.3947  2.4816  0.4307
   27MOL   H68219454   1.491   1.787   6.545 -0.8682  0.6176  0.0344
   27MOL   H68319455   1.239   1.906   6.510  1.2811  0.9392  1.7158
   27MOL   H68419456   1.013   1.027   6.293  2.1296 -0.4543  1.2799
   27MOL   H68519457   0.908   0.835   6.164  2.3258  0.2717 -0.3692
   27MOL   C68619458   1.344   1.942   6.356  0.2829  1.1616  0.3754
   27MOL   O68719459   1.455   1.936   6.297 -0.0131  0.1059  0.0699
   27MOL   C68819460   1.248   2.055   6.334 -1.1714  0.2031 -0.6604
   27MOL   C68919461   1.109   2.040   6.322 -0.0411  0.0991  0.0343
   27MOL   C69019462   1.027   2.156   6.310  0.2252  0.2640  1.1280
   27MOL   C69119463   1.082   2.283   6.302 -0.7701 -0.4814 -0.0306
   27MOL   C69219464   0.995   2.407   6.281  0.1032  0.4768 -0.0508
   27MOL   O69319465   1.019   2.493   6.197 -0.0219 -0.3615 -0.5677
   27MOL   N69419466   0.891   2.412   6.366 -0.3352 -0.4888  0.0521
   27MOL   C69519467   0.802   2.529   6.394 -0.2308  0.2408  0.5385
   27MOL   C69619468   0.659   2.481   6.364 -0.0980  0.2272  0.8332
   27MOL   C69719469   0.542   2.574   6.423  0.5843 -0.2786  0.4423
   27MOL   C69819470   0.406   2.531   6.371 -0.2323 -0.4951 -0.0807
   27MOL   C69919471   0.283   2.624   6.398 -0.1027  0.9810 -0.4020
   27MOL   C70019472   0.246   2.636   6.542  0.0470 -0.1369  0.0336
   27MOL   N70119473   0.224   2.498   6.599  0.1332 -0.9781  0.2043
   27MOL   C70219474   1.223   2.295   6.294  0.4541 -0.1370 -0.0101
   27MOL   C70319475   1.302   2.185   6.306 -0.2554 -0.2503  0.2810
   27MOL   H70419476   1.058   1.945   6.317 -2.2339  1.2464 -0.2866
   27MOL   H70519477   0.920   2.143   6.317  0.0230  0.1916 -1.6188
   27MOL   H70619478   0.895   2.339   6.436 -0.3793  0.4977  1.0907
   27MOL   H70719479   0.809   2.555   6.500  2.9427  0.8815  0.2265
   27MOL   H70819480   0.825   2.615   6.330  1.4444  0.0337  0.8663
   27MOL   H70919481   0.641   2.379   6.398 -0.7964  0.0003 -0.2009
   27MOL   H71019482   0.651   2.461   6.258  1.9495 -2.1850  1.0865
   27MOL   H71119483   0.554   2.574   6.531  1.7969 -0.8105  0.3135
   27MOL   H71219484   0.554   2.672   6.377  0.3994 -0.3310  0.2819
   27MOL   H71319485   0.394   2.427   6.403 -0.1221 -0.1378  1.1380
   27MOL   H71419486   0.416   2.519   6.263  2.7608  0.6619  0.0149
   27MOL   H71519487   0.199   2.590   6.338  0.4971  0.0259 -0.7069
   27MOL   H71619488   0.307   2.719   6.350  0.8700  0.6695 -0.5544
   27MOL   H71719489   0.330   2.681   6.595 -1.0340 -1.1663  2.7007
   27MOL   H71819490   0.155   2.694   6.555  0.0109  0.2010 -1.6651
   27MOL   H71919491   0.168   2.508   6.683  1.3992  2.0379  0.7788
   27MOL   H72019492   1.276   2.388   6.280  0.1247  0.1448  0.5883
   27MOL   H72119493   1.409   2.195   6.291 -0.3548  0.4021  0.0145
   27MOL   H72219494   0.150   2.459   6.542  1.3313  1.8351 -3.4816
   28MOL     C119495   4.130   7.821   0.596 -1.1699 -0.6668  0.2900
   28MOL     O219496   4.020   7.846   0.549 -0.2437  0.7822  0.3324
   28MOL     C319497   4.255   7.865   0.529  0.2754 -0.6639 -0.7077
   28MOL     C419498   4.248   0.057   0.415  0.5914 -0.3615  0.5627
   28MOL     C519499   4.367   0.105   0.359  0.4738  0.1513  0.6002
   28MOL     C619500   4.493   0.090   0.414  0.1974  0.4173  0.1722
   28MOL     C719501   4.617   0.134   0.342 -0.5145  0.2870  0.1422
   28MOL     O819502   4.726   0.146   0.409  0.1778  0.1023  0.0064
   28MOL     N919503   4.606   0.150   0.212  0.0025  0.1941  0.7093
   28MOL    C1019504   4.719   0.192   0.128 -0.3764  0.5846 -0.8277
   28MOL    C1119505   4.799   0.082   0.056 -0.0571 -0.2005  0.0156
   28MOL    C1219506   4.906   0.139   7.844 -0.0176  0.0925  0.4399
   28MOL    C1319507   4.857   0.167   7.704 -0.3204  0.0061 -0.5374
   28MOL    C1419508   4.890   0.059   7.593 -0.7452  0.6466 -0.0245
   28MOL    C1519509   4.840   7.808   7.625 -0.2734  0.3878 -0.0590
   28MOL    N1619510   4.880   7.719   7.521 -0.3229 -0.0263 -0.1618
   28MOL    C1719511   4.489   0.029   0.543 -0.3686 -0.5194  0.0943
   28MOL    C1819512   4.379   7.857   0.600 -0.3902 -0.0473  0.0722
   28MOL    H1919513   4.152   0.081   0.373 -0.1758  0.1565  2.5226
   28MOL    H2019514   4.343   0.158   0.268 -0.1452 -0.6774  0.2726
   28MOL    H2119515   4.524   0.125   0.158  0.9537 -1.8780  0.1544
   28MOL    H2219516   4.680   0.257   0.049 -0.8365  1.0678 -0.2084
   28MOL    H2319517   4.785   0.266   0.174 -0.8169 -0.7109  1.9279
   28MOL    H2419518   4.732   0.013   0.006  0.3713 -1.1211  0.6938
   28MOL    H2519519   4.855   0.017   0.124 -0.3263  0.5298  0.9431
   28MOL    H2619520   4.940   0.237   7.879 -2.2302  0.9023  0.4117
   28MOL    H2719521   5.000   0.084   7.841  0.0177  0.2195 -1.0735
   28MOL    H2819522   4.909   0.261   7.680  0.3211 -0.0558  0.5572
   28MOL    H2919523   4.751   0.189   7.711  0.0428  2.6912 -2.5272
   28MOL    H3019524   4.998   0.056   7.583 -0.5424  0.0417  2.0839
   28MOL    H3119525   4.842   0.084   7.499 -0.3808  1.3343 -0.0344
   28MOL    H3219526   4.867   7.781   7.727  1.9267  0.0514 -0.7211
   28MOL    H3319527   4.731   7.811   7.615 -0.4250  0.7953  1.5710
   28MOL    H3419528   4.841   7.724   7.428 -0.1432  1.8946 -0.1541
   28MOL    H3519529   4.579   0.014   0.599  0.5999  2.7204 -0.4644
   28MOL    H3619530   4.379   7.808   0.696  0.4614 -0.0863  0.0547
   28MOL    H3719531   4.142   7.769   0.691  1.2004 -0.2806  0.2321
   28MOL    C3819532   4.997   7.648   7.531 -0.1366 -0.5754 -0.1273
   28MOL    O3919533   5.061   7.635   7.638 -0.3110  0.1792  0.7804
   28MOL    C4019534   5.055   7.599   7.403 -0.1959  0.2202 -0.3145
   28MOL    C4119535   4.983   7.606   7.282 -0.2021  0.1562 -0.0548
   28MOL    C4219536   5.045   7.566   7.167 -0.2851  0.5981 -0.1029
   28MOL    C4319537   5.181   7.535   7.162  0.6580  1.3956  0.4487
   28MOL    C4419538   5.255   7.520   7.029 -0.0275 -0.3905 -0.3580
   28MOL    O4519539   5.379   7.494   7.031  0.2631  1.0175  0.1791
   28MOL    N4619540   5.181   7.531   6.919 -0.2951 -0.5767  0.0828
   28MOL    C4719541   5.223   7.528   6.782  0.3088  0.9464 -0.0378
   28MOL    C4819542   5.207   7.383   6.727  0.4384  0.0994 -0.1605
   28MOL    C4919543   5.226   7.383   6.571  0.3970 -0.4817  0.2183
   28MOL    C5019544   5.212   7.235   6.520 -0.2907  0.9789 -0.4936
   28MOL    C5119545   5.192   7.217   6.372  0.4862 -0.8079  0.1453
   28MOL    C5219546   5.301   7.133   6.303  0.1308 -0.2131 -0.1389
   28MOL    N5319547   5.418   7.220   6.295  0.6817  0.6264 -0.2516
   28MOL    C5419548   5.254   7.538   7.281 -0.0112 -0.4705 -0.5323
   28MOL    C5519549   5.191   7.561   7.399 -0.7510  0.5266  0.6687
   28MOL    H5619550   4.878   7.630   7.281 -0.1682  0.2775 -0.9374
   28MOL    H5719551   4.989   7.561   7.074 -1.2717 -0.4119  0.5412
   28MOL    H5819552   5.085   7.560   6.924  0.2030  1.2575 -0.6393
   28MOL    H5919553   5.170   7.604   6.724 -2.0161 -0.3571  0.3166
   28MOL    H6019554   5.331   7.544   6.775  0.5837 -0.3939  1.0285
   28MOL    H6119555   5.108   7.339   6.738  0.2061 -0.5858 -4.2216
   28MOL    H6219556   5.287   7.321   6.767 -0.8576 -0.9033  0.9207
   28MOL    H6319557   5.153   7.446   6.521  0.0022 -1.1646 -0.0828
   28MOL    H6419558   5.330   7.410   6.550  0.1066  0.3673 -0.1223
   28MOL    H6519559   5.131   7.194   6.581  0.7589 -2.2859 -1.1698
   28MOL    H6619560   5.302   7.188   6.559 -1.6516  0.5579  2.2309
   28MOL    H6719561   5.181   7.315   6.327 -1.2733 -1.0157  0.0886
   28MOL    H6819562   5.090   7.183   6.350 -0.1127  0.8362  0.3112
   28MOL    H6919563   5.335   7.043   6.355  4.0821  0.8905 -0.6791
   28MOL    H7019564   5.267   7.103   6.205  0.8097 -2.6192  0.3322
   28MOL    H7119565   5.397   7.317   6.274 -0.7401  0.3260 -0.2751
   28MOL    H7219566   5.359   7.513   7.286 -0.0372  0.0563  3.5517
   28MOL    H7319567   5.243   7.552   7.493  2.1832  0.4563 -0.9076
   28MOL    C7419568   5.548   7.192   6.303 -0.1572 -0.1783  0.4635
   28MOL    O7519569   5.594   7.083   6.329 -0.0467  0.0657 -0.3669
   28MOL    C7619570   5.635   7.313   6.286 -0.2861  0.6438  0.7811
   28MOL    C7719571   5.584   7.447   6.295 -0.2722 -0.4949  0.5881
   28MOL    C7819572   5.675   7.553   6.293 -0.0824 -0.1141  0.4335
   28MOL    C7919573   5.816   7.534   6.278 -0.4612 -0.3297 -0.0489
   28MOL    C8019574   5.904   7.658   6.298  0.2683 -0.3992 -0.1860
   28MOL    O8119575   5.877   7.767   6.252 -0.3292 -0.2049  0.1682
   28MOL    N8219576   6.015   7.633   6.372 -0.2406 -1.1416 -0.2699
   28MOL    C8319577   6.104   7.729   6.420  0.2631  0.4310 -0.7784
   28MOL    C8419578   6.224   7.757   6.331 -0.0925  0.2118  0.1516
   28MOL    C8519579   6.318   7.861   6.399 -0.0625 -0.7928  0.2305
   28MOL    C8619580   6.447   0.001   6.312 -0.2309  0.8275 -0.5324
   28MOL    C8719581   6.542   0.123   6.354  0.6165  0.8035  0.0113
   28MOL    C8819582   6.626   0.095   6.472  0.3705  0.2979 -0.0598
   28MOL    N8919583   6.719   7.868   6.451  0.2647  0.6884  0.2335
   28MOL    C9019584   5.862   7.406   6.257  0.1882 -0.1245 -0.1559
   28MOL    C9119585   5.774   7.295   6.255  0.7758 -0.0363 -0.3152
   28MOL    H9219586   5.480   7.458   6.322 -0.8302 -1.7492 -0.9727
   28MOL    H9319587   5.635   7.652   6.308  0.9472  0.2415  0.8556
   28MOL    H9419588   6.040   7.542   6.409  0.2026 -0.7822  0.3300
   28MOL    H9519589   6.047   7.821   6.436 -1.4137 -0.8563  0.9687
   28MOL    H9619590   6.123   7.700   6.523  0.9571 -0.4191 -1.1416
   28MOL    H9719591   6.189   7.786   6.232  4.0045 -0.4513 -1.5636
   28MOL    H9819592   6.277   7.663   6.318  0.1319  0.1932  1.1516
   28MOL    H9919593   6.279   0.076   6.415  2.2428 -0.1624  2.1706
   28MOL   H10019594   6.336   7.832   6.502 -2.4360  1.8184  1.4569
   28MOL   H10119595   6.412   0.016   6.210  0.7552  1.8067 -0.7394
   28MOL   H10219596   6.508   7.798   6.303  0.1600  1.0467 -0.0716
   28MOL   H10319597   6.489   0.212   6.387  0.1479  0.4754  0.1505
   28MOL   H10419598   6.606   0.152   6.271  0.9594 -2.3583 -0.8921
   28MOL   H10519599   6.693   0.181   6.482 -0.5723  0.8885  1.3254
   28MOL   H10619600   6.563   0.076   6.558  1.2022 -0.9863  0.2706
   28MOL   H10719601   6.696   7.781   6.497  1.8601  0.5447  0.8157
   28MOL   H10819602   5.967   7.402   6.235  0.0365  2.0713 -1.5261
   28MOL   H10919603   5.810   7.198   6.224 -0.5689 -0.8240  0.5677
   28MOL   C11019604   6.831   7.867   6.376  0.4980  0.3178 -0.1218
   28MOL   O11119605   6.868   0.079   6.309  0.2338  0.7253  0.0732
   28MOL   C11219606   6.906   7.738   6.343  0.5356  0.7946  0.3063
   28MOL   C11319607   6.965   7.716   6.216  0.3469 -1.0179 -0.3082
   28MOL   C11419608   7.043   7.602   6.191 -0.0683  0.9197 -0.5190
   28MOL   C11519609   7.085   7.514   6.298  0.3898 -0.1301 -0.3272
   28MOL   C11619610   7.193   7.408   6.281 -0.2563 -0.3279 -0.0081
   28MOL   O11719611   7.165   7.287   6.289  0.3291 -0.0084 -0.4141
   28MOL   N11819612   7.317   7.459   6.271 -0.0983 -0.2741  0.2290
   28MOL   C11919613   7.447   7.394   6.269  0.2266  0.4815  0.4865
   28MOL   C12019614   7.492   7.338   6.134 -0.4774  0.2341  0.0922
   28MOL   C12119615   7.642   7.361   6.115 -0.1102 -0.1557  0.5946
   28MOL   C12219616   7.694   7.293   5.984 -0.0351 -0.4501 -0.1103
   28MOL   C12319617   7.850   7.314   5.963 -0.5911  0.2570  0.3100
   28MOL   C12419618   0.017   7.266   5.820  0.3193  0.4044 -0.9582
   28MOL   N12519619   7.856   7.126   5.800 -0.1973 -0.1101 -0.3178
   28MOL   C12619620   7.025   7.535   6.424  0.0559 -0.4268 -0.0796
   28MOL   C12719621   6.934   7.646   6.446 -0.2159 -0.3499 -0.1892
   28MOL   H12819622   6.938   7.776   6.131  0.6851 -0.6338 -0.1460
   28MOL   H12919623   7.105   7.601   6.102  2.3517 -2.2536  1.1147
   28MOL   H13019624   7.325   7.560   6.264  2.8157 -0.5413 -1.0686
   28MOL   H13119625   7.526   7.456   6.311  1.3070 -1.2289  1.0494
   28MOL   H13219626   7.443   7.318   6.348 -0.8985  0.8289  0.7696
   28MOL   H13319627   7.432   7.370   6.048 -2.5257 -1.7688  0.7231
   28MOL   H13419628   7.468   7.232   6.132  3.8498 -0.9456  3.0814
   28MOL   H13519629   7.654   7.468   6.097  0.4640 -0.4251 -0.6884
   28MOL   H13619630   7.699   7.333   6.203  0.9303 -0.7916 -0.2746
   28MOL   H13719631   7.632   7.317   5.898  0.5864  0.2867 -0.3480
   28MOL   H13819632   7.679   7.186   6.001  0.9473 -0.3310  1.6583
   28MOL   H13919633   0.032   7.264   6.033  0.7739  0.2842 -0.9646
   28MOL   H14019634   7.874   7.417   5.987  0.2099 -0.0895  1.0560
   28MOL   H14119635   7.880   7.338   5.741 -0.7261  0.7214 -0.3656
   28MOL   H14219636   0.125   7.257   5.829  0.2045 -3.3207 -2.2693
   28MOL   H14319637   0.017   7.053   5.851  0.1854  0.6977  0.4857
   28MOL   H14419638   7.056   7.470   6.505 -1.0181  0.2139  0.8624
   28MOL   H14519639   6.907   7.667   6.549  2.5911  4.4671 -0.2639
   28MOL   C14619640   7.753   7.089   5.727  1.0838 -0.0127  0.1517
   28MOL   O14719641   7.691   7.167   5.658  0.1352  0.2586  0.0930
   28MOL   C14819642   7.714   6.941   5.725  0.2648 -0.0797  0.9278
   28MOL   C14919643   7.638   6.880   5.620  0.7251  0.5031 -0.0442
   28MOL   C15019644   7.621   6.737   5.626 -0.0125 -0.2488 -0.7308
   28MOL   C15119645   7.655   6.662   5.738  0.0840  0.5841 -0.3469
   28MOL   C15219646   7.636   6.509   5.734 -0.2434 -0.7597 -0.2554
   28MOL   O15319647   7.532   6.475   5.681  0.3695  0.2559 -0.3781
   28MOL   N15419648   7.729   6.426   5.773  0.2214 -0.1308 -0.3760
   28MOL   C15519649   7.722   6.279   5.769  0.5371 -0.1373 -0.0919
   28MOL   C15619650   7.705   6.225   5.914  0.1258  0.5236  0.1739
   28MOL   C15719651   7.689   6.073   5.909  0.4911 -0.2103  0.0454
   28MOL   C15819652   7.621   6.017   6.033  0.3415  0.6124 -0.4163
   28MOL   C15919653   7.466   6.022   6.030  0.2598 -0.0482 -0.1166
   28MOL   C16019654   7.405   6.101   6.152  0.4560 -0.1033 -0.4464
   28MOL   N16119655   7.450   6.239   6.173  0.1669 -0.3901 -0.0761
   28MOL   C16219656   7.712   6.718   5.848  0.3560  0.1161 -0.1075
   28MOL   C16319657   7.749   6.857   5.837  1.1132  0.1683  0.0698
   28MOL   H16419658   7.612   6.926   5.526 -0.7819  0.2748  0.2410
   28MOL   H16519659   7.568   6.690   5.545  1.0212 -1.9718 -0.4324
   28MOL   H16619660   7.815   6.465   5.807  2.1328 -2.1011 -2.7687
   28MOL   H16719661   7.663   6.247   5.683  0.4261 -1.8653  0.6067
   28MOL   H16819662   7.823   6.251   5.740  1.0468  1.8124 -0.2454
   28MOL   H16919663   7.617   6.272   5.957 -0.7719 -0.6240 -0.3906
   28MOL   H17019664   7.788   6.252   5.980  0.9119  0.6077 -0.8315
   28MOL   H17119665   7.632   6.042   5.821  3.5972  1.4945 -2.6824
   28MOL   H17219666   7.792   6.037   5.907  0.1233 -1.2225 -0.9250
   28MOL   H17319667   7.661   6.050   6.129 -0.0859 -1.8228  0.6290
   28MOL   H17419668   7.653   5.913   6.047 -0.1558  0.5364  0.1617
   28MOL   H17519669   7.427   5.921   6.024  0.8250 -0.3772  1.5410
   28MOL   H17619670   7.430   6.070   5.939 -0.9604 -2.1088 -0.7363
   28MOL   H17719671   7.297   6.102   6.136  0.3924 -1.0721 -0.1213
   28MOL   H17819672   7.434   6.045   6.241  2.2432  1.7028  0.1361
   28MOL   H17919673   7.529   6.246   6.235 -0.6564 -2.5668  1.2605
   28MOL   H18019674   7.731   6.660   5.937  0.1065 -1.3216 -0.9688
   28MOL   H18119675   7.802   6.891   5.925  1.8961 -2.7920  0.8301
   28MOL   C18219676   7.395   6.343   6.109  0.1852  0.1697 -0.2889
   28MOL   O18319677   7.289   6.328   6.040 -0.0965  0.5298  0.2470
   28MOL   C18419678   7.444   6.481   6.147 -0.0630 -0.1438 -0.8364
   28MOL   C18519679   7.580   6.507   6.174  0.8728  0.4641 -0.5443
   28MOL   C18619680   7.623   6.638   6.191 -0.3675 -0.4614  0.6703
   28MOL   C18719681   7.535   6.750   6.181  0.1269 -1.4179 -0.4556
   28MOL   C18819682   7.590   6.888   6.186  0.1835 -0.4402  0.0935
   28MOL   O18919683   7.532   6.983   6.131 -0.6661  0.3429  0.6895
   28MOL   N19019684   7.696   6.900   6.264  0.5261 -0.1052  0.1167
   28MOL   C19119685   7.779   7.016   6.272  0.1246  0.1317  0.7481
   28MOL   C19219686   7.849   7.039   6.403 -0.9773  0.0036 -0.1620
   28MOL   C19319687   0.056   7.156   6.395  0.2553 -0.0814 -0.2468
   28MOL   C19419688   0.104   7.210   6.525  0.6144 -0.2950  0.0487
   28MOL   C19519689   0.219   7.143   6.589  0.1269 -1.1426 -0.1339
   28MOL   C19619690   0.281   7.227   6.701 -0.5770  0.5471  0.6440
   28MOL   N19719691   0.385   7.147   6.764 -0.1939 -0.2158  0.3218
   28MOL   C19819692   7.401   6.720   6.168  0.9081 -0.3035  0.8471
   28MOL   C19919693   7.353   6.591   6.143  0.0430  0.6132 -0.6178
   28MOL   H20019694   7.649   6.427   6.196  1.6866  0.5066 -2.7562
   28MOL   H20119695   7.729   6.651   6.212 -0.6434  3.0170  0.2570
   28MOL   H20219696   7.727   6.811   6.299 -2.8818 -0.2277  3.1123
   28MOL   H20319697   7.833   7.011   6.178 -3.8662 -0.4869 -1.6186
   28MOL   H20419698   7.722   7.109   6.267  0.5879  0.3265 -1.1908
   28MOL   H20519699   0.015   6.948   6.435  2.3116  1.4552 -1.1713
   28MOL   H20619700   7.771   7.058   6.477 -0.3950  2.0100 -0.0460
   28MOL   H20719701   0.137   7.146   6.323 -0.8158  1.3675 -1.7150
   28MOL   H20819702   0.002   7.242   6.356  1.2926 -0.5108 -2.7243
   28MOL   H20919703   0.028   7.218   6.603  0.0374  0.2996 -0.5672
   28MOL   H21019704   0.128   7.314   6.501 -0.9410 -0.3556 -1.8558
   28MOL   H21119705   0.295   7.113   6.518 -0.9294  0.1881 -1.8808
   28MOL   H21219706   0.194   7.043   6.624 -1.3512 -0.0429  2.0975
   28MOL   H21319707   0.321   7.318   6.657 -0.3962  0.9735  1.6562
   28MOL   H21419708   0.204   7.267   6.768 -0.7005  0.7558  0.3778
   28MOL   H21519709   0.445   7.096   6.702 -0.2883  0.8386 -0.6466
   28MOL   H21619710   7.331   6.802   6.177 -0.7250 -1.6125  0.1376
   28MOL   H21719711   7.248   6.584   6.118 -0.1720 -0.3608  0.4955
   28MOL   C21819712   0.389   7.123   6.896  0.6074  1.0082  1.0275
   28MOL   O21919713   0.327   7.186   6.978  0.5980 -0.0474 -0.0342
   28MOL   C22019714   0.471   7.005   6.941  0.3901 -0.3503 -0.8611
   28MOL   C22119715   0.470   6.886   6.859 -0.3444  0.4137  0.0718
   28MOL   C22219716   0.533   6.775   6.904 -0.3830 -0.6819  0.3276
   28MOL   C22319717   0.613   6.779   7.020 -0.1318 -0.4623  0.2144
   28MOL   C22419718   0.676   6.647   7.060  0.3074  0.5664 -0.5914
   28MOL   O22519719   0.797   6.635   7.076 -0.3142  0.3286  0.7348
   28MOL   N22619720   0.594   6.547   7.090  0.0745  0.3177  0.2756
   28MOL   C22719721   0.629   6.416   7.142 -0.0096 -0.6083  0.9565
   28MOL   C22819722   0.616   6.306   7.034 -0.1727 -0.3896  0.7246
   28MOL   C22919723   0.588   6.168   7.092 -0.0567  0.6844  0.4889
   28MOL   C23019724   0.548   6.069   6.985 -0.1876  0.1225  1.5777
   28MOL   C23119725   0.463   5.946   7.031 -0.1918 -0.3417  0.4651
   28MOL   C23219726   0.459   5.829   6.931  0.1989 -1.3077 -0.4441
   28MOL   N23319727   0.582   5.754   6.940  0.0828  0.4834  0.2128
   28MOL   C23419728   0.626   6.897   7.093  0.2918 -0.2294 -0.6788
   28MOL   C23519729   0.550   7.009   7.059  0.6290  0.2995 -0.2759
   28MOL   H23619730   0.406   6.878   6.772  0.3960 -1.0658 -0.3754
   28MOL   H23719731   0.517   6.682   6.851  3.1749 -1.4617  0.4549
   28MOL   H23819732   0.495   6.561   7.080 -0.2970 -1.2476  1.6189
   28MOL   H23919733   0.723   6.405   7.195 -0.8819 -0.3355  2.5981
   28MOL   H24019734   0.557   6.387   7.219  2.5589 -1.3643  3.1298
   28MOL   H24119735   0.704   6.314   6.970 -0.3392  0.3611  0.5824
   28MOL   H24219736   0.538   6.333   6.963 -1.4054  1.5916  2.7128
   28MOL   H24319737   0.674   6.131   7.147  0.3437 -0.2017 -0.7176
   28MOL   H24419738   0.503   6.180   7.159  0.8486 -0.3869  1.8554
   28MOL   H24519739   0.643   6.038   6.940 -0.6107  0.9552  0.0719
   28MOL   H24619740   0.498   6.118   6.901  0.3516 -1.2978  0.3904
   28MOL   H24719741   0.363   5.980   7.054  0.9687  3.4698  0.1079
   28MOL   H24819742   0.500   5.914   7.128  3.1898  1.2790 -0.2151
   28MOL   H24919743   0.381   5.754   6.948 -0.2964 -0.8694 -0.7858
   28MOL   H25019744   0.430   5.874   6.837 -0.6497 -1.6846 -0.3766
   28MOL   H25119745   0.619   5.738   7.033 -0.2860  2.2368  0.6833
   28MOL   H25219746   0.687   6.905   7.182 -1.5771  1.5097  0.4902
   28MOL   H25319747   0.566   7.105   7.105  4.1832  0.6257 -2.0387
   28MOL   C25419748   0.657   5.735   6.836  0.2446 -0.7800  0.5705
   28MOL   O25519749   0.625   5.761   6.715  0.3055  0.1483 -0.8584
   28MOL   C25619750   0.801   5.699   6.865  0.4823 -0.0441 -0.4295
   28MOL   C25719751   0.908   5.749   6.795 -0.3038 -0.2089 -0.2728
   28MOL   C25819752   1.043   5.721   6.824 -0.0516 -0.1698 -0.7693
   28MOL   C25919753   1.069   5.631   6.930  0.8870 -0.0978 -0.3698
   28MOL   C26019754   1.212   5.593   6.964  0.3479 -0.2675 -0.4203
   28MOL   O26119755   1.237   5.520   7.063  1.0034 -0.1630  0.1527
   28MOL   N26219756   1.315   5.639   6.896 -0.3351  0.6912  0.2859
   28MOL   C26319757   1.459   5.596   6.908  0.0451 -0.5584 -0.4567
   28MOL   C26419758   1.483   5.485   6.802  0.0755  0.2644 -0.1273
   28MOL   C26519759   1.630   5.427   6.801  0.0028  0.0231  0.2598
   28MOL   C26619760   1.646   5.322   6.693 -0.6256  0.2871  0.7676
   28MOL   C26719761   1.775   5.237   6.698 -0.8063  0.5417  0.5867
   28MOL   C26819762   1.779   5.135   6.580 -0.2439  0.4631  0.0832
   28MOL   N26919763   1.911   5.084   6.561  0.6331  0.3326 -0.1627
   28MOL   C27019764   0.965   5.569   6.995  0.3216  0.6764 -0.4992
   28MOL   C27119765   0.833   5.604   6.969  0.1709  0.4052  0.0611
   28MOL   H27219766   0.888   5.824   6.720  0.1389 -1.1090 -1.3031
   28MOL   H27319767   1.125   5.758   6.764  0.2835 -0.5392 -0.5403
   28MOL   H27419768   1.291   5.700   6.819  1.1815 -0.0746 -0.8297
   28MOL   H27519769   1.527   5.680   6.896  0.1734 -0.7228 -0.8833
   28MOL   H27619770   1.484   5.566   7.010  1.0511  1.0116 -0.2336
   28MOL   H27719771   1.465   5.525   6.702  0.7421  2.4145  0.5704
   28MOL   H27819772   1.413   5.406   6.828  0.7759  0.2200  1.6980
   28MOL   H27919773   1.699   5.511   6.793 -0.6382  0.3506 -2.3149
   28MOL   H28019774   1.648   5.383   6.899 -3.1731  0.5778  1.1562
   28MOL   H28119775   1.638   5.367   6.594  2.3592 -1.0601 -0.1318
   28MOL   H28219776   1.568   5.247   6.710  1.7609 -2.0259  1.8668
   28MOL   H28319777   1.792   5.188   6.793 -3.5207 -2.7874 -0.5426
   28MOL   H28419778   1.848   5.317   6.683  0.4657 -0.9455 -1.4008
   28MOL   H28519779   1.721   5.043   6.591 -3.9086  2.2985 -2.7112
   28MOL   H28619780   1.745   5.191   6.493  0.6574  0.5495 -0.2245
   28MOL   H28719781   1.961   5.143   6.496 -0.1759  0.2916 -0.8376
   28MOL   H28819782   0.978   5.508   7.083  1.7316  1.3821 -0.2094
   28MOL   H28919783   0.752   5.557   7.022  0.9669 -1.8144 -0.6504
   28MOL   C29019784   1.972   4.967   6.605 -0.2943 -0.8779  0.0587
   28MOL   O29119785   1.910   4.894   6.680 -0.8299  0.6927 -0.0178
   28MOL   C29219786   2.109   4.930   6.552 -0.4509  0.2199  0.1847
   28MOL   C29319787   2.185   5.027   6.490 -0.5906 -0.1954 -0.5885
   28MOL   C29419788   2.313   4.996   6.442 -0.1202 -0.7116 -0.1252
   28MOL   C29519789   2.371   4.870   6.456 -0.3526 -0.0367 -0.2110
   28MOL   C29619790   2.513   4.841   6.420  0.3610  0.5610  0.2876
   28MOL   O29719791   2.565   4.734   6.457  0.1221  0.6427  0.0250
   28MOL   N29819792   2.579   4.939   6.364 -0.0631  0.1799  0.7706
   28MOL   C29919793   2.712   4.916   6.306 -0.2364  0.4809  0.0133
   28MOL   C30019794   2.758   5.042   6.236  0.5258  0.2351 -0.0078
   28MOL   C30119795   2.889   5.039   6.152 -0.2711  0.0504 -0.2848
   28MOL   C30219796   2.944   5.187   6.125  0.0338 -0.0864 -0.3104
   28MOL   C30319797   2.855   5.266   6.033 -0.0014 -0.0726 -0.0899
   28MOL   C30419798   2.907   5.406   5.997  0.1164 -0.4286 -0.3788
   28MOL   N30519799   2.824   5.468   5.896  0.1915 -0.0013 -0.2651
   28MOL   C30619800   2.302   4.778   6.532  0.5791 -0.2797 -0.0793
   28MOL   C30719801   2.169   4.806   6.575 -0.2340  0.0087 -0.7582
   28MOL   H30819802   2.154   5.130   6.478  0.6938  0.2866  0.1446
   28MOL   H30919803   2.370   5.075   6.394  0.9772 -1.3537  0.1073
   28MOL   H31019804   2.544   5.034   6.358  1.7087  0.7611 -0.7264
   28MOL   H31119805   2.781   4.889   6.387 -1.3506  0.4164  0.9479
   28MOL   H31219806   2.710   4.829   6.240  1.5772  1.3637 -1.2368
   28MOL   H31319807   2.764   5.125   6.306 -1.2848  0.3647  0.0247
   28MOL   H31419808   2.683   5.075   6.163  0.8834 -2.7280 -1.7987
   28MOL   H31519809   2.964   4.968   6.188  0.0399  0.6397  0.2335
   28MOL   H31619810   2.866   4.991   6.057 -1.4584 -0.9996  0.5211
   28MOL   H31719811   3.045   5.179   6.087  0.6104  2.2852  0.6167
   28MOL   H31819812   2.960   5.235   6.222 -1.7870 -0.0036 -0.0232
   28MOL   H31919813   2.758   5.269   6.082 -0.2161 -2.3577 -0.3251
   28MOL   H32019814   2.854   5.222   5.933 -0.5799  1.0024 -0.5581
   28MOL   H32119815   2.902   5.474   6.082  1.3288 -0.2511 -0.4372
   28MOL   H32219816   3.004   5.409   5.948  1.9677  1.4907  3.1976
   28MOL   H32319817   2.745   5.412   5.868 -1.6790  2.7579 -0.6041
   28MOL   H32419818   2.354   4.686   6.558  0.4103 -0.0489  1.1077
   28MOL   H32519819   2.116   4.737   6.639 -3.7244  0.9857 -2.4346
   28MOL   C32619820   2.853   5.573   5.824 -0.3460 -0.2684 -0.0456
   28MOL   O32719821   2.939   5.659   5.857  0.0768  0.3821  0.2648
   28MOL   C32819822   2.773   5.586   5.700 -0.2396 -0.1308 -0.1888
   28MOL   C32919823   2.691   5.701   5.684 -0.1866 -0.5893 -0.2046
   28MOL   C33019824   2.615   5.710   5.563  0.2907  0.8333 -0.1666
   28MOL   C33119825   2.616   5.600   5.466 -0.0671  0.1811 -0.1955
   28MOL   C33219826   2.524   5.609   5.351 -0.8102  0.0856  0.2132
   28MOL   O33319827   2.450   5.517   5.332  0.1919 -0.4307  0.0698
   28MOL   N33419828   2.530   5.724   5.279 -0.5191  0.3557 -0.1979
   28MOL   C33519829   2.441   5.765   5.179  0.0911 -0.1330  0.0460
   28MOL   C33619830   2.336   5.841   5.239 -0.6848  0.3795  0.3812
   28MOL   C33719831   2.236   5.744   5.311 -0.4823  0.0297 -0.4439
   28MOL   C33819832   2.117   5.816   5.368  0.0080  0.5082 -0.0623
   28MOL   C33919833   2.034   5.712   5.449 -0.0685 -0.1649 -0.5183
   28MOL   C34019834   1.898   5.773   5.491  0.2362 -0.1726 -0.4660
   28MOL   N34119835   1.808   5.686   5.573  0.6871  0.2516  0.7311
   28MOL   C34219836   2.698   5.489   5.488 -0.4352  1.0582 -0.0975
   28MOL   C34319837   2.779   5.485   5.601 -0.4167 -0.1134 -0.7556
   28MOL   H34419838   2.696   5.783   5.754 -1.9632 -1.1331  0.5783
   28MOL   H34519839   2.563   5.800   5.536  1.1755  0.6527 -2.5421
   28MOL   H34619840   2.586   5.792   5.329 -0.0759  0.7709 -1.2425
   28MOL   H34719841   2.488   5.825   5.100 -0.3887 -0.8047 -0.7622
   28MOL   H34819842   2.410   5.676   5.124  0.6179 -0.5067  0.3492
   28MOL   H34919843   2.281   5.894   5.161 -1.0168  0.0926  0.4220
   28MOL   H35019844   2.382   5.915   5.304 -0.6229 -0.5411  1.3976
   28MOL   H35119845   2.213   5.660   5.246 -2.3366  0.1212  0.0593
   28MOL   H35219846   2.282   5.713   5.405 -1.2519 -1.7513 -0.6420
   28MOL   H35319847   2.058   5.865   5.290  0.1467 -0.9532 -1.0947
   28MOL   H35419848   2.145   5.895   5.438 -0.0781  0.7000 -0.2415
   28MOL   H35519849   2.085   5.683   5.541  2.5181 -0.3741 -1.9565
   28MOL   H35619850   2.031   5.617   5.396  2.8252  0.9532 -2.8552
   28MOL   H35719851   1.919   5.860   5.553 -1.8865  0.1252 -0.1193
   28MOL   H35819852   1.864   5.803   5.391  1.6141 -0.3594 -0.9945
   28MOL   H35919853   1.837   5.597   5.612  0.2878 -1.4359 -2.6076
   28MOL   H36019854   2.700   5.405   5.420 -2.0012 -0.8511  2.1702
   28MOL   H36119855   2.841   5.401   5.630 -0.3630  1.1465  3.0528
   28MOL   C36219856   1.680   5.723   5.594  0.6128  0.1690 -0.9867
   28MOL   O36319857   1.628   5.820   5.549  0.4114  0.5283  0.0773
   28MOL   C36419858   1.606   5.630   5.691  0.3164 -0.8359  0.2191
   28MOL   C36519859   1.542   5.677   5.804  0.0537  0.2657 -0.3229
   28MOL   C36619860   1.449   5.603   5.883  0.0108  0.1845 -1.0776
   28MOL   C36719861   1.434   5.467   5.843  0.0733  0.4723 -0.0432
   28MOL   C36819862   1.343   5.378   5.927 -0.3379 -0.0847 -0.2875
   28MOL   O36919863   1.321   5.258   5.894 -0.3478 -0.6696  0.1000
   28MOL   N37019864   1.290   5.436   6.040 -0.1127 -0.0280  0.1676
   28MOL   C37119865   1.203   5.372   6.138 -1.3248  1.1962 -0.1863
   28MOL   C37219866   1.137   5.475   6.228 -0.6442  0.5759 -0.3851
   28MOL   C37319867   1.057   5.412   6.347 -0.6579 -0.4034  0.0920
   28MOL   C37419868   1.015   5.523   6.442 -0.2698 -0.7580  0.1524
   28MOL   C37519869   0.928   5.471   6.556 -0.1904 -0.0808 -0.3665
   28MOL   C37619870   0.782   5.508   6.538  0.2640  0.3578 -0.1694
   28MOL   N37719871   0.719   5.445   6.428  0.2383  0.1625 -0.6942
   28MOL   C37819872   1.501   5.411   5.736  0.2442 -0.5715 -0.9078
   28MOL   C37919873   1.588   5.496   5.656  0.1393  0.7551  0.0141
   28MOL   H38019874   1.565   5.776   5.841  2.4751 -0.1315 -0.6571
   28MOL   H38119875   1.402   5.653   5.965 -1.2786  0.6655 -2.0975
   28MOL   H38219876   1.350   5.510   6.074  2.5768 -2.0128 -0.1598
   28MOL   H38319877   1.127   5.315   6.085 -0.8183 -0.6336  1.0164
   28MOL   H38419878   1.271   5.305   6.191  1.5185  2.2178 -2.3745
   28MOL   H38519879   1.075   5.539   6.165  0.4522 -0.5042 -2.6624
   28MOL   H38619880   1.214   5.541   6.266  0.2820  0.3753 -1.8331
   28MOL   H38719881   0.972   5.352   6.313 -0.3021 -1.4710  1.0448
   28MOL   H38819882   1.116   5.338   6.401  0.1964 -0.5541 -1.0139
   28MOL   H38919883   0.956   5.600   6.393  1.9081  1.4189  0.8477
   28MOL   H39019884   1.103   5.581   6.469 -0.3280 -0.3335 -0.5649
   28MOL   H39119885   0.978   5.516   6.642 -2.5948 -0.2722  1.1611
   28MOL   H39219886   0.945   5.364   6.563  0.7065  0.0869  0.1174
   28MOL   H39319887   0.723   5.491   6.628  1.7885  3.6100  1.5535
   28MOL   H39419888   0.786   5.613   6.507  1.5097  0.1522 -0.7234
   28MOL   H39519889   0.703   5.499   6.343  0.8479  0.0072 -0.9136
   28MOL   H39619890   1.483   5.311   5.699 -0.5005 -0.8307  0.1539
   28MOL   H39719891   1.628   5.459   5.563 -1.3529 -0.3413 -0.2101
   28MOL   C39819892   0.679   5.313   6.427  0.8671  0.3290 -1.3024
   28MOL   O39919893   0.697   5.232   6.518 -0.1175 -0.1936  0.5305
   28MOL   C40019894   0.621   5.268   6.299 -0.5621 -0.7606  0.2262
   28MOL   C40119895   0.583   5.131   6.302 -0.3400  0.0214 -0.2380
   28MOL   C40219896   0.530   5.071   6.185  0.2696 -0.2646  0.1622
   28MOL   C40319897   0.519   5.144   6.070 -0.1866  0.0341  0.1333
   28MOL   C40419898   0.462   5.083   5.946  1.3158  0.7886  0.3246
   28MOL   O40519899   0.454   4.958   5.933 -0.0128 -0.3236 -0.1053
   28MOL   N40619900   0.420   5.161   5.848  0.6075 -0.2417  0.6487
   28MOL   C40719901   0.378   5.118   5.719  0.9193  0.7283  0.4521
   28MOL   C40819902   0.500   5.088   5.634  0.4257  0.3588  0.4124
   28MOL   C40919903   0.582   5.212   5.593  0.2224  0.1453  0.2522
   28MOL   C41019904   0.697   5.181   5.493  0.5461  0.1228  0.0110
   28MOL   C41119905   0.785   5.301   5.468 -0.1383 -0.1190  0.4488
   28MOL   C41219906   0.719   5.397   5.370 -0.6674  0.5011  0.0659
   28MOL   N41319907   0.801   5.515   5.350 -0.5522 -0.2165  0.2355
   28MOL   C41419908   0.558   5.285   6.066 -0.4847  0.1204  0.8653
   28MOL   C41519909   0.608   5.346   6.184  0.0997 -0.2630  0.2668
   28MOL   H41619910   0.582   5.067   6.389  0.0764 -0.2692 -0.4460
   28MOL   H41719911   0.501   4.968   6.180 -1.3761  0.1730  0.3420
   28MOL   H41819912   0.401   5.256   5.876 -2.5067 -0.4685 -0.4398
   28MOL   H41919913   0.304   5.039   5.721  1.5384  0.1298  0.0732
   28MOL   H42019914   0.325   5.200   5.671  0.8342 -1.1333 -2.7467
   28MOL   H42119915   0.454   5.031   5.553  1.7647 -0.5970  0.3035
   28MOL   H42219916   0.570   5.015   5.676  0.0009  0.7944  1.9016
   28MOL   H42319917   0.525   5.289   5.540  0.8187 -0.0849 -0.7442
   28MOL   H42419918   0.621   5.256   5.685  0.1859  0.8868 -0.0749
   28MOL   H42519919   0.674   5.129   5.400 -0.3977 -0.0810  0.3532
   28MOL   H42619920   0.757   5.107   5.546 -0.5968 -0.2243  0.8379
   28MOL   H42719921   0.875   5.263   5.420  0.0436  2.8130 -1.6910
   28MOL   H42819922   0.823   5.344   5.560 -0.1658  0.6570  0.1023
   28MOL   H42919923   0.720   5.339   5.277  1.1372 -3.1365  2.2420
   28MOL   H43019924   0.619   5.427   5.398 -0.6538  0.7205 -0.1185
   28MOL   H43119925   0.823   5.533   5.253 -0.8608 -1.7860 -0.1569
   28MOL   H43219926   0.544   5.343   5.976  2.6026 -0.9595 -0.3932
   28MOL   H43319927   0.630   5.452   6.186 -2.6667  0.3468  0.7684
   28MOL   C43419928   0.834   5.618   5.433  0.5048  0.2386  0.2134
   28MOL   O43519929   0.792   5.628   5.546  0.4818 -0.0694 -0.0521
   28MOL   C43619930   0.916   5.740   5.379  0.4690  0.8643  0.3765
   28MOL   C43719931   0.983   5.731   5.253 -0.6996 -0.2967 -0.4115
   28MOL   C43819932   1.061   5.836   5.202 -0.2842  0.2923 -1.2581
   28MOL   C43919933   1.079   5.946   5.279 -0.1263  0.1686  0.4980
   28MOL   C44019934   1.142   6.068   5.221 -0.3605 -0.3009 -1.0028
   28MOL   O44119935   1.209   6.142   5.288 -0.0249 -0.3097  0.3450
   28MOL   N44219936   1.098   6.100   5.101 -0.6353 -0.1430 -0.4761
   28MOL   C44319937   1.113   6.229   5.038 -0.5885 -0.0972 -0.3194
   28MOL   C44419938   1.027   6.248   4.912  0.4009 -0.8082  0.4343
   28MOL   C44519939   1.058   6.149   4.791  0.3699  0.4202 -0.6799
   28MOL   C44619940   1.001   6.004   4.796  0.0442  0.4187 -0.3054
   28MOL   C44719941   1.029   5.925   4.665  0.1164  0.3782  0.3415
   28MOL   C44819942   1.165   5.846   4.661 -0.0633  0.4190 -0.7929
   28MOL   N44919943   1.165   5.732   4.567 -1.1426  0.1391 -0.3206
   28MOL   C45019944   1.019   5.952   5.406  0.1880  0.4151 -0.1420
   28MOL   C45119945   0.933   5.851   5.459  0.0611 -0.2512  0.2317
   28MOL   H45219946   0.967   5.641   5.195  2.0764 -0.1981 -1.4048
   28MOL   H45319947   1.085   5.834   5.096  1.3878 -3.0324 -0.8805
   28MOL   H45419948   1.033   6.035   5.059 -2.7691  0.9156  1.1370
   28MOL   H45519949   1.078   6.309   5.103  1.2488 -0.2775  0.9211
   28MOL   H45619950   1.217   6.240   5.006 -0.1402 -3.3586 -0.1500
   28MOL   H45719951   1.032   6.355   4.893  2.4091 -0.4267  2.8678
   28MOL   H45819952   0.927   6.229   4.953 -0.9643 -0.0969 -2.4330
   28MOL   H45919953   1.014   6.198   4.704  2.2774  0.3752 -1.6864
   28MOL   H46019954   1.165   6.144   4.772  0.7817 -1.6641  1.8565
   28MOL   H46119955   0.898   6.011   4.831 -0.0387  0.4236 -0.5528
   28MOL   H46219956   1.049   5.958   4.883  0.0082 -1.4521 -1.2615
   28MOL   H46319957   1.020   5.992   4.580 -0.3160 -1.0003 -0.6972
   28MOL   H46419958   0.950   5.852   4.647 -0.5228  0.4501  2.6738
   28MOL   H46519959   1.251   5.911   4.645  0.7413 -0.9557 -2.2382
   28MOL   H46619960   1.173   5.806   4.763 -0.9059  2.9152  0.2881
   28MOL   H46719961   1.084   5.714   4.511 -1.1053  2.4216 -1.1369
   28MOL   H46819962   1.040   6.036   5.471  1.8160 -0.4439  0.4650
   28MOL   H46919963   0.886   5.860   5.555  0.8754 -2.0613  0.8205
   28MOL   C47019964   1.255   5.634   4.574 -0.0915  0.3326  0.3134
   28MOL   O47119965   1.355   5.632   4.647 -0.0927  0.3522 -0.4022
   28MOL   C47219966   1.228   5.521   4.479  0.0137 -0.2386  0.2180
   28MOL   C47319967   1.096   5.466   4.464 -0.5236 -0.3283 -0.2682
   28MOL   C47419968   1.075   5.352   4.390  0.3116 -0.0628  0.3115
   28MOL   C47519969   1.176   5.287   4.328  0.1954 -0.1164  0.0686
   28MOL   C47619970   1.146   5.175   4.231  0.8467 -0.1995 -0.4429
   28MOL   O47719971   1.026   5.152   4.204  0.2376  0.1873  0.2795
   28MOL   N47819972   1.249   5.102   4.197 -0.4970  0.3333  0.1031
   28MOL   C47919973   1.255   4.991   4.100 -0.0271  0.3735 -0.5423
   28MOL   C48019974   1.285   5.036   3.956  0.5564 -0.7807  0.0878
   28MOL   C48119975   1.414   5.111   3.941 -0.1799  0.1063 -0.2325
   28MOL   C48219976   1.406   5.263   3.952 -0.0737 -0.3385  0.3338
   28MOL   C48319977   1.544   5.331   3.959  0.1492 -0.2342 -0.0543
   28MOL   C48419978   1.534   5.482   3.959  0.2698  0.5327 -0.4438
   28MOL   N48519979   1.662   5.544   3.990 -0.0910  0.4823 -0.0813
   28MOL   C48619980   1.303   5.349   4.321 -0.0967  0.0069  0.0909
   28MOL   C48719981   1.332   5.465   4.403 -0.2860 -0.2609 -0.9266
   28MOL   H48819982   1.014   5.516   4.513 -1.1404 -0.8842 -0.7247
   28MOL   H48919983   0.971   5.321   4.382  0.1557  0.2805  0.9859
   28MOL   H49019984   1.335   5.111   4.248 -1.0115 -0.0310  1.0645
   28MOL   H49119985   1.329   4.919   4.136  2.3991  3.2195  0.3405
   28MOL   H49219986   1.157   4.944   4.092  0.9666 -1.4932 -2.4732
   28MOL   H49319987   1.206   5.093   3.907 -0.3691  0.4308  2.8721
   28MOL   H49419988   1.309   4.949   3.896  0.0058  0.2390 -1.6527
   28MOL   H49519989   1.491   5.060   3.999 -1.7769 -1.9846  0.1073
   28MOL   H49619990   1.439   5.085   3.839  2.3901 -1.3629  0.7298
   28MOL   H49719991   1.351   5.290   4.041 -0.2488  2.1125 -0.4617
   28MOL   H49819992   1.346   5.297   3.867 -0.8042 -1.7608  0.2872
   28MOL   H49919993   1.598   5.306   3.868  2.7442  0.5917  1.2314
   28MOL   H50019994   1.609   5.291   4.036 -0.8415  0.6790  1.2779
   28MOL   H50119995   1.522   5.513   3.856  1.2889  0.0057 -0.7261
   28MOL   H50219996   1.450   5.511   4.023 -1.1130 -1.3060 -1.3532
   28MOL   H50319997   1.744   5.521   3.937 -0.5283  0.7591 -0.8879
   28MOL   H50419998   1.386   5.312   4.262  0.4329  1.0229  0.1801
   28MOL   H50519999   1.423   5.523   4.408 -1.8619  2.3327 -1.1795
   28MOL   C50620000   1.685   5.641   4.080 -0.0986  0.2342  0.1437
   28MOL   O50720001   1.597   5.690   4.154 -0.4175 -0.2216 -0.1488
   28MOL   C50820002   1.825   5.686   4.089  0.2877 -0.8629  0.1650
   28MOL   C50920003   1.906   5.684   3.976 -0.4369  0.1812  0.4398
   28MOL   C51020004   2.042   5.719   3.981  0.6199  0.1587 -0.2553
   28MOL   C51120005   2.103   5.762   4.102  0.1826 -0.0470  0.1418
   28MOL   C51220006   2.241   5.812   4.111 -0.5901 -0.1345  0.2643
   28MOL   O51320007   2.284   5.897   4.031 -0.3411  0.3420  0.4425
   28MOL   N51420008   2.310   5.747   4.204  0.0434  0.5492  0.4803
   28MOL   C51520009   2.436   5.782   4.273 -0.0468 -0.3368  0.1643
   28MOL   C51620010   2.412   5.828   4.413  0.3956 -0.4322  0.0345
   28MOL   C51720011   2.302   5.751   4.490  0.7352 -0.2903  0.2923
   28MOL   C51820012   2.296   5.783   4.642 -0.3427  0.7322 -0.5790
   28MOL   C51920013   2.198   5.702   4.723 -0.2343 -0.5229 -0.4170
   28MOL   C52020014   2.196   5.752   4.868 -0.3963 -0.2131 -0.1230
   28MOL   N52120015   2.111   5.661   4.942  0.3342 -0.2369 -0.3627
   28MOL   C52220016   2.025   5.759   4.211  0.2815  0.3958 -0.4186
   28MOL   C52320017   1.886   5.725   4.210 -0.5047  0.1133  0.0004
   28MOL   H52420018   1.873   5.653   3.878  0.0893 -1.7276  0.8391
   28MOL   H52520019   2.096   5.707   3.888  0.8799 -0.5301 -0.0194
   28MOL   H52620020   2.268   5.658   4.227 -0.4862  1.0453  1.4907
   28MOL   H52720021   2.511   5.703   4.272  0.1129 -0.1966  0.6355
   28MOL   H52820022   2.485   5.864   4.221  1.0633  0.1171  1.9047
   28MOL   H52920023   2.389   5.934   4.411  1.4257 -0.1791  1.0848
   28MOL   H53020024   2.510   5.827   4.460  0.2687  1.4696  0.3657
   28MOL   H53120025   2.205   5.778   4.448 -0.3717  0.2926  3.0992
   28MOL   H53220026   2.314   5.643   4.483  3.4463  0.0604 -1.5016
   28MOL   H53320027   2.286   5.890   4.659 -0.5211  0.7536 -0.8165
   28MOL   H53420028   2.395   5.769   4.686 -0.2600 -2.1561 -1.5540
   28MOL   H53520029   2.226   5.596   4.726  0.6911 -0.2737 -0.0572
   28MOL   H53620030   2.102   5.709   4.673 -0.6020  1.3900  0.5196
   28MOL   H53720031   2.293   5.746   4.917 -0.1066  0.3456 -0.6312
   28MOL   H53820032   2.166   5.857   4.875 -1.5063 -0.5033 -0.3544
   28MOL   H53920033   2.130   5.562   4.943 -0.0280 -0.3021 -0.0969
   28MOL   H54020034   2.062   5.796   4.306  0.3572 -1.8798  0.4634
   28MOL   H54120035   1.823   5.730   4.297  1.8132 -1.0004  1.8090
   28MOL   C54220036   2.007   5.696   5.017 -0.4004 -0.1736 -0.1560
   28MOL   O54320037   1.955   5.807   5.016  0.3138  0.9230 -0.2465
   28MOL   C54420038   1.946   5.591   5.103  0.2299  0.2613 -0.4157
   28MOL   C54520039   2.027   5.499   5.162  0.4772 -0.1048 -0.3980
   28MOL   C54620040   1.971   5.399   5.241  0.3751  0.1544  0.1503
   28MOL   C54720041   1.839   5.400   5.275  0.1833  0.1735  0.2670
   28MOL   C54820042   1.783   5.292   5.363 -0.9113 -0.2158 -0.7242
   28MOL   O54920043   1.851   5.231   5.443  0.3411  0.0837  0.1645
   28MOL   N55020044   1.651   5.279   5.367 -0.7048  0.1327  0.3962
   28MOL   C55120045   1.582   5.175   5.441 -1.2862 -0.3040 -0.1630
   28MOL   C55220046   1.426   5.191   5.436  0.5453 -0.4741 -0.4937
   28MOL   C55320047   1.356   5.095   5.534  0.1125 -0.2434  0.1362
   28MOL   C55420048   1.212   5.080   5.506  0.4021 -0.4378 -0.2722
   28MOL   C55520049   1.173   5.011   5.375 -0.4642 -0.5366  0.6708
   28MOL   C55620050   1.024   4.975   5.373  0.1742  0.2412 -0.0437
   28MOL   N55720051   0.976   4.965   5.236  0.0352  0.6529 -0.1667
   28MOL   C55820052   1.757   5.500   5.226 -0.2943 -0.4867 -0.4801
   28MOL   C55920053   1.805   5.595   5.136 -1.1295 -0.2469 -0.0605
   28MOL   H56020054   2.134   5.491   5.148  0.5929  0.9075 -0.1050
   28MOL   H56120055   2.032   5.317   5.276 -1.1828 -1.0247  0.2006
   28MOL   H56220056   1.604   5.322   5.289  0.9732  0.8828 -0.2087
   28MOL   H56320057   1.605   5.081   5.390  2.1915  1.7598 -2.6409
   28MOL   H56420058   1.618   5.154   5.541 -1.0317  0.4550 -0.0909
   28MOL   H56520059   1.390   5.151   5.341  0.5883  0.2215 -0.8012
   28MOL   H56620060   1.401   5.293   5.462 -0.1660 -0.8436  0.2969
   28MOL   H56720061   1.405   4.999   5.516 -2.5638 -1.4416 -1.0358
   28MOL   H56820062   1.361   5.117   5.640  0.8323  1.9057 -0.3051
   28MOL   H56920063   1.161   5.175   5.520  2.5716  0.3889  2.4472
   28MOL   H57020064   1.169   5.015   5.582 -1.6490  1.4212  0.2362
   28MOL   H57120065   1.231   4.921   5.353  0.9609  0.4675  0.2306
   28MOL   H57220066   1.190   5.087   5.298  1.1576 -2.5864 -1.0939
   28MOL   H57320067   1.004   4.884   5.429  3.9542 -0.6600 -0.0462
   28MOL   H57420068   0.964   5.050   5.426  2.0914  1.0512  1.0459
   28MOL   H57520069   0.962   4.868   5.209  0.2281  0.2958  0.9748
   28MOL   H57620070   1.652   5.508   5.250 -0.2593 -0.6125 -0.2848
   28MOL   H57720071   1.744   5.665   5.082 -0.7131  1.5168  1.7112
   28MOL   C57820072   0.931   5.066   5.164  0.4710  0.2094 -0.1896
   28MOL   O57920073   0.954   5.188   5.185 -0.0474  0.0602  0.0875
   28MOL   C58020074   0.832   5.040   5.057  0.1863  0.0575 -0.6196
   28MOL   C58120075   0.787   4.910   5.020 -0.0729 -0.2526  0.7319
   28MOL   C58220076   0.675   4.891   4.938 -0.2666 -0.0270 -0.1997
   28MOL   C58320077   0.618   4.999   4.868 -0.5797  0.1578 -0.8250
   28MOL   C58420078   0.503   4.979   4.773  0.8464 -0.5140 -0.9485
   28MOL   O58520079   0.437   4.875   4.772  0.2292  0.1186 -0.0241
   28MOL   N58620080   0.490   5.081   4.688  0.4085 -0.1156  0.7725
   28MOL   C58720081   0.391   5.105   4.586  0.1706  0.8296  0.7173
   28MOL   C58820082   0.440   5.059   4.452 -0.6016 -0.1297  0.2841
   28MOL   C58920083   0.328   5.070   4.347 -0.2072  0.2204 -0.0405
   28MOL   C59020084   0.364   5.001   4.208 -0.4342 -0.3063  0.3711
   28MOL   C59120085   0.252   4.989   4.101  0.0510 -0.1866  0.6834
   28MOL   C59220086   0.214   5.123   4.035  0.6634  0.1819  0.0516
   28MOL   N59320087   0.110   5.117   3.933  0.2780  0.2474 -0.0221
   28MOL   C59420088   0.665   5.126   4.905 -0.2081  0.4633  0.4380
   28MOL   C59520089   0.771   5.146   4.996 -0.1747 -0.0667  0.3320
   28MOL   H59620090   0.851   4.831   5.056  2.1067  0.8522 -0.6074
   28MOL   H59720091   0.635   4.794   4.912 -0.8583  0.2516 -0.3529
   28MOL   H59820092   0.555   5.156   4.704 -0.0252  0.5055 -0.3494
   28MOL   H59920093   0.303   5.044   4.608  1.7011 -1.2203  1.2557
   28MOL   H60020094   0.376   5.213   4.588  0.4757  0.8552  2.2723
   28MOL   H60120095   0.460   4.952   4.462 -1.4462 -0.3384 -0.1121
   28MOL   H60220096   0.529   5.117   4.429 -0.5037 -0.5380 -0.3866
   28MOL   H60320097   0.247   5.011   4.389 -1.0517  0.8947 -0.7159
   28MOL   H60420098   0.307   5.176   4.333  0.2092  0.2250 -0.6654
   28MOL   H60520099   0.394   4.899   4.231 -1.6299 -0.5387  0.9708
   28MOL   H60620100   0.450   5.048   4.161 -0.7440  3.0261  2.9440
   28MOL   H60720101   0.166   4.933   4.139 -1.2119  1.2412 -0.0147
   28MOL   H60820102   0.281   4.927   4.016  0.8040 -0.1239  0.8889
   28MOL   H60920103   0.191   5.203   4.106  0.0027 -1.5417  1.8054
   28MOL   H61020104   0.306   5.148   3.982  0.8294  0.0837  0.2960
   28MOL   H61120105   0.099   5.023   3.897 -0.1671  0.2254  0.1591
   28MOL   H61220106   0.619   5.218   4.872 -0.5432 -0.6487 -2.3435
   28MOL   H61320107   0.818   5.241   5.016  1.1661 -0.4506 -0.8809
   28MOL   C61420108   0.041   5.222   3.877 -0.2979 -0.4480  0.3583
   28MOL   O61520109   0.068   5.341   3.908  0.3237 -0.3057  0.2483
   28MOL   C61620110   7.824   5.189   3.774  0.3524  0.6431 -0.0033
   28MOL   C61720111   7.792   5.271   3.664  0.5769 -0.2540 -0.8029
   28MOL   C61820112   7.692   5.235   3.564 -0.5598 -0.1490  0.6845
   28MOL   C61920113   7.625   5.112   3.574  0.4139 -0.1433  0.2291
   28MOL   C62020114   7.519   5.076   3.472  0.2378  0.2595  0.6257
   28MOL   O62120115   7.511   5.141   3.368  0.3527  0.7261 -0.3917
   28MOL   N62220116   7.445   4.966   3.491  0.0954 -0.0014 -0.4653
   28MOL   C62320117   7.336   4.927   3.399 -0.5028  1.2522 -0.0963
   28MOL   C62420118   7.317   4.774   3.380 -0.1391  0.2747 -0.5381
   28MOL   C62520119   7.202   4.742   3.288  0.1043  0.1210 -0.1773
   28MOL   C62620120   7.156   4.595   3.308  0.0593  0.0602 -0.0243
   28MOL   C62720121   7.154   4.529   3.448  0.3055 -0.1549  0.2243
   28MOL   C62820122   7.090   4.387   3.444  0.4163  0.2585 -0.8468
   28MOL   N62920123   7.121   4.308   3.567 -0.4902 -0.3287  0.0209
   28MOL   C63020124   7.657   5.025   3.682 -0.5709  0.3779  0.4315
   28MOL   C63120125   7.760   5.062   3.774 -0.3108  0.1502  0.5843
   28MOL   H63220126   7.829   5.372   3.657  0.6089 -0.3007 -1.3905
   28MOL   H63320127   7.668   5.297   3.479 -1.3618 -0.7231  0.4804
   28MOL   H63420128   7.456   4.919   3.580 -0.0152  2.7857  1.0710
   28MOL   H63520129   7.243   4.963   3.442 -1.0016 -2.1313  1.8331
   28MOL   H63620130   7.347   4.966   3.298 -0.3537  0.7365 -0.2782
   28MOL   H63720131   7.307   4.725   3.477 -2.1925 -0.2989 -1.0212
   28MOL   H63820132   7.407   4.730   3.336  1.5963  3.9908 -0.8421
   28MOL   H63920133   7.115   4.807   3.299 -1.0244 -1.3628 -0.2649
   28MOL   H64020134   7.221   4.751   3.181  1.8536  0.2737  0.1296
   28MOL   H64120135   7.236   4.546   3.253 -0.8335 -1.3941 -0.0500
   28MOL   H64220136   7.065   4.576   3.251 -0.2369  2.1693 -0.2876
   28MOL   H64320137   7.099   4.585   3.524  0.3572 -1.7931  1.5088
   28MOL   H64420138   7.259   4.512   3.472  0.2754 -0.9862 -0.2345
   28MOL   H64520139   6.982   4.387   3.432  0.3128  1.8541 -0.0889
   28MOL   H64620140   7.135   4.334   3.359  3.0232 -1.3161  1.4276
   28MOL   H64720141   7.177   4.225   3.553 -0.2186 -0.0357 -0.5912
   28MOL   H64820142   7.608   4.931   3.701 -1.3241  0.5654 -0.5233
   28MOL   H64920143   7.794   4.988   3.845 -1.3284 -1.1487 -0.2779
   28MOL   C65020144   7.052   4.306   3.681  0.2006  0.7919  0.5244
   28MOL   O65120145   6.959   4.378   3.709 -0.0168 -0.2548  0.5780
   28MOL   C65220146   7.072   4.183   3.764  0.1015 -0.2989 -0.4822
   28MOL   C65320147   6.972   4.132   3.846 -0.5314 -0.6685  0.6169
   28MOL   C65420148   6.984   4.020   3.923 -0.1647  0.2918  0.0307
   28MOL   C65520149   7.105   3.955   3.918 -0.1103 -0.6307 -0.1018
   28MOL   C65620150   7.136   3.839   4.001 -0.1126  0.7193  0.1498
   28MOL   O65720151   7.079   3.740   3.975 -0.2287 -0.0773  0.1896
   28MOL   N65820152   7.219   3.847   4.107 -0.0782  0.1225 -0.0881
   28MOL   C65920153   7.254   3.733   4.180  0.2459  0.1690 -0.1053
   28MOL   C66020154   7.379   3.659   4.130 -0.6781  0.1681  0.2643
   28MOL   C66120155   7.412   3.541   4.227  0.2971  0.5959  0.7612
   28MOL   C66220156   7.549   3.478   4.219  0.2743  1.0619  0.5293
   28MOL   C66320157   7.567   3.380   4.342 -0.0308 -0.2850  0.3873
   28MOL   C66420158   7.713   3.329   4.355  0.1459  0.3841 -0.5579
   28MOL   N66520159   7.730   3.219   4.252 -0.1658 -0.1772  0.7487
   28MOL   C66620160   7.210   3.996   3.833 -0.4430  0.1977 -0.6727
   28MOL   C66720161   7.198   4.116   3.760 -0.0273 -0.1631  0.3565
   28MOL   H66820162   6.876   4.179   3.855 -0.0626  0.5292 -0.4392
   28MOL   H66920163   6.901   3.981   3.980  0.4452 -1.0926  0.0039
   28MOL   H67020164   7.261   3.939   4.111 -2.5472  1.4447 -2.5420
   28MOL   H67120165   7.268   3.766   4.283 -0.4759  0.6703 -0.1563
   28MOL   H67220166   7.166   3.669   4.173  0.6413 -0.1407 -2.6154
   28MOL   H67320167   7.466   3.724   4.123 -1.8792  1.9527  1.5991
   28MOL   H67420168   7.360   3.634   4.026  1.2463  0.5871 -0.2050
   28MOL   H67520169   7.403   3.576   4.330  0.7357  1.1584  0.6133
   28MOL   H67620170   7.331   3.469   4.214  1.5928 -0.5983 -0.7656
   28MOL   H67720171   7.628   3.553   4.224  0.0148  1.3240  0.6561
   28MOL   H67820172   7.552   3.430   4.120  2.1286  0.9908  0.5942
   28MOL   H67920173   7.492   3.301   4.338  1.6411 -1.9054  0.6142
   28MOL   H68020174   7.551   3.440   4.432  0.1135 -0.2905  0.4167
   28MOL   H68120175   7.784   3.411   4.363  0.1278  0.4109 -0.6646
   28MOL   H68220176   7.720   3.280   4.452  3.4115  0.8771 -0.4974
   28MOL   H68320177   7.713   3.126   4.289 -1.3122  0.1435  1.0269
   28MOL   H68420178   7.306   3.949   3.844 -0.3073  0.8379  0.9770
   28MOL   H68520179   7.283   4.155   3.706 -0.4567 -0.4286 -0.5338
   28MOL   C68620180   7.784   3.238   4.133  0.4856 -0.0900 -0.7541
   28MOL   O68720181   7.802   3.352   4.088 -0.6318  0.6016 -0.3895
   28MOL   C68820182   7.821   3.108   4.064 -1.1948 -0.5854  0.1434
   28MOL   C68920183   0.052   3.103   3.985 -0.6817  0.3880 -0.5015
   28MOL   C69020184   0.080   2.979   3.915 -0.4571 -0.1487 -0.9406
   28MOL   C69120185   7.882   2.867   3.925 -0.5685  0.1662 -0.1086
   28MOL   C69220186   0.023   2.742   3.852  0.9971 -0.7751 -0.6774
   28MOL   O69320187   7.821   2.684   3.791  0.0513  0.4554 -0.5026
   28MOL   N69420188   0.149   2.700   3.855 -0.4603 -0.1103 -0.4823
   28MOL   C69520189   0.247   2.728   3.963  0.5455  0.2679  0.3070
   28MOL   C69620190   0.377   2.663   3.922 -0.0445 -0.0894  0.1118
   28MOL   C69720191   0.496   2.709   3.996 -0.2399 -1.0133 -0.3074
   28MOL   C69820192   0.630   2.667   3.936 -0.2027  0.0475  0.3979
   28MOL   C69920193   0.751   2.762   3.955 -0.4580 -0.0245 -0.1576
   28MOL   C70020194   0.872   2.723   3.877 -0.7611  0.1728 -0.4252
   28MOL   N70120195   0.927   2.595   3.905 -0.6693  0.0252  0.4480
   28MOL   C70220196   7.762   2.877   3.998 -0.3273 -0.5060  0.0580
   28MOL   C70320197   7.733   2.996   4.063  0.2696 -0.7913 -0.2411
   28MOL   H70420198   0.120   3.186   3.975 -2.5353  1.7118 -2.4436
   28MOL   H70520199   0.170   2.982   3.855 -0.6668 -3.2931 -1.4836
   28MOL   H70620200   0.168   2.624   3.792  0.8687 -1.2643  1.2576
   28MOL   H70720201   0.259   2.836   3.978 -1.6791  0.5616  0.0566
   28MOL   H70820202   0.198   2.684   4.049  2.1567 -0.7154  0.7392
   28MOL   H70920203   0.394   2.686   3.817 -2.6095  3.0940  0.3390
   28MOL   H71020204   0.374   2.554   3.925 -2.8413 -0.0774 -1.2444
   28MOL   H71120205   0.492   2.817   3.985 -0.7477 -0.8050  1.6291
   28MOL   H71220206   0.497   2.681   4.102  1.1986 -0.8631 -0.2716
   28MOL   H71320207   0.607   2.666   3.829 -2.0543 -0.2763  0.7838
   28MOL   H71420208   0.664   2.569   3.970 -0.8656  0.3591  2.0119
   28MOL   H71520209   0.774   2.788   4.058  1.7591  1.4363 -1.0046
   28MOL   H71620210   0.723   2.860   3.917  1.0904  0.4168 -0.1835
   28MOL   H71720211   0.856   2.728   3.769 -0.7667  3.5357 -0.3218
   28MOL   H71820212   0.950   2.796   3.901 -1.1804  0.4432  0.1297
   28MOL   H71920213   0.851   2.528   3.914 -0.5989 -0.0105  0.7848
   28MOL   H72020214   7.688   2.799   4.009  0.1678 -0.9923 -0.0832
   28MOL   H72120215   7.640   3.008   4.117 -0.1836  2.5592 -1.6535
   28MOL   H72220216   0.991   2.565   3.833  0.6195 -1.8408  2.2853
   29MOL     C120217   7.663   3.526   6.412  0.0900 -0.1753 -0.0403
   29MOL     O220218   7.766   3.574   6.469 -0.0922 -0.4014  0.1020
   29MOL     C320219   7.596   3.589   6.297  0.0674 -0.1094 -0.9395
   29MOL     C420220   7.638   3.711   6.251 -0.7127 -0.3180  0.7223
   29MOL     C520221   7.588   3.770   6.136  0.2259 -0.6212  0.3399
   29MOL     C620222   7.494   3.704   6.063  0.1775  0.2957  0.1789
   29MOL     C720223   7.466   3.747   5.916  0.0075 -0.1465 -0.5321
   29MOL     O820224   7.551   3.818   5.860 -0.3341 -0.6587  0.5536
   29MOL     N920225   7.347   3.712   5.856  0.3756  0.6617 -0.3150
   29MOL    C1020226   7.302   3.741   5.721 -0.0192 -0.4077  0.2735
   29MOL    C1120227   7.219   3.871   5.707  0.2016  0.0178 -0.5553
   29MOL    C1220228   7.201   3.928   5.568  0.2287 -0.0888 -0.0436
   29MOL    C1320229   7.161   4.080   5.570 -0.6433 -0.2528  0.6494
   29MOL    C1420230   7.168   4.137   5.430  0.0087  0.3076 -0.2006
   29MOL    C1520231   7.140   4.284   5.439  0.3699 -0.2876  0.5147
   29MOL    N1620232   7.162   4.354   5.307  1.1185 -0.6814  0.3223
   29MOL    C1720233   7.445   3.579   6.110  0.4560 -0.2474 -0.3696
   29MOL    C1820234   7.491   3.522   6.231 -0.1759  0.1801  0.1767
   29MOL    H1920235   7.721   3.761   6.298  0.8095 -0.9562 -1.1725
   29MOL    H2020236   7.629   3.865   6.104  2.3909 -0.9961  1.8653
   29MOL    H2120237   7.285   3.647   5.901  1.9066 -0.8545 -0.3440
   29MOL    H2220238   7.381   3.778   5.656 -0.3680 -1.3484 -0.7012
   29MOL    H2320239   7.257   3.656   5.669 -0.8248 -0.4759  1.0603
   29MOL    H2420240   7.264   3.939   5.779 -2.3837 -0.9738  2.1014
   29MOL    H2520241   7.123   3.841   5.748  1.4295 -2.3203  0.6480
   29MOL    H2620242   7.296   3.910   5.517  0.5541 -0.3390  0.6504
   29MOL    H2720243   7.129   3.868   5.514  0.4990  0.9953 -1.6584
   29MOL    H2820244   7.238   4.135   5.625  0.2218  1.3950 -2.1053
   29MOL    H2920245   7.066   4.094   5.622  0.4279 -0.0093  2.5923
   29MOL    H3020246   7.104   4.082   5.361 -1.7487  2.2058 -0.1353
   29MOL    H3120247   7.273   4.125   5.405  0.5218  1.7712  1.1778
   29MOL    H3220248   7.046   4.314   5.484  0.8056 -0.6441  1.6894
   29MOL    H3320249   7.216   4.325   5.505 -0.3244  1.0257  0.5088
   29MOL    H3420250   7.075   4.383   5.264  1.5304  0.4924  0.2762
   29MOL    H3520251   7.380   3.520   6.048  1.3957 -1.7016 -0.0013
   29MOL    H3620252   7.466   3.420   6.253 -0.9644 -0.1906 -2.3466
   29MOL    H3720253   7.630   3.428   6.446  0.3324 -0.2804 -0.1033
   29MOL    C3820254   7.276   4.384   5.240  0.2442  0.2415 -0.1006
   29MOL    O3920255   7.386   4.348   5.283  0.1986  0.6170  0.6925
   29MOL    C4020256   7.265   4.472   5.117 -0.3852 -0.2783 -0.6629
   29MOL    C4120257   7.157   4.560   5.101  0.3651  0.3095  0.0664
   29MOL    C4220258   7.150   4.644   4.989  0.2723 -0.0747 -0.0530
   29MOL    C4320259   7.249   4.654   4.894 -0.6298  0.0152 -0.0219
   29MOL    C4420260   7.238   4.740   4.779  0.0510  0.1045  0.3815
   29MOL    O4520261   7.148   4.823   4.778 -0.3512 -0.2409 -0.0184
   29MOL    N4620262   7.315   4.716   4.672 -0.2632 -0.0368 -0.6706
   29MOL    C4720263   7.304   4.797   4.554  0.7468 -0.1371 -0.1941
   29MOL    C4820264   7.446   4.845   4.513 -0.2400  0.4043  0.1529
   29MOL    C4920265   7.557   4.739   4.493 -0.4277 -0.0920  0.7524
   29MOL    C5020266   7.688   4.802   4.458  0.7537 -0.7876  0.4702
   29MOL    C5120267   7.807   4.710   4.466 -0.1454 -0.3949 -0.4557
   29MOL    C5220268   0.039   4.797   4.437  0.4170  0.3158  0.0868
   29MOL    N5320269   0.154   4.727   4.481 -0.0155 -0.0712 -0.3156
   29MOL    C5420270   7.361   4.573   4.914 -0.2966 -0.0060 -0.9762
   29MOL    C5520271   7.364   4.475   5.022 -0.6884  0.5950  0.1727
   29MOL    H5620272   7.067   4.557   5.161 -0.4157  2.0280 -0.9669
   29MOL    H5720273   7.061   4.703   4.969  0.3112  0.3472  0.9733
   29MOL    H5820274   7.392   4.651   4.665  0.6043  0.8764  0.1120
   29MOL    H5920275   7.252   4.734   4.482 -0.1314  1.4996 -1.0143
   29MOL    H6020276   7.241   4.883   4.578  1.9885  0.9530 -0.8011
   29MOL    H6120277   7.485   4.916   4.586  0.0009  0.2854  0.1385
   29MOL    H6220278   7.443   4.901   4.419  0.5327 -0.7801 -0.5969
   29MOL    H6320279   7.562   4.689   4.590  2.4029 -3.1052 -0.8522
   29MOL    H6420280   7.537   4.675   4.406  0.6630  0.1039  0.3466
   29MOL    H6520281   7.719   4.877   4.530  1.4840 -1.8528  1.2890
   29MOL    H6620282   7.687   4.835   4.354  0.8097  2.5708  1.5019
   29MOL    H6720283   7.811   4.617   4.410 -2.8306 -0.4546 -0.5981
   29MOL    H6820284   7.803   4.685   4.572  3.6013  2.1680  0.3885
   29MOL    H6920285   0.039   4.804   4.328 -0.0260  1.4911  0.1633
   29MOL    H7020286   0.052   4.898   4.475 -0.6318  1.0096 -1.3795
   29MOL    H7120287   0.194   4.755   4.570 -0.1674 -3.4249  0.8949
   29MOL    H7220288   7.446   4.570   4.848  0.7180 -0.8145  0.3220
   29MOL    H7320289   7.451   4.414   5.043  0.1574  2.1369  1.2770
   29MOL    C7420290   0.230   4.639   4.411 -0.4037  0.8271 -0.3349
   29MOL    O7520291   0.194   4.598   4.301  0.3769  0.3559  0.6748
   29MOL    C7620292   0.361   4.601   4.475  0.0578  0.1143 -0.2375
   29MOL    C7720293   0.480   4.607   4.399 -0.7814  0.0162  0.1404
   29MOL    C7820294   0.603   4.579   4.468  0.0879 -0.9109  0.2957
   29MOL    C7920295   0.601   4.534   4.601  0.7631 -0.6424 -0.2079
   29MOL    C8020296   0.724   4.484   4.669  0.0080 -0.4106 -0.0946
   29MOL    O8120297   0.711   4.429   4.777  0.5563 -0.0365 -0.1586
   29MOL    N8220298   0.842   4.483   4.606  0.4674 -0.4872 -1.0378
   29MOL    C8320299   0.971   4.454   4.659  0.0574 -0.1735  0.2519
   29MOL    C8420300   1.036   4.592   4.690  0.5984 -0.1003 -0.3276
   29MOL    C8520301   0.943   4.693   4.755  0.0947 -0.2037 -0.7412
   29MOL    C8620302   1.011   4.818   4.812 -0.7831 -0.2064  0.1791
   29MOL    C8720303   1.099   4.789   4.937 -0.0883 -0.5228  0.4645
   29MOL    C8820304   1.217   4.891   4.951 -0.2319 -0.5127  0.3054
   29MOL    N8920305   1.310   4.831   5.048 -0.1326 -0.0482  0.9355
   29MOL    C9020306   0.480   4.526   4.669  0.2313 -0.5793 -0.6321
   29MOL    C9120307   0.357   4.557   4.609 -0.4155 -0.0215 -0.9450
   29MOL    H9220308   0.477   4.640   4.296  0.1996 -2.2391 -0.6330
   29MOL    H9320309   0.693   4.582   4.408  0.1841  3.5706  0.4993
   29MOL    H9420310   0.841   4.548   4.529  0.0567  0.7273 -0.0339
   29MOL    H9520311   0.951   4.393   4.747 -2.2265  0.8335  0.4545
   29MOL    H9620312   1.031   4.396   4.589 -2.7427 -0.9569 -1.5895
   29MOL    H9720313   1.077   4.631   4.597 -2.3441 -1.7327 -2.3690
   29MOL    H9820314   1.117   4.568   4.760  0.0271 -2.6927 -0.5147
   29MOL    H9920315   0.874   4.714   4.673 -1.2704 -0.2705  0.3866
   29MOL   H10020316   0.888   4.655   4.840  0.3786  0.8179 -0.1014
   29MOL   H10120317   0.945   4.905   4.818 -2.0940 -1.0024 -1.8849
   29MOL   H10220318   1.076   4.852   4.731 -0.5238  0.0962  0.5162
   29MOL   H10320319   1.137   4.687   4.935 -2.5850 -1.4674  0.0418
   29MOL   H10420320   1.043   4.793   5.030  0.4187  0.1842  0.7492
   29MOL   H10520321   1.274   4.886   4.859  0.6213  0.8610  0.7396
   29MOL   H10620322   1.193   4.996   4.969  0.1402 -0.3262 -0.2699
   29MOL   H10720323   1.275   4.758   5.109  1.7379 -1.1410  0.7154
   29MOL   H10820324   0.489   4.501   4.774 -1.0022 -1.0176 -0.6218
   29MOL   H10920325   0.262   4.555   4.660  0.2513  0.9846  0.3606
   29MOL   C11020326   1.433   4.883   5.065  0.4678  0.0309  0.5626
   29MOL   O11120327   1.484   4.974   5.004 -0.1902  0.2023  0.8081
   29MOL   C11220328   1.500   4.827   5.187 -0.0556  0.4681 -0.2838
   29MOL   C11320329   1.619   4.887   5.228 -0.5175 -0.0429 -0.0032
   29MOL   C11420330   1.691   4.822   5.331 -0.5824  0.2688  0.1773
   29MOL   C11520331   1.647   4.706   5.400  0.3233 -0.3128 -0.1215
   29MOL   C11620332   1.734   4.646   5.509  0.1887 -0.0742  0.3623
   29MOL   O11720333   1.855   4.664   5.509 -0.2135 -0.1746 -0.1535
   29MOL   N11820334   1.663   4.584   5.605 -0.3471 -0.3806  0.0005
   29MOL   C11920335   1.725   4.533   5.726  0.3527  0.6517  0.7482
   29MOL   C12020336   1.630   4.530   5.851  0.3310  0.1400  0.3001
   29MOL   C12120337   1.493   4.449   5.833  0.1597  0.6178  0.8568
   29MOL   C12220338   1.383   4.474   5.938  0.4027 -0.0745 -0.1320
   29MOL   C12320339   1.255   4.387   5.910 -0.8998  0.3449 -0.8385
   29MOL   C12420340   1.174   4.348   6.035  0.2489  0.1476 -0.0675
   29MOL   N12520341   1.028   4.319   6.011 -0.2715 -0.2346 -0.5941
   29MOL   C12620342   1.521   4.647   5.361  0.5253  0.2470  0.1536
   29MOL   C12720343   1.454   4.706   5.250 -0.9772 -0.0279  0.7469
   29MOL   H12820344   1.653   4.977   5.179 -2.0951 -0.1800 -1.3702
   29MOL   H12920345   1.789   4.866   5.346  0.4792 -1.7093 -0.7070
   29MOL   H13020346   1.568   4.559   5.581 -0.0579 -1.9394  0.3912
   29MOL   H13120347   1.754   4.430   5.706  1.7552  0.9535  1.2114
   29MOL   H13220348   1.811   4.595   5.753 -0.2157  0.7159  2.5340
   29MOL   H13320349   1.610   4.637   5.863  1.3566  0.7070 -2.6903
   29MOL   H13420350   1.684   4.500   5.941  3.1948  0.5527 -1.2236
   29MOL   H13520351   1.448   4.471   5.737  1.6142 -0.8642 -0.1872
   29MOL   H13620352   1.518   4.343   5.831  1.0423  0.8393 -0.7234
   29MOL   H13720353   1.361   4.580   5.946  2.5097  0.3067  1.3375
   29MOL   H13820354   1.422   4.453   6.038 -0.0610  1.2161  0.3249
   29MOL   H13920355   1.279   4.290   5.867  0.2704 -0.1564  0.9135
   29MOL   H14020356   1.179   4.447   5.859 -0.5585  1.3462 -0.1899
   29MOL   H14120357   1.220   4.263   6.085 -0.7298 -0.3527 -0.0134
   29MOL   H14220358   1.178   4.436   6.100  2.5922  0.4746 -0.6278
   29MOL   H14320359   0.989   4.339   5.920 -2.5694 -0.2200  0.3484
   29MOL   H14420360   1.475   4.559   5.403  1.2037  0.7709  2.0194
   29MOL   H14520361   1.370   4.647   5.218  0.0277 -0.6414 -0.8074
   29MOL   C14620362   0.946   4.271   6.105  0.3208 -0.1767  0.7165
   29MOL   O14720363   0.985   4.239   6.218  0.3805 -0.7103  0.7998
   29MOL   C14820364   0.803   4.242   6.055 -0.9811  0.0831  0.7942
   29MOL   C14920365   0.730   4.127   6.100 -0.3691 -0.5559 -0.4081
   29MOL   C15020366   0.615   4.081   6.034 -0.6828 -0.2073 -0.0921
   29MOL   C15120367   0.566   4.143   5.918 -0.3916  0.5731  1.2416
   29MOL   C15220368   0.460   4.083   5.830 -0.3557 -0.0012 -0.3903
   29MOL   O15320369   0.379   4.157   5.770 -0.2515  0.5108  0.7146
   29MOL   N15420370   0.473   3.953   5.805 -0.0651 -0.3404  0.6760
   29MOL   C15520371   0.430   3.874   5.692  0.2129  0.2336 -0.2129
   29MOL   C15620372   0.440   3.721   5.709 -0.5180 -0.4239 -0.0810
   29MOL   C15720373   0.473   3.653   5.571  0.3128  0.0018 -0.6728
   29MOL   C15820374   0.362   3.676   5.467  0.1291 -0.0059 -0.0117
   29MOL   C15920375   0.386   3.623   5.321  0.1909 -0.8155  0.3518
   29MOL   C16020376   0.435   3.729   5.218 -0.4440 -0.2108 -0.0089
   29MOL   N16120377   0.543   3.806   5.273 -0.8462  0.0250 -0.0995
   29MOL   C16220378   0.637   4.266   5.884 -0.7687  0.4629  0.7057
   29MOL   C16320379   0.748   4.319   5.946  0.6349  0.0501 -0.3814
   29MOL   H16420380   0.774   4.076   6.184  0.0435 -0.0169 -0.2962
   29MOL   H16520381   0.563   3.995   6.075  4.9803 -3.0223  1.6701
   29MOL   H16620382   0.555   3.913   5.848  1.6140  0.1243 -1.9601
   29MOL   H16720383   0.322   3.888   5.687  0.3922  1.7237 -0.0882
   29MOL   H16820384   0.473   3.915   5.600 -1.6549  1.2596 -0.6606
   29MOL   H16920385   0.349   3.677   5.750 -0.2561  0.0096  0.9796
   29MOL   H17020386   0.518   3.694   5.780 -0.6429 -0.2933  0.1089
   29MOL   H17120387   0.569   3.671   5.525 -0.5928  1.1035 -2.1802
   29MOL   H17220388   0.482   3.545   5.586 -2.3084  0.0530  1.7812
   29MOL   H17320389   0.349   3.784   5.456 -1.8858 -0.0469  1.7153
   29MOL   H17420390   0.268   3.635   5.505 -1.7068  1.8703 -2.3807
   29MOL   H17520391   0.289   3.589   5.284  1.1781 -1.3050 -1.8668
   29MOL   H17620392   0.444   3.531   5.314  0.5132 -0.4961 -1.3703
   29MOL   H17720393   0.460   3.687   5.120  0.5511  2.7460 -1.0808
   29MOL   H17820394   0.356   3.800   5.191  0.6931  1.9776  2.2610
   29MOL   H17920395   0.628   3.755   5.291 -1.1131  0.0651  1.3500
   29MOL   H18020396   0.605   4.322   5.798  0.4423  0.3759  0.1982
   29MOL   H18120397   0.797   4.410   5.915 -0.1919  0.6819  0.1534
   29MOL   C18220398   0.544   3.938   5.301  0.1591  0.5758  0.0249
   29MOL   O18320399   0.442   4.008   5.269 -0.4315  0.3429 -0.0559
   29MOL   C18420400   0.654   3.989   5.393 -0.1890  0.3538  0.3150
   29MOL   C18520401   0.762   3.907   5.430  0.1808 -0.2577  0.3702
   29MOL   C18620402   0.857   3.944   5.519 -0.5620 -0.6209  0.3985
   29MOL   C18720403   0.850   4.072   5.583  0.8346 -0.1330  0.0820
   29MOL   C18820404   0.959   4.118   5.673  0.1080 -0.0141  0.4326
   29MOL   O18920405   1.018   4.221   5.647 -0.5402 -0.1560 -0.0677
   29MOL   N19020406   0.988   4.035   5.775  0.1269  0.4082 -0.4389
   29MOL   C19120407   1.109   4.042   5.860 -0.2061 -0.0896 -0.1398
   29MOL   C19220408   1.167   3.897   5.881 -0.1548  0.2731 -0.4643
   29MOL   C19320409   1.310   3.878   5.950  0.3081 -0.0370 -0.7314
   29MOL   C19420410   1.297   3.857   6.100  0.2177  0.4185 -0.0313
   29MOL   C19520411   1.403   3.765   6.146  0.4132 -0.3116 -0.0606
   29MOL   C19620412   1.437   3.754   6.297 -0.0605  0.4527 -0.3584
   29MOL   N19720413   1.565   3.682   6.312  0.3660  0.3230  1.0059
   29MOL   C19820414   0.744   4.155   5.553  0.5468  0.3401  0.0153
   29MOL   C19920415   0.644   4.118   5.457 -0.5192  0.2342 -0.4412
   29MOL   H20020416   0.757   3.808   5.388 -0.1010 -1.6936  3.6915
   29MOL   H20120417   0.938   3.876   5.542 -1.9880 -2.6465 -0.3849
   29MOL   H20220418   0.922   3.960   5.794 -1.9650  2.2356 -0.2092
   29MOL   H20320419   1.181   4.111   5.815 -1.0472  2.8224  2.7970
   29MOL   H20420420   1.089   4.066   5.964  0.2753 -0.4604  0.0410
   29MOL   H20520421   1.176   3.855   5.781 -0.9803 -0.6959 -0.1492
   29MOL   H20620422   1.101   3.826   5.931  0.7654 -0.5975 -0.4728
   29MOL   H20720423   1.343   3.787   5.899 -2.4861 -0.4361 -1.9214
   29MOL   H20820424   1.379   3.959   5.931  0.2490  0.1138 -0.3022
   29MOL   H20920425   1.206   3.810   6.136  0.6337 -0.5784 -0.2794
   29MOL   H21020426   1.321   3.950   6.152  0.5535  0.2113  0.1901
   29MOL   H21120427   1.491   3.784   6.085 -0.8138  1.1191 -1.4333
   29MOL   H21220428   1.372   3.665   6.117  3.2170 -1.2890  0.2422
   29MOL   H21320429   1.437   3.853   6.341  0.2882 -0.1804  1.0786
   29MOL   H21420430   1.362   3.690   6.342  0.8929  0.8438  1.8263
   29MOL   H21520431   1.565   3.592   6.266 -0.5681 -0.0888  1.7809
   29MOL   H21620432   0.748   4.253   5.597 -0.5877 -0.9320  3.0382
   29MOL   H21720433   0.570   4.194   5.440 -1.1143 -0.5417 -1.3832
   29MOL   C21820434   1.669   3.720   6.384 -0.2710  0.1093 -0.2299
   29MOL   O21920435   1.678   3.837   6.432 -0.0190  0.4270  0.0731
   29MOL   C22020436   1.793   3.635   6.386 -0.1370 -0.5520  0.1378
   29MOL   C22120437   1.782   3.494   6.393 -0.2015  0.6902  0.2514
   29MOL   C22220438   1.897   3.417   6.387 -0.2316 -0.6353 -0.0586
   29MOL   C22320439   2.026   3.474   6.374  0.7858 -0.1657  0.5765
   29MOL   C22420440   2.150   3.387   6.372 -0.1605 -0.5567  0.0697
   29MOL   O22520441   2.162   3.288   6.448  0.0852  0.1903  0.0634
   29MOL   N22620442   2.256   3.435   6.304  0.4789 -0.4190 -0.2593
   29MOL   C22720443   2.390   3.376   6.311  0.1575  0.3182  0.8561
   29MOL   C22820444   2.501   3.467   6.284 -0.0310 -0.0901  0.3841
   29MOL   C22920445   2.624   3.395   6.258  0.0239  0.1429 -0.4735
   29MOL   C23020446   2.744   3.481   6.215 -0.1423  0.9785  0.1904
   29MOL   C23120447   2.732   3.536   6.075  0.4185 -0.3716  0.7697
   29MOL   C23220448   2.865   3.605   6.037 -0.4067 -1.2054 -0.1067
   29MOL   N23320449   2.869   3.677   5.903  0.5713  0.1092 -0.8244
   29MOL   C23420450   2.037   3.615   6.362 -0.1351  0.5015 -0.3048
   29MOL   C23520451   1.918   3.694   6.374  0.2177 -0.6196 -0.4604
   29MOL   H23620452   1.691   3.439   6.414  0.2924  0.1998  1.1526
   29MOL   H23720453   1.889   3.310   6.384 -2.0100 -0.5057 -1.2714
   29MOL   H23820454   2.245   3.518   6.247  0.0703 -0.2576  0.0526
   29MOL   H23920455   2.405   3.319   6.403 -0.9469 -1.3828  0.0026
   29MOL   H24020456   2.389   3.297   6.236  1.1142 -0.3147  1.5013
   29MOL   H24120457   2.513   3.537   6.366 -0.0867 -0.5796  0.8167
   29MOL   H24220458   2.474   3.535   6.204 -0.5952  0.1555  0.7891
   29MOL   H24320459   2.649   3.343   6.351 -0.8377  0.4676 -0.0530
   29MOL   H24420460   2.611   3.316   6.184 -2.4604  0.8981 -0.8721
   29MOL   H24520461   2.835   3.422   6.204 -0.8152  0.1802 -1.2907
   29MOL   H24620462   2.755   3.554   6.294  0.0743  0.6770  0.4421
   29MOL   H24720463   2.646   3.603   6.071 -0.8081 -1.9453  0.3683
   29MOL   H24820464   2.713   3.447   6.016 -0.2772  0.3992 -0.1779
   29MOL   H24920465   2.877   3.688   6.107  0.0992 -0.7923 -0.6758
   29MOL   H25020466   2.950   3.538   6.047  1.0805  0.2311 -2.4586
   29MOL   H25120467   2.792   3.685   5.838 -0.7403  0.4346  0.7235
   29MOL   H25220468   2.131   3.667   6.355  0.2063 -0.1277 -0.4272
   29MOL   H25320469   1.922   3.802   6.375 -2.3687 -0.4806  1.2595
   29MOL   C25420470   2.963   3.767   5.886 -0.4592 -0.2423  0.7574
   29MOL   O25520471   3.044   3.806   5.969 -0.2118 -0.9102 -0.1874
   29MOL   C25620472   2.968   3.827   5.743  0.2854  0.4674  0.1527
   29MOL   C25720473   2.858   3.892   5.686  0.0832  0.0072  0.3010
   29MOL   C25820474   2.868   3.949   5.556 -0.6361 -0.6593  0.8334
   29MOL   C25920475   2.988   3.955   5.483  0.3096  0.3769  0.2444
   29MOL   C26020476   2.999   4.032   5.356 -0.5511 -0.0616  0.7598
   29MOL   O26120477   3.103   4.032   5.284  0.0043  0.1801 -0.0665
   29MOL   N26220478   2.893   4.099   5.312 -0.1929  0.0301 -0.4142
   29MOL   C26320479   2.873   4.181   5.190 -0.2091  0.2838  0.3708
   29MOL   C26420480   2.798   4.096   5.082  0.0073 -0.3651  0.2294
   29MOL   C26520481   2.876   4.036   4.965 -0.8737 -0.0944  0.2043
   29MOL   C26620482   2.862   4.106   4.836  0.1180 -0.1341 -0.4091
   29MOL   C26720483   2.927   4.251   4.837 -0.7782  0.3854 -0.1792
   29MOL   C26820484   2.916   4.302   4.691 -0.3477 -0.5216 -0.3276
   29MOL   N26920485   2.984   4.432   4.677 -0.4088  0.0731 -0.2403
   29MOL   C27020486   3.100   3.886   5.538 -0.0635 -0.0884 -0.2082
   29MOL   C27120487   3.084   3.825   5.668 -0.0999 -1.3661  0.1286
   29MOL   H27220488   2.766   3.894   5.741  0.3618  1.9300  0.7312
   29MOL   H27320489   2.781   3.996   5.515  0.3313  0.9809  0.6252
   29MOL   H27420490   2.810   4.088   5.368  0.5862  0.9103  0.9470
   29MOL   H27520491   2.804   4.251   5.238  2.0737  0.5163  3.4394
   29MOL   H27620492   2.961   4.232   5.152 -0.3588  0.4473  0.2370
   29MOL   H27720493   2.711   4.153   5.049  0.2727 -1.1905 -1.9369
   29MOL   H27820494   2.749   4.013   5.134 -1.0960 -1.3822 -2.3347
   29MOL   H27920495   2.983   4.032   4.986 -0.5483  2.2975 -0.8290
   29MOL   H28020496   2.851   3.931   4.950  1.1905 -0.5993  0.1566
   29MOL   H28120497   2.758   4.104   4.801  0.0361 -0.9568 -0.1261
   29MOL   H28220498   2.903   4.041   4.760 -0.9166 -0.6781 -0.5117
   29MOL   H28320499   3.029   4.239   4.874 -0.5454  2.5324 -0.1067
   29MOL   H28420500   2.866   4.323   4.891  1.4186  1.9520  0.2754
   29MOL   H28520501   2.958   4.236   4.615  1.3998  2.7627 -2.3407
   29MOL   H28620502   2.809   4.304   4.673  0.0089 -1.0540 -2.5536
   29MOL   H28720503   3.085   4.437   4.670 -0.6548  2.3319 -3.0709
   29MOL   H28820504   3.194   3.882   5.485  1.8649  0.6592  3.0237
   29MOL   H28920505   3.168   3.772   5.710  0.7079 -0.7342 -0.6505
   29MOL   C29020506   2.928   4.545   4.700  0.9387  0.3387 -0.3112
   29MOL   O29120507   2.807   4.556   4.723  0.0219 -0.0718 -0.8066
   29MOL   C29220508   3.025   4.664   4.692 -0.0008  0.0673 -0.0897
   29MOL   C29320509   3.125   4.671   4.595 -0.1513  0.5722 -0.3234
   29MOL   C29420510   3.209   4.790   4.586  0.4136 -0.7788  0.0802
   29MOL   C29520511   3.176   4.900   4.669  0.1539 -0.3389 -0.4647
   29MOL   C29620512   3.258   5.022   4.664 -0.3133 -0.4313  0.1099
   29MOL   O29720513   3.318   5.051   4.562 -0.1404 -0.6062 -0.2253
   29MOL   N29820514   3.256   5.096   4.772  0.3967  0.1407  0.0593
   29MOL   C29920515   3.317   5.227   4.793 -0.4778 -0.5728  0.1556
   29MOL   C30020516   3.273   5.299   4.919 -0.0910  0.0500 -0.7094
   29MOL   C30120517   3.120   5.339   4.921 -1.1482  0.3041  0.2493
   29MOL   C30220518   3.085   5.409   5.053  0.3587  0.2658  0.1315
   29MOL   C30320519   2.932   5.439   5.071  0.4855  0.2723 -0.6431
   29MOL   C30420520   2.900   5.508   5.199  0.2750 -0.0568 -0.5572
   29MOL   N30520521   2.924   5.652   5.203  0.0150  0.5244  0.1612
   29MOL   C30620522   3.079   4.885   4.770  0.9645  0.4923  0.0996
   29MOL   C30720523   2.996   4.776   4.780 -0.9166  0.1521 -0.0029
   29MOL   H30820524   3.135   4.593   4.520 -0.5156 -1.2120  1.4374
   29MOL   H30920525   3.291   4.791   4.515  0.9895  1.1306  0.7400
   29MOL   H31020526   3.195   5.059   4.843 -1.2949  1.9471 -0.3963
   29MOL   H31120527   3.424   5.242   4.775 -0.5133 -0.1659  0.2801
   29MOL   H31220528   3.272   5.286   4.714  1.2926  0.1583 -0.3262
   29MOL   H31320529   3.328   5.392   4.929 -0.0756 -0.1307  1.0263
   29MOL   H31420530   3.290   5.229   5.001  0.1926  0.5997 -0.3001
   29MOL   H31520531   3.095   5.416   4.847  2.1034  0.3215 -0.9153
   29MOL   H31620532   3.054   5.256   4.894  0.9068 -1.5375  0.7596
   29MOL   H31720533   3.141   5.500   5.074 -0.6998  1.1169 -0.6347
   29MOL   H31820534   3.118   5.336   5.127 -1.3137 -1.8855 -1.1557
   29MOL   H31920535   2.878   5.345   5.075 -1.9900  1.6772 -0.3350
   29MOL   H32020536   2.908   5.493   4.979  1.0502  1.2428 -0.2223
   29MOL   H32120537   2.794   5.500   5.226 -0.7305  2.1337 -3.5729
   29MOL   H32220538   2.956   5.465   5.282 -1.7025 -1.7442 -0.0758
   29MOL   H32320539   3.017   5.677   5.234  0.5040  0.2361 -1.0518
   29MOL   H32420540   3.065   4.962   4.844 -0.0527  0.8398 -0.4410
   29MOL   H32520541   2.916   4.776   4.853 -0.9730  1.2811 -0.0596
   29MOL   C32620542   2.863   5.757   5.143 -0.7118  0.3810  0.1548
   29MOL   O32720543   2.758   5.749   5.079 -0.0198  0.3305 -0.2152
   29MOL   C32820544   2.935   5.891   5.157 -0.4279  0.0607 -0.3072
   29MOL   C32920545   2.889   6.003   5.089 -0.0788  0.8152 -0.2343
   29MOL   C33020546   2.951   6.125   5.096  0.3656 -0.1866 -0.1810
   29MOL   C33120547   3.064   6.151   5.174  0.2713 -0.7765 -0.2975
   29MOL   C33220548   3.130   6.290   5.175 -0.3201 -0.2178  0.3489
   29MOL   O33320549   3.104   6.374   5.087 -0.7096  0.6881 -0.5371
   29MOL   N33420550   3.207   6.302   5.285  0.0146 -0.4498 -0.0678
   29MOL   C33520551   3.276   6.425   5.315  0.0145  0.2016  0.8434
   29MOL   C33620552   3.410   6.432   5.236 -0.1762  0.0247 -0.5987
   29MOL   C33720553   3.471   6.572   5.228 -0.2773  1.1567 -0.3485
   29MOL   C33820554   3.599   6.572   5.136 -0.7981  0.7859  0.5508
   29MOL   C33920555   3.666   6.707   5.118  0.0831 -0.3241  0.0616
   29MOL   C34020556   3.793   6.703   5.031  0.0257 -0.1705  0.0302
   29MOL   N34120557   3.821   6.834   4.978 -0.3623  0.1081  0.1681
   29MOL   C34220558   3.108   6.037   5.255 -0.5415  0.2122  0.3319
   29MOL   C34320559   3.039   5.910   5.243 -0.9229  0.0945 -0.0845
   29MOL   H34420560   2.803   5.996   5.023 -0.1315  0.0808 -0.0836
   29MOL   H34520561   2.900   6.207   5.048  0.2271  0.0103  0.3032
   29MOL   H34620562   3.202   6.234   5.359 -1.9267  1.1129  1.3050
   29MOL   H34720563   3.207   6.508   5.307  0.3056  0.3171 -0.6788
   29MOL   H34820564   3.306   6.423   5.419  1.0781 -1.5364  0.5318
   29MOL   H34920565   3.395   6.408   5.131  2.7540  0.4968 -1.1587
   29MOL   H35020566   3.481   6.360   5.277  0.0642 -0.0131 -1.0773
   29MOL   H35120567   3.395   6.643   5.195 -1.5413  0.6154  1.3465
   29MOL   H35220568   3.496   6.616   5.324  3.2492 -0.0908 -0.6173
   29MOL   H35320569   3.572   6.528   5.041  0.7071  1.9363 -0.4264
   29MOL   H35420570   3.668   6.505   5.188 -0.5594 -0.0588 -0.8414
   29MOL   H35520571   3.691   6.757   5.212 -0.5025  1.0955 -0.5198
   29MOL   H35620572   3.593   6.770   5.068  1.3921  0.6021 -0.7177
   29MOL   H35720573   3.879   6.661   5.084 -2.1173 -1.8275  2.3322
   29MOL   H35820574   3.774   6.637   4.946 -1.3388  1.5592 -1.0409
   29MOL   H35920575   3.773   6.910   5.025 -1.3278 -0.9412  0.8985
   29MOL   H36020576   3.195   6.058   5.316  0.3230 -0.1948 -0.7583
   29MOL   H36120577   3.067   5.839   5.320 -0.9654 -0.6276 -0.7353
   29MOL   C36220578   3.921   6.862   4.887 -0.8503  0.3041  0.5528
   29MOL   O36320579   3.972   6.775   4.816  0.2773  0.1541 -0.0296
   29MOL   C36420580   3.954   7.009   4.879  0.8380  0.3430  0.1451
   29MOL   C36520581   4.080   7.039   4.827  0.2151 -0.0196  0.5490
   29MOL   C36620582   4.126   7.166   4.827  0.2640 -0.4592  0.3780
   29MOL   C36720583   4.034   7.270   4.862 -0.0481  0.2280  0.2948
   29MOL   C36820584   4.078   7.419   4.854  0.2056 -0.0493 -0.1217
   29MOL   O36920585   4.016   7.507   4.915  0.1387  0.2436 -0.1602
   29MOL   N37020586   4.189   7.451   4.784 -0.1317 -0.1541  0.3291
   29MOL   C37120587   4.237   7.580   4.746 -0.3959  0.4559 -0.0817
   29MOL   C37220588   4.152   7.643   4.636  0.2135 -0.1255  0.2629
   29MOL   C37320589   4.196   7.620   4.491  0.1704  0.2292 -0.1447
   29MOL   C37420590   4.235   7.476   4.452  0.3919  0.2356 -0.0172
   29MOL   C37520591   4.113   7.384   4.458  0.6990  0.1167 -0.4398
   29MOL   C37620592   4.162   7.236   4.469 -0.1843  0.7320 -0.1665
   29MOL   N37720593   4.056   7.139   4.464 -0.0772 -0.0999 -0.3474
   29MOL   C37820594   3.899   7.245   4.900  0.3335 -0.0184  0.5373
   29MOL   C37920595   3.860   7.115   4.921 -0.1487 -0.4201 -0.0903
   29MOL   H38020596   4.153   6.965   4.799  1.9273  1.2411  1.5950
   29MOL   H38120597   4.225   7.191   4.792 -1.1861  1.6631 -2.4098
   29MOL   H38220598   4.236   7.374   4.739  0.8897  1.6184 -1.7330
   29MOL   H38320599   4.228   7.638   4.838  1.0415  0.9888 -0.2647
   29MOL   H38420600   4.345   7.581   4.731 -0.3578  0.4027  0.1906
   29MOL   H38520601   4.143   7.751   4.644  0.6636 -0.0335 -0.4292
   29MOL   H38620602   4.048   7.615   4.648 -0.5718  2.5060 -0.0481
   29MOL   H38720603   4.111   7.639   4.426 -0.3948  0.5558  0.6742
   29MOL   H38820604   4.287   7.679   4.476 -0.3805  1.4467  1.1084
   29MOL   H38920605   4.319   7.448   4.516  0.0921 -0.2837  0.1577
   29MOL   H39020606   4.285   7.471   4.356  3.0383  1.4850  1.2460
   29MOL   H39120607   4.056   7.403   4.368 -3.8417 -2.2269  1.7597
   29MOL   H39220608   4.041   7.409   4.536 -0.0077  0.0807 -1.0852
   29MOL   H39320609   4.219   7.216   4.379  2.0344 -1.0156  1.5996
   29MOL   H39420610   4.231   7.207   4.548  0.4591 -1.7331 -1.5998
   29MOL   H39520611   4.033   7.089   4.548  0.3059 -2.3313 -1.5326
   29MOL   H39620612   3.832   7.322   4.935  1.4025  0.7720  0.8819
   29MOL   H39720613   3.759   7.111   4.960  0.3138 -0.1930  1.1503
   29MOL   C39820614   3.979   7.109   4.364  0.0287 -0.0489 -0.1324
   29MOL   O39920615   3.986   7.147   4.250  0.6909  0.4315  0.3938
   29MOL   C40020616   3.862   7.025   4.413  0.0497 -0.3037 -0.0861
   29MOL   C40120617   3.860   6.954   4.537  0.3255 -0.2083 -0.0399
   29MOL   C40220618   3.751   6.887   4.586  0.2613 -0.9195  0.5774
   29MOL   C40320619   3.629   6.881   4.512 -0.1747  0.4239  0.6163
   29MOL   C40420620   3.500   6.817   4.571 -0.0646  0.0903  0.0899
   29MOL   O40520621   3.396   6.793   4.512  0.3950 -0.1868 -0.0614
   29MOL   N40620622   3.511   6.785   4.704 -0.0246 -0.2218  0.6135
   29MOL   C40720623   3.404   6.721   4.776 -0.1367 -0.1046 -0.1329
   29MOL   C40820624   3.415   6.567   4.775  0.7243 -0.1309 -0.6351
   29MOL   C40920625   3.303   6.489   4.850  0.8468 -0.7581 -0.0126
   29MOL   C41020626   3.319   6.331   4.843  0.4981 -0.2923  0.8325
   29MOL   C41120627   3.333   6.278   4.697  0.5000 -0.2337 -0.0202
   29MOL   C41220628   3.322   6.128   4.673  0.1053  0.3735 -0.4206
   29MOL   N41320629   3.366   6.087   4.541  0.3884  0.1996  0.1321
   29MOL   C41420630   3.627   6.941   4.382 -0.0504  0.1914 -0.6506
   29MOL   C41520631   3.739   7.019   4.335 -0.6077  0.5895  0.0106
   29MOL   H41620632   3.940   6.958   4.609  0.5919  0.4724 -0.3707
   29MOL   H41720633   3.756   6.831   4.678  1.2807 -0.7397  0.6399
   29MOL   H41820634   3.604   6.797   4.741  0.0519  0.8253  0.0765
   29MOL   H41920635   3.420   6.755   4.879  1.5320  3.6065 -1.5352
   29MOL   H42020636   3.309   6.740   4.726  0.4163  1.3540 -0.6526
   29MOL   H42120637   3.510   6.537   4.820 -0.6711 -2.6159  0.7325
   29MOL   H42220638   3.428   6.540   4.670  2.0491  2.6289 -1.2365
   29MOL   H42320639   3.288   6.513   4.956  0.8972  0.3340 -0.2441
   29MOL   H42420640   3.212   6.508   4.793  0.9944 -1.4366 -0.4695
   29MOL   H42520641   3.231   6.281   4.882 -1.3246  0.0994 -2.6182
   29MOL   H42620642   3.400   6.306   4.912  0.9224  0.8309  0.7463
   29MOL   H42720643   3.429   6.313   4.658 -0.3838  2.6307  0.2547
   29MOL   H42820644   3.254   6.328   4.640  0.1457  0.9862  1.4926
   29MOL   H42920645   3.388   6.086   4.749 -2.3826 -0.8728  1.1190
   29MOL   H43020646   3.220   6.101   4.698 -0.3299  4.1322  2.3342
   29MOL   H43120647   3.435   6.136   4.486  0.5309  1.3426  1.3227
   29MOL   H43220648   3.532   6.938   4.331  0.5069 -1.1509 -1.6131
   29MOL   H43320649   3.748   7.076   4.244  3.6544 -0.6910 -0.4652
   29MOL   C43420650   3.320   5.978   4.475 -0.7380 -0.4207 -0.0391
   29MOL   O43520651   3.230   5.900   4.509 -0.1489 -0.5236  0.1870
   29MOL   C43620652   3.388   5.937   4.347 -0.2209  0.7780  0.3792
   29MOL   C43720653   3.406   5.804   4.306 -0.6442 -0.5275  0.1842
   29MOL   C43820654   3.491   5.768   4.200  0.0604  0.5097  0.0525
   29MOL   C43920655   3.546   5.862   4.113 -0.2670  0.0812  0.0071
   29MOL   C44020656   3.616   5.827   3.992 -0.2123  0.5853  0.4059
   29MOL   O44120657   3.739   5.811   3.986 -0.1278 -0.6545 -0.2787
   29MOL   N44220658   3.529   5.819   3.887  0.4384  0.1231 -0.2926
   29MOL   C44320659   3.574   5.810   3.745 -0.4569 -0.0011 -0.1142
   29MOL   C44420660   3.591   5.948   3.685 -0.4397  0.0430 -0.0494
   29MOL   C44520661   3.634   5.926   3.535 -0.3128 -0.1892  0.2144
   29MOL   C44620662   3.715   6.051   3.483  0.5606  0.3901  0.0849
   29MOL   C44720663   3.616   6.162   3.453 -0.0897 -0.2719  0.0845
   29MOL   C44820664   3.627   6.288   3.536 -0.1161 -0.3598 -0.2218
   29MOL   N44920665   3.568   6.262   3.669 -0.4938  0.0394 -0.0123
   29MOL   C45020666   3.529   6.000   4.146 -0.1022 -0.1672  0.2808
   29MOL   C45120667   3.453   6.034   4.261 -0.3452  0.0381 -0.5394
   29MOL   H45220668   3.361   5.727   4.367 -0.6875  0.2318  1.1262
   29MOL   H45320669   3.508   5.663   4.184  0.6174  0.9822 -2.6683
   29MOL   H45420670   3.433   5.832   3.918  0.9705 -1.0009  1.9150
   29MOL   H45520671   3.669   5.757   3.748  1.0480  2.6907  0.7910
   29MOL   H45620672   3.507   5.753   3.680 -0.6519  1.3398 -1.0993
   29MOL   H45720673   3.672   5.996   3.739 -1.7939  2.1014  0.2131
   29MOL   H45820674   3.499   6.005   3.703  0.0436  0.4168  1.2851
   29MOL   H45920675   3.701   5.840   3.531 -0.6097 -0.4321  0.4001
   29MOL   H46020676   3.547   5.910   3.471 -0.7155  0.5215  0.5814
   29MOL   H46120677   3.774   6.023   3.395 -3.5637 -1.7884 -2.1400
   29MOL   H46220678   3.781   6.087   3.562  0.8882 -2.2241  1.0428
   29MOL   H46320679   3.511   6.135   3.444 -0.3227  0.9673 -1.2611
   29MOL   H46420680   3.630   6.202   3.352  0.1706  2.2579  1.0947
   29MOL   H46520681   3.734   6.308   3.550 -0.3143 -0.5862  1.7381
   29MOL   H46620682   3.587   6.375   3.486  2.8341  1.1516 -0.0985
   29MOL   H46720683   3.505   6.183   3.675 -0.0152 -0.4691 -1.5481
   29MOL   H46820684   3.576   6.074   4.083  2.3374 -1.3669  0.6133
   29MOL   H46920685   3.457   6.139   4.285  1.4917  0.4374 -2.3929
   29MOL   C47020686   3.589   6.339   3.776 -0.3279 -0.0912 -0.2444
   29MOL   O47120687   3.674   6.429   3.772  0.0661  0.2763  0.7414
   29MOL   C47220688   3.491   6.331   3.889 -0.1109  0.1311  0.0459
   29MOL   C47320689   3.525   6.404   4.009 -0.1384 -0.3236  0.4639
   29MOL   C47420690   3.444   6.395   4.125  0.6569  0.4894  0.5198
   29MOL   C47520691   3.328   6.314   4.117  0.0164 -0.1026 -0.6678
   29MOL   C47620692   3.236   6.296   4.234 -0.1374  0.1964 -0.7203
   29MOL   O47720693   3.269   6.334   4.351  0.1570 -0.2001  0.0155
   29MOL   N47820694   3.121   6.236   4.211 -0.0670  0.1642  0.3364
   29MOL   C47920695   3.010   6.217   4.296 -0.0366 -0.1709 -0.0867
   29MOL   C48020696   2.969   6.072   4.305  0.0734  0.3046  0.1720
   29MOL   C48120697   2.871   6.054   4.426 -0.1181 -0.6663  0.0615
   29MOL   C48220698   2.727   6.111   4.426  0.6255 -0.2311 -0.2451
   29MOL   C48320699   2.654   6.084   4.565  0.9307 -0.5261  0.3146
   29MOL   C48420700   2.524   6.173   4.567 -0.2050  0.3013  0.4382
   29MOL   N48520701   2.462   6.177   4.703 -0.5500  0.1670  0.5859
   29MOL   C48620702   3.292   6.252   3.998 -0.9746  0.2681  0.2417
   29MOL   C48720703   3.375   6.260   3.886 -0.0386  0.2991 -0.3078
   29MOL   H48820704   3.607   6.473   4.005  1.4112 -2.1388  0.2378
   29MOL   H48920705   3.473   6.456   4.209 -1.4406  2.0330  0.1496
   29MOL   H49020706   3.099   6.234   4.113 -2.0833  2.0778  0.7009
   29MOL   H49120707   3.021   6.248   4.400 -0.5189 -1.4701  0.3656
   29MOL   H49220708   2.928   6.277   4.255 -1.0422 -1.3783  0.1099
   29MOL   H49320709   3.054   6.007   4.323 -0.4805 -0.1036  1.3301
   29MOL   H49420710   2.914   6.036   4.218  0.2553  0.0310  0.1694
   29MOL   H49520711   2.863   5.948   4.451 -0.4443 -0.9683 -1.3103
   29MOL   H49620712   2.918   6.092   4.516 -0.9019  0.5662 -0.0416
   29MOL   H49720713   2.676   6.066   4.341 -3.1527  3.4122 -0.0831
   29MOL   H49820714   2.735   6.219   4.411  1.2853 -0.4632 -1.6067
   29MOL   H49920715   2.720   6.086   4.652  1.7462  0.3485 -0.2980
   29MOL   H50020716   2.622   5.981   4.574 -0.2955 -0.0272  1.7833
   29MOL   H50120717   2.556   6.269   4.528  0.9711 -0.2912 -0.0805
   29MOL   H50220718   2.460   6.122   4.494 -0.3808  2.6725 -1.1296
   29MOL   H50320719   2.527   6.216   4.770  0.0617 -1.3828  0.9128
   29MOL   H50420720   3.205   6.188   3.993 -1.9015  1.5394 -0.0540
   29MOL   H50520721   3.353   6.195   3.803  1.7228  0.5541 -1.0015
   29MOL   C50620722   2.333   6.170   4.728  0.5558  0.3593 -0.0673
   29MOL   O50720723   2.248   6.143   4.641  0.7766 -0.1347 -0.1470
   29MOL   C50820724   2.295   6.196   4.873 -0.1993 -0.6348 -0.4380
   29MOL   C50920725   2.364   6.128   4.973 -0.0763  0.1566  0.7983
   29MOL   C51020726   2.329   6.148   5.105  0.8213  0.2966  0.1030
   29MOL   C51120727   2.233   6.243   5.141  0.3104  0.1989 -0.8310
   29MOL   C51220728   2.186   6.255   5.283 -0.4151  0.5962 -0.1226
   29MOL   O51320729   2.210   6.163   5.356 -0.4276  0.1728 -0.0265
   29MOL   N51420730   2.135   6.367   5.323  0.7353 -0.1192  0.7628
   29MOL   C51520731   2.074   6.387   5.454  0.2293 -0.7841  0.4726
   29MOL   C51620732   2.103   6.532   5.499 -0.2344  0.8232  0.0273
   29MOL   C51720733   2.245   6.561   5.543  0.2203 -0.2539 -0.0384
   29MOL   C51820734   2.264   6.687   5.632  0.0122 -0.1533 -0.0953
   29MOL   C51920735   2.402   6.728   5.659 -0.6298 -0.0996  0.0284
   29MOL   C52020736   2.493   6.762   5.537 -0.5552 -0.9660  0.1548
   29MOL   N52120737   2.431   6.853   5.435  1.1721 -0.1599 -0.1033
   29MOL   C52220738   2.167   6.320   5.040 -0.8891 -0.4782 -0.2991
   29MOL   C52320739   2.191   6.285   4.908  0.6256  0.3846 -0.0226
   29MOL   H52420740   2.440   6.058   4.941  0.4022 -0.3066  2.8566
   29MOL   H52520741   2.379   6.104   5.190 -1.3883 -3.2427 -0.3142
   29MOL   H52620742   2.140   6.446   5.260  2.7353  0.6077  1.8249
   29MOL   H52720743   1.966   6.375   5.447  0.4951 -1.9528 -2.2362
   29MOL   H52820744   2.120   6.323   5.530 -0.6884 -2.7269 -0.5968
   29MOL   H52920745   2.035   6.551   5.582  0.0198  0.4450  0.3297
   29MOL   H53020746   2.066   6.600   5.423 -0.6677  1.2350  0.6042
   29MOL   H53120747   2.293   6.481   5.599 -0.7440 -0.2496  0.8181
   29MOL   H53220748   2.298   6.577   5.449 -1.4551 -0.1292 -0.9784
   29MOL   H53320749   2.221   6.664   5.730  2.4557  0.4007  1.1426
   29MOL   H53420750   2.213   6.775   5.591  1.9742  0.6897 -0.7684
   29MOL   H53520751   2.447   6.643   5.710  1.3967  0.9676  0.1016
   29MOL   H53620752   2.407   6.801   5.740 -1.7551 -0.2164  0.2043
   29MOL   H53720753   2.578   6.813   5.583 -2.2301  1.7775  0.3886
   29MOL   H53820754   2.539   6.677   5.487 -0.3219 -0.5180 -0.3934
   29MOL   H53920755   2.334   6.842   5.409  1.4493  1.2403 -1.7922
   29MOL   H54020756   2.092   6.393   5.066 -0.0150  0.8196 -1.3256
   29MOL   H54120757   2.144   6.346   4.832 -0.8280 -0.1715  0.4149
   29MOL   C54220758   2.497   6.943   5.365  0.1637  0.2339 -0.9272
   29MOL   O54320759   2.617   6.953   5.374  0.1012 -0.2293 -0.2865
   29MOL   C54420760   2.404   7.035   5.285 -0.0479  0.0363 -0.4738
   29MOL   C54520761   2.466   7.131   5.203  0.7082  0.0210 -0.6167
   29MOL   C54620762   2.387   7.226   5.138  0.0219 -0.4474  0.0740
   29MOL   C54720763   2.244   7.213   5.147 -0.3569 -0.4451 -0.1855
   29MOL   C54820764   2.151   7.316   5.082  0.5105 -0.0401  0.2530
   29MOL   O54920765   2.054   7.365   5.137 -0.0343  0.5719  0.0222
   29MOL   N55020766   2.182   7.349   4.960 -0.0295  0.1215 -0.6514
   29MOL   C55120767   2.098   7.436   4.877 -0.2106 -0.0337 -0.6746
   29MOL   C55220768   1.967   7.355   4.833 -0.0179 -0.0912  0.8227
   29MOL   C55320769   1.872   7.432   4.741 -0.2915  0.3650 -0.1097
   29MOL   C55420770   1.731   7.371   4.704 -0.0973 -0.5037 -0.0650
   29MOL   C55520771   1.643   7.370   4.827 -0.1540 -0.1370 -0.6389
   29MOL   C55620772   1.582   7.235   4.860  0.0524 -0.1926  0.7334
   29MOL   N55720773   1.689   7.146   4.900 -0.1564 -0.4551  0.5022
   29MOL   C55820774   2.185   7.119   5.230  0.7856 -0.2526  0.2222
   29MOL   C55920775   2.262   7.027   5.299 -0.0639  0.1473  0.3158
   29MOL   H56020776   2.573   7.139   5.195  1.2357 -1.2245  3.6147
   29MOL   H56120777   2.433   7.299   5.074 -1.8574 -0.8890 -1.8161
   29MOL   H56220778   2.276   7.334   4.928  0.2746 -1.1652  0.7601
   29MOL   H56320779   2.071   7.528   4.928 -1.9000 -0.0352 -1.5292
   29MOL   H56420780   2.144   7.453   4.779  0.5930  1.6480 -0.0285
   29MOL   H56520781   1.910   7.331   4.922  1.3033 -0.5393  1.5722
   29MOL   H56620782   2.004   7.269   4.776 -0.8918 -0.4397  0.7767
   29MOL   H56720783   1.854   7.533   4.777  1.8813  0.4702  0.7808
   29MOL   H56820784   1.928   7.455   4.650 -1.8649 -1.4487 -1.5714
   29MOL   H56920785   1.747   7.269   4.670 -3.9454 -1.5221  0.9066
   29MOL   H57020786   1.686   7.427   4.622 -1.3066 -3.0167 -1.1570
   29MOL   H57120787   1.562   7.442   4.821 -0.6316 -0.8433 -3.1371
   29MOL   H57220788   1.700   7.401   4.915 -0.4076  2.9287 -1.5153
   29MOL   H57320789   1.500   7.250   4.929 -0.8549  1.0111 -0.5585
   29MOL   H57420790   1.533   7.190   4.774 -0.8816 -1.0701  1.7196
   29MOL   H57520791   1.747   7.097   4.833  2.4909  1.2255  1.4480
   29MOL   H57620792   2.080   7.094   5.227  0.8779 -0.5730 -0.4473
   29MOL   H57720793   2.208   6.952   5.354  0.3205  0.6772  1.4343
   29MOL   C57820794   1.716   7.120   5.030 -0.6672 -1.0182  0.4990
   29MOL   O57920795   1.655   7.186   5.115  0.6558 -1.1105  0.5386
   29MOL   C58020796   1.832   7.030   5.056  0.0729  0.2293 -0.0513
   29MOL   C58120797   1.847   6.960   5.174  0.3046  0.3433 -0.5914
   29MOL   C58220798   1.944   6.860   5.186 -0.7866 -0.0051 -0.0900
   29MOL   C58320799   2.043   6.834   5.087 -0.6146 -0.0116 -0.2358
   29MOL   C58420800   2.141   6.730   5.111 -0.1204  0.0501  0.5367
   29MOL   O58520801   2.146   6.669   5.213  0.6417  0.9404  0.1413
   29MOL   N58620802   2.229   6.710   5.017 -0.6457  0.2672 -0.9348
   29MOL   C58720803   2.340   6.617   5.031  0.1189 -0.2088 -0.8807
   29MOL   C58820804   2.450   6.684   5.094 -0.5414  0.8289 -0.3547
   29MOL   C58920805   2.556   6.576   5.119  0.0916 -0.0670  0.6556
   29MOL   C59020806   2.544   6.491   5.242 -0.1898  0.0032  1.2797
   29MOL   C59120807   2.642   6.372   5.249 -0.0631 -0.0207  0.0294
   29MOL   C59220808   2.611   6.266   5.354 -0.3140 -0.0904 -0.6624
   29MOL   N59320809   2.736   6.208   5.413 -0.0251 -0.3434  0.9673
   29MOL   C59420810   2.029   6.907   4.966  0.4818 -0.2784 -0.1146
   29MOL   C59520811   1.919   6.998   4.950  0.7999  0.5596  0.0142
   29MOL   H59620812   1.773   6.969   5.252  0.7114 -0.8593 -0.0550
   29MOL   H59720813   1.944   6.804   5.278 -1.9580 -0.6294 -0.4551
   29MOL   H59820814   2.224   6.755   4.926  1.5266  0.0392 -1.1836
   29MOL   H59920815   2.315   6.524   5.082 -0.4311  0.1731 -0.4586
   29MOL   H60020816   2.374   6.580   4.934  1.2324 -2.8377  0.4574
   29MOL   H60120817   2.429   6.741   5.185  0.6550  2.1427 -0.8892
   29MOL   H60220818   2.495   6.755   5.025  1.1282  0.3330  0.1896
   29MOL   H60320819   2.568   6.516   5.029  0.7917  1.4070 -0.2416
   29MOL   H60420820   2.649   6.633   5.113 -0.1250  0.3362  1.1276
   29MOL   H60520821   2.442   6.455   5.252  0.1877 -2.4984 -2.9838
   29MOL   H60620822   2.548   6.549   5.335  0.4742 -0.9467  1.8646
   29MOL   H60720823   2.749   6.390   5.254  0.0895  0.0706 -2.7639
   29MOL   H60820824   2.652   6.312   5.159 -2.5126  2.7467 -2.2078
   29MOL   H60920825   2.569   6.315   5.442 -2.4366 -0.0535 -1.6713
   29MOL   H61020826   2.534   6.192   5.336  0.9116 -1.4317 -0.4303
   29MOL   H61120827   2.817   6.268   5.424 -1.1181  1.3057  0.3042
   29MOL   H61220828   2.093   6.887   4.882  1.1761 -1.0282  0.5873
   29MOL   H61320829   1.902   7.043   4.853  2.4196  2.6685  0.6912
   29MOL   C61420830   2.749   6.083   5.461 -0.1978 -0.5089 -0.5001
   29MOL   O61520831   2.664   6.002   5.435  0.6720  0.4242 -0.1794
   29MOL   C61620832   2.874   6.043   5.545  0.1229  0.2725  0.0781
   29MOL   C61720833   2.940   6.142   5.616 -0.0388 -0.1489  0.8005
   29MOL   C61820834   3.052   6.110   5.699 -0.0935  0.2867  0.1253
   29MOL   C61920835   3.091   5.973   5.720  0.0378  0.0995  0.4520
   29MOL   C62020836   3.202   5.936   5.811 -0.4821 -0.4342  0.4079
   29MOL   O62120837   3.282   6.022   5.862 -0.2197  0.3352 -0.3557
   29MOL   N62220838   3.201   5.817   5.859 -0.0316  0.1849 -0.6029
   29MOL   C62320839   3.294   5.754   5.950 -0.0722 -0.4390 -0.0407
   29MOL   C62420840   3.288   5.599   5.939 -0.4650  0.1939 -0.9856
   29MOL   C62520841   3.377   5.527   6.045  0.0201 -0.5313  0.4441
   29MOL   C62620842   3.375   5.372   6.026  0.2545  0.2740 -0.2321
   29MOL   C62720843   3.483   5.305   6.117  0.2719  0.5785 -0.1727
   29MOL   C62820844   3.497   5.151   6.094 -0.2530  0.0436  0.0136
   29MOL   N62920845   3.592   5.093   6.189 -0.0556  0.5053 -0.1126
   29MOL   C63020846   3.021   5.871   5.651  0.2484  0.8167  0.6050
   29MOL   C63120847   2.914   5.907   5.565 -0.8014 -0.0969  0.6937
   29MOL   H63220848   2.895   6.241   5.615 -0.8830 -0.5329  0.4864
   29MOL   H63320849   3.083   6.199   5.752  0.5272  1.2186 -1.7456
   29MOL   H63420850   3.118   5.765   5.835 -1.5102  1.9983  0.4367
   29MOL   H63520851   3.389   5.792   5.916 -0.1164  0.5581  0.9335
   29MOL   H63620852   3.267   5.792   6.048 -1.3200  2.4950 -1.4567
   29MOL   H63720853   3.318   5.561   5.841  1.0393  1.2858 -0.9664
   29MOL   H63820854   3.181   5.582   5.952 -0.4902  0.7928 -0.3739
   29MOL   H63920855   3.479   5.560   6.025 -1.2716  2.2251 -1.9841
   29MOL   H64020856   3.354   5.549   6.149 -0.8037  2.4497 -0.3113
   29MOL   H64120857   3.377   5.338   5.922 -2.3872 -2.2988  0.4888
   29MOL   H64220858   3.281   5.330   6.061  0.1499  0.9505  0.3139
   29MOL   H64320859   3.458   5.324   6.222  1.8807 -0.2314  0.3711
   29MOL   H64420860   3.576   5.357   6.098 -1.0325  2.5697 -1.2748
   29MOL   H64520861   3.400   5.101   6.082  1.0509 -2.8103  0.9633
   29MOL   H64620862   3.538   5.119   5.998  1.4244 -0.6337  0.9311
   29MOL   H64720863   3.559   5.007   6.230  2.9607 -0.3410  0.6221
   29MOL   H64820864   3.054   5.770   5.633  0.5727  1.1939 -1.0043
   29MOL   H64920865   2.862   5.823   5.521 -3.2575  1.9824 -0.5451
   29MOL   C65020866   3.726   5.113   6.201 -0.4933 -0.3037  0.3493
   29MOL   O65120867   3.793   5.215   6.164  0.0008 -0.4192 -0.4498
   29MOL   C65220868   3.797   4.993   6.253 -0.2769 -0.4763  0.1860
   29MOL   C65320869   3.729   4.869   6.284  0.5570  0.6579 -0.3983
   29MOL   C65420870   3.810   4.759   6.331 -0.3647  0.2905  0.1843
   29MOL   C65520871   3.952   4.770   6.340 -0.1780  0.4885  0.7905
   29MOL   C65620872   4.035   4.643   6.372  0.4911 -0.9364 -0.3539
   29MOL   O65720873   4.150   4.624   6.321  0.4719  0.0491 -0.2422
   29MOL   N65820874   3.980   4.553   6.453  0.0550 -0.4102 -0.5363
   29MOL   C65920875   4.011   4.410   6.475 -0.5898  0.3054 -0.3245
   29MOL   C66020876   3.966   4.324   6.356  0.4137  0.8949  0.1312
   29MOL   C66120877   3.975   4.171   6.379 -0.1924 -0.1917  0.7305
   29MOL   C66220878   3.890   4.093   6.288  0.2298  0.5208 -0.0363
   29MOL   C66320879   3.908   3.939   6.301 -0.6764 -0.1925  0.0636
   29MOL   C66420880   3.857   3.878   6.433 -0.3101  0.0635 -0.6671
   29MOL   N66520881   3.872   3.740   6.430 -0.1716 -0.3686  0.3146
   29MOL   C66620882   4.013   4.894   6.320 -0.2390  0.1222 -0.2175
   29MOL   C66720883   3.942   5.004   6.272 -0.4751 -0.0484  0.3349
   29MOL   H66820884   3.623   4.850   6.277  0.4252  0.4842  1.8173
   29MOL   H66920885   3.759   4.666   6.351 -0.6941  0.4686  0.1753
   29MOL   H67020886   3.889   4.586   6.481  0.0986 -0.9068  0.2069
   29MOL   H67120887   4.114   4.379   6.493 -0.4658  0.7821 -0.2279
   29MOL   H67220888   3.957   4.387   6.567 -0.5013 -0.4683 -0.4613
   29MOL   H67320889   4.026   4.345   6.268  1.0410 -1.7032 -0.1087
   29MOL   H67420890   3.864   4.348   6.326  0.7885  1.3860 -0.7527
   29MOL   H67520891   4.076   4.130   6.371  0.3452  1.0216  1.0733
   29MOL   H67620892   3.943   4.160   6.483  0.1537 -1.3637  0.7158
   29MOL   H67720893   3.922   4.127   6.190  0.0130 -0.7667 -0.5502
   29MOL   H67820894   3.784   4.121   6.286  0.1777  0.4474  1.1132
   29MOL   H67920895   4.015   3.919   6.296 -0.1821  2.2879  0.0625
   29MOL   H68020896   3.863   3.895   6.213  0.1903  0.7367 -0.8564
   29MOL   H68120897   3.921   3.925   6.508 -0.1924 -0.8889 -0.1641
   29MOL   H68220898   3.756   3.905   6.463 -0.7262  0.5396 -2.4419
   29MOL   H68320899   3.831   3.692   6.351 -1.8933  1.0584  0.3198
   29MOL   H68420900   4.118   4.911   6.340  0.1701 -2.2853 -0.1740
   29MOL   H68520901   3.994   5.097   6.259 -0.4827  0.0257  0.8153
   29MOL   C68620902   3.932   3.665   6.523  0.2930 -0.2117 -0.7287
   29MOL   O68720903   3.951   3.695   6.641 -0.5822  0.1977 -0.2394
   29MOL   C68820904   3.976   3.524   6.479 -0.7434 -0.1436  0.3805
   29MOL   C68920905   4.010   3.508   6.346  0.0229  0.1071  0.5472
   29MOL   C69020906   4.054   3.383   6.287  0.4900  0.4501  0.5830
   29MOL   C69120907   4.062   3.272   6.377 -0.3133 -0.1717 -0.2515
   29MOL   C69220908   4.117   3.139   6.334  0.3974 -0.0474  0.2930
   29MOL   O69320909   4.107   3.043   6.413 -0.1732  0.2927  0.1071
   29MOL   N69420910   4.173   3.135   6.217 -0.4555  0.8281  0.3873
   29MOL   C69520911   4.240   3.015   6.156  0.2566 -0.0733  0.5566
   29MOL   C69620912   4.379   3.036   6.101 -0.1359  0.7846  0.4357
   29MOL   C69720913   4.486   3.042   6.207 -0.1197 -0.1686  0.2657
   29MOL   C69820914   4.637   3.068   6.179 -0.2187 -0.1134  0.7148
   29MOL   C69920915   4.712   2.949   6.114 -0.1029  0.2990  0.0131
   29MOL   C70020916   4.702   2.952   5.957  0.6661 -0.0646 -0.0670
   29MOL   N70120917   4.741   2.824   5.908 -0.3165 -0.8585  0.1475
   29MOL   C70220918   4.018   3.288   6.511 -0.4754  0.1530  0.2082
   29MOL   C70320919   3.978   3.412   6.561  0.2229  0.0950 -0.1593
   29MOL   H70420920   4.018   3.589   6.275  0.9746 -1.9920 -1.7972
   29MOL   H70520921   4.080   3.360   6.185 -0.3847 -1.4865  0.7778
   29MOL   H70620922   4.174   3.219   6.160 -2.8664 -0.0681 -1.0142
   29MOL   H70720923   4.254   2.947   6.240 -0.3466  1.3386  1.8281
   29MOL   H70820924   4.184   2.962   6.079  0.6110  0.7843 -0.2959
   29MOL   H70920925   4.375   3.114   6.025 -0.2713 -0.2706 -0.6615
   29MOL   H71020926   4.404   2.947   6.043  1.0944  0.1783  1.9003
   29MOL   H71120927   4.442   3.092   6.293  0.0327 -2.2851  1.6181
   29MOL   H71220928   4.483   2.938   6.239 -0.8759  0.2743  1.6995
   29MOL   H71320929   4.693   3.088   6.270 -0.7833 -1.8111  1.4608
   29MOL   H71420930   4.647   3.158   6.118 -1.6480 -1.1758 -1.1433
   29MOL   H71520931   4.668   2.854   6.144 -0.8622 -0.1052 -2.2770
   29MOL   H71620932   4.820   2.942   6.128 -0.1546 -0.6357  0.0058
   29MOL   H71720933   4.599   2.976   5.930  0.4108 -1.3714 -0.2598
   29MOL   H71820934   4.772   3.026   5.917  0.6136 -0.6574 -1.2565
   29MOL   H71920935   4.661   2.764   5.923 -0.8724  0.1691  1.4113
   29MOL   H72020936   4.021   3.204   6.578  2.3365  0.4509  0.4846
   29MOL   H72120937   3.950   3.420   6.664  1.9889  1.2203  0.2562
   29MOL   H72220938   4.751   2.821   5.808 -1.0354  0.8489  0.0141
   30MOL     C120939   6.031   0.225   2.303  0.1202  0.3523 -0.0143
   30MOL     O220940   6.002   0.174   2.195  0.8411  0.1825 -0.9945
   30MOL     C320941   6.168   0.246   2.355  0.5040  0.1578 -0.0982
   30MOL     C420942   6.276   0.209   2.280  0.6988 -1.1524 -0.0588
   30MOL     C520943   6.402   0.241   2.336  0.3321  0.0637 -0.1874
   30MOL     C620944   6.423   0.299   2.466  1.1113  0.4891 -0.6130
   30MOL     C720945   6.561   0.327   2.520 -0.7597 -0.5258  0.4591
   30MOL     O820946   6.579   0.393   2.622 -0.3206  0.2893 -0.8938
   30MOL     N920947   6.662   0.267   2.456  0.3130 -0.2073 -0.6035
   30MOL    C1020948   6.802   0.283   2.500  0.0901  0.2864  0.5106
   30MOL    C1120949   6.890   0.362   2.388 -0.1504  0.4705  0.6660
   30MOL    C1220950   6.905   0.280   2.248 -0.2620 -0.1900  0.1904
   30MOL    C1320951   6.790   0.300   2.145  0.5629 -0.0383  0.2134
   30MOL    C1420952   6.859   0.266   2.005 -0.8458 -0.6122 -1.2753
   30MOL    C1520953   6.769   0.297   1.887 -0.1563 -0.0321  0.7225
   30MOL    N1620954   6.651   0.211   1.883  0.3736  0.2018  0.5767
   30MOL    C1720955   6.309   0.317   2.537 -0.6327 -0.1531  0.5692
   30MOL    C1820956   6.180   0.290   2.488  0.2022  0.4811  0.4117
   30MOL    H1920957   6.258   0.155   2.188  1.5832  0.5886 -1.2672
   30MOL    H2020958   6.487   0.203   2.282  0.1413 -1.7416  0.7587
   30MOL    H2120959   6.645   0.195   2.388 -3.5633 -1.3708  1.4485
   30MOL    H2220960   6.817   0.336   2.595 -1.2685 -0.0125  0.9038
   30MOL    H2320961   6.843   0.184   2.516 -0.9249 -0.0577  1.0400
   30MOL    H2420962   6.990   0.384   2.424  0.3754  0.2052 -0.6111
   30MOL    H2520963   6.835   0.455   2.371 -3.0634 -1.7511 -2.7131
   30MOL    H2620964   6.995   0.324   2.207  0.3193 -1.4973  0.0356
   30MOL    H2720965   6.919   0.172   2.254  1.0359  0.0510  1.8275
   30MOL    H2820966   6.749   0.401   2.144  1.5221  0.3571 -0.6209
   30MOL    H2920967   6.704   0.236   2.165 -1.7390  2.4046 -1.4499
   30MOL    H3020968   6.913   0.172   1.993 -1.0663 -0.8497 -0.4087
   30MOL    H3120969   6.947   0.329   1.989 -0.4614 -1.4955 -2.7208
   30MOL    H3220970   6.738   0.401   1.888 -2.9143 -0.8063 -0.6280
   30MOL    H3320971   6.838   0.289   1.803  0.1251  0.8504  0.8665
   30MOL    H3420972   6.675   0.113   1.885  0.8181  0.2741 -0.9230
   30MOL    H3520973   6.319   0.366   2.633 -0.6002 -1.1367  1.0771
   30MOL    H3620974   6.089   0.308   2.543 -0.0008 -0.3360  0.3431
   30MOL    H3720975   5.952   0.255   2.372  0.9181 -1.4270  1.7500
   30MOL    C3820976   6.530   0.246   1.914 -1.0041  0.0236  0.4071
   30MOL    O3920977   6.487   0.363   1.915 -0.1506  0.3664  0.0538
   30MOL    C4020978   6.446   0.123   1.945 -0.0120 -0.5739  0.0712
   30MOL    C4120979   6.496   0.014   2.018 -0.4743  0.6109 -0.0473
   30MOL    C4220980   6.405   7.808   2.071  0.2931  0.3101 -0.1035
   30MOL    C4320981   6.265   7.815   2.045 -0.1591 -0.4784 -0.0495
   30MOL    C4420982   6.177   7.711   2.105 -0.0666  0.7098  0.0304
   30MOL    O4520983   6.217   7.596   2.115 -0.4416 -0.3303  0.0267
   30MOL    N4620984   6.062   7.754   2.154  0.3271  0.4279 -0.5685
   30MOL    C4720985   5.962   7.682   2.243  0.2637 -0.1293  0.2051
   30MOL    C4820986   6.027   7.636   2.377 -0.1535 -0.4473  0.6696
   30MOL    C4920987   5.929   7.581   2.485 -0.6494  0.2202  0.0067
   30MOL    C5020988   6.002   7.517   2.603  0.0287 -0.3358 -0.5939
   30MOL    C5120989   6.010   7.365   2.598 -0.4073  0.1197 -0.6943
   30MOL    C5220990   6.130   7.308   2.513  0.6202  1.1346 -0.8772
   30MOL    N5320991   6.129   7.162   2.538 -0.4524  0.4191  0.6798
   30MOL    C5420992   6.220   0.041   1.968 -0.6592 -0.5862 -0.1839
   30MOL    C5520993   6.309   0.134   1.913 -0.1814 -0.0452 -0.1619
   30MOL    H5620994   6.601   0.008   2.045 -0.2493  3.5468 -0.1330
   30MOL    H5720995   6.445   7.722   2.122  1.4612  1.0957  0.3178
   30MOL    H5820996   6.047   7.853   2.140 -0.9932  0.2287 -0.5932
   30MOL    H5920997   5.875   7.743   2.264 -0.0881 -0.1552 -1.1210
   30MOL    H6020998   5.932   7.591   2.192  2.3506 -0.6418 -0.1924
   30MOL    H6120999   6.075   7.725   2.418 -1.4763  1.3907 -1.6725
   30MOL    H6221000   6.103   7.558   2.365 -1.9587 -1.9271 -1.5601
   30MOL    H6321001   5.864   7.661   2.519  1.1588  2.3802 -1.3948
   30MOL    H6421002   5.859   7.510   2.441  0.2024  0.2025 -1.3595
   30MOL    H6521003   5.925   7.536   2.678 -0.6853 -0.8603 -1.1811
   30MOL    H6621004   6.084   7.584   2.627 -0.0941 -0.9044  1.4459
   30MOL    H6721005   5.922   7.317   2.556 -1.1156  1.1772 -0.4310
   30MOL    H6821006   6.025   7.322   2.698 -0.0466  1.8923  0.0368
   30MOL    H6921007   6.125   7.318   2.404  1.1734  1.4176 -0.8820
   30MOL    H7021008   6.227   7.347   2.546  0.6720 -0.4896  0.9977
   30MOL    H7121009   6.157   7.135   2.631 -2.1539  1.3649  1.4926
   30MOL    H7221010   6.112   0.048   1.958 -0.5801 -0.9158 -1.3371
   30MOL    H7321011   6.270   0.216   1.855  0.7387 -1.4226 -2.8352
   30MOL    C7421012   6.119   7.061   2.449  0.3212 -0.1042  0.2578
   30MOL    O7521013   6.077   7.072   2.335  0.2179  0.1222  0.2334
   30MOL    C7621014   6.153   6.927   2.502 -0.2536  0.2064 -0.5644
   30MOL    C7721015   6.237   6.896   2.611  0.3710 -0.4774  0.3093
   30MOL    C7821016   6.256   6.758   2.645  0.2567 -0.4003 -0.2209
   30MOL    C7921017   6.217   6.651   2.562 -0.7818  0.2988 -0.1954
   30MOL    C8021018   6.258   6.508   2.599 -0.1025 -0.1286  0.3336
   30MOL    O8121019   6.315   6.487   2.709 -0.1540 -0.2904 -0.0341
   30MOL    N8221020   6.243   6.410   2.508  0.1437 -0.1554  0.5581
   30MOL    C8321021   6.287   6.267   2.522 -0.0029 -0.5719 -0.7409
   30MOL    C8421022   6.202   6.204   2.634 -0.0894  0.7122 -0.4655
   30MOL    C8521023   6.238   6.061   2.667 -0.3849 -0.6224  0.4948
   30MOL    C8621024   6.121   5.975   2.709  0.5320  0.2311 -0.8484
   30MOL    C8721025   6.052   5.917   2.589 -0.2587  0.2961 -0.3429
   30MOL    C8821026   5.932   5.828   2.636  0.7969  0.2574 -1.0608
   30MOL    N8921027   5.845   5.803   2.530  0.1942  0.0680  0.6839
   30MOL    C9021028   6.144   6.685   2.451  0.5220  0.1788  0.5344
   30MOL    C9121029   6.109   6.816   2.424  0.1847 -1.0986  0.0892
   30MOL    H9221030   6.277   6.975   2.673 -2.0114  1.0521 -0.0565
   30MOL    H9321031   6.320   6.729   2.727  1.6479 -1.1055 -1.5461
   30MOL    H9421032   6.192   6.423   2.423 -1.0048  0.2559  1.2946
   30MOL    H9521033   6.271   6.220   2.425 -0.3536 -1.0268 -0.4642
   30MOL    H9621034   6.393   6.276   2.545 -0.6592 -0.4290  2.5556
   30MOL    H9721035   6.095   6.216   2.613 -0.2000  0.2845 -0.1518
   30MOL    H9821036   6.210   6.256   2.729  1.3924 -0.6459  0.1645
   30MOL    H9921037   6.294   6.012   2.586 -0.4362 -2.9641  1.8286
   30MOL   H10021038   6.310   6.071   2.748 -0.5263 -0.8230  0.6444
   30MOL   H10121039   6.062   6.038   2.774 -0.7815 -2.0954  0.2792
   30MOL   H10221040   6.150   5.897   2.779  0.7771  0.5247 -0.6216
   30MOL   H10321041   6.124   5.849   2.544  1.3527  0.1715  2.3154
   30MOL   H10421042   6.020   5.989   2.514 -1.0965  0.4474  0.1591
   30MOL   H10521043   5.960   5.735   2.686 -2.4681  1.9203  4.2779
   30MOL   H10621044   5.880   5.879   2.718 -1.0812  0.7824 -2.5435
   30MOL   H10721045   5.853   5.712   2.487 -4.5113 -1.2685  2.2393
   30MOL   H10821046   6.112   6.616   2.374  2.2533  0.1346 -0.1601
   30MOL   H10921047   6.058   6.847   2.334  0.1631  0.1510  0.5268
   30MOL   C11021048   5.767   5.887   2.462  0.3493 -0.2205 -0.3378
   30MOL   O11121049   5.733   6.000   2.509 -0.1052 -0.0473 -0.3253
   30MOL   C11221050   5.710   5.847   2.329 -0.6042 -0.0107  0.1594
   30MOL   C11321051   5.677   5.951   2.233 -0.0474 -0.0915 -0.0350
   30MOL   C11421052   5.625   5.929   2.104  0.3247 -0.1828 -0.1738
   30MOL   C11521053   5.617   5.792   2.057 -0.0918  0.2383 -0.5106
   30MOL   C11621054   5.561   5.758   1.923  0.0102  0.3323 -0.2272
   30MOL   O11721055   5.483   5.833   1.868 -0.0040  0.4251  0.0088
   30MOL   N11821056   5.600   5.637   1.865  0.8212  0.0588 -0.2400
   30MOL   C11921057   5.546   5.571   1.750 -0.3278  0.4951  0.0337
   30MOL   C12021058   5.446   5.460   1.796  0.0224  0.1872 -0.4377
   30MOL   C12121059   5.388   5.389   1.675 -0.7332 -0.4373 -0.3105
   30MOL   C12221060   5.323   5.256   1.703 -0.6029 -0.2077 -0.5319
   30MOL   C12321061   5.266   5.192   1.582 -0.3666 -0.0587 -0.2429
   30MOL   C12421062   5.228   5.042   1.581  0.2382  0.3899  0.7980
   30MOL   N12521063   5.321   4.967   1.660 -0.7411  0.4248  0.5531
   30MOL   C12621064   5.659   5.688   2.144  0.5904  0.0759  0.1457
   30MOL   C12721065   5.694   5.712   2.280 -0.0624 -0.4869 -0.1130
   30MOL   H12821066   5.698   6.052   2.264  0.3128 -0.4374  0.8501
   30MOL   H12921067   5.598   6.015   2.045  1.5457  0.7542  0.6108
   30MOL   H13021068   5.664   5.583   1.921 -0.8621 -1.9502 -0.1596
   30MOL   H13121069   5.502   5.645   1.683  0.2363  2.0317  1.2979
   30MOL   H13221070   5.619   5.527   1.683  0.8879 -1.4619  2.5494
   30MOL   H13321071   5.367   5.514   1.848  0.5822  0.1770  0.4272
   30MOL   H13421072   5.492   5.390   1.865 -1.0008 -0.3324 -0.2669
   30MOL   H13521073   5.313   5.450   1.624 -1.8423 -0.3529  1.3672
   30MOL   H13621074   5.474   5.381   1.609 -0.7816 -2.0902 -0.2024
   30MOL   H13721075   5.243   5.260   1.778  1.8559  0.1605  2.1936
   30MOL   H13821076   5.391   5.185   1.750 -0.2365  1.2383  1.2105
   30MOL   H13921077   5.341   5.197   1.502 -0.1532 -0.3317 -0.0602
   30MOL   H14021078   5.189   5.258   1.541 -0.3711 -0.1260 -0.3424
   30MOL   H14121079   5.134   5.031   1.636 -1.6696 -2.6833 -2.8708
   30MOL   H14221080   5.220   4.998   1.482  0.0082 -1.5390  1.6599
   30MOL   H14321081   5.335   5.006   1.753 -0.6162  3.8362 -0.8099
   30MOL   H14421082   5.656   5.585   2.112 -0.9259 -0.4813  2.0159
   30MOL   H14521083   5.708   5.641   2.360 -0.3785 -0.6513 -0.2049
   30MOL   C14621084   5.387   4.855   1.636  0.1267  0.2379 -0.6210
   30MOL   O14721085   5.380   4.785   1.536 -0.3122  0.0472 -0.1133
   30MOL   C14821086   5.476   4.812   1.752  1.0687  0.0578  0.0298
   30MOL   C14921087   5.542   4.896   1.846  0.3202  0.3426 -0.4191
   30MOL   C15021088   5.614   4.854   1.958  0.1687  0.3141 -0.1179
   30MOL   C15121089   5.646   4.716   1.969 -0.1711 -0.2203  0.4820
   30MOL   C15221090   5.726   4.663   2.084 -0.3606  0.3174 -0.4327
   30MOL   O15321091   5.701   4.556   2.137  0.1269 -0.4341  0.0701
   30MOL   N15421092   5.831   4.734   2.117  0.7044 -0.0380 -0.2683
   30MOL   C15521093   5.935   4.690   2.208 -0.5517  0.2539 -0.4231
   30MOL   C15621094   5.909   4.727   2.359  0.4635  0.3994  0.1071
   30MOL   C15721095   6.027   4.683   2.451 -0.3677  0.0143  0.8154
   30MOL   C15821096   6.003   4.713   2.603  0.1896  0.0514  0.1700
   30MOL   C15921097   6.100   4.643   2.702  0.3188 -0.1858 -0.4800
   30MOL   C16021098   6.097   4.729   2.829 -0.8286  0.4366  0.2426
   30MOL   N16121099   6.204   4.679   2.921  0.0900 -0.0647  0.1020
   30MOL   C16221100   5.586   4.623   1.878  0.4104  0.0659 -0.2996
   30MOL   C16321101   5.503   4.675   1.768 -0.2464 -0.6311  0.6776
   30MOL   H16421102   5.513   5.000   1.852 -2.8172 -0.3765 -1.6764
   30MOL   H16521103   5.648   4.929   2.028 -2.4952  1.5905 -0.1406
   30MOL   H16621104   5.852   4.824   2.077  0.0309  0.8716  1.3769
   30MOL   H16721105   5.943   4.582   2.200 -1.6665  0.0272  1.5051
   30MOL   H16821106   6.028   4.738   2.176 -0.3096 -0.6375 -1.0963
   30MOL   H16921107   5.820   4.674   2.393 -0.0116  1.1210  0.0063
   30MOL   H17021108   5.881   4.833   2.362 -0.2624  0.2239 -0.3630
   30MOL   H17121109   6.028   4.574   2.446  0.3227 -0.0493  2.1839
   30MOL   H17221110   6.125   4.722   2.424  0.3508 -1.0857  1.7790
   30MOL   H17321111   5.900   4.694   2.635  0.1293 -2.5550 -1.4937
   30MOL   H17421112   6.026   4.820   2.609  1.5653 -0.3777  3.6287
   30MOL   H17521113   6.199   4.631   2.657  0.9251  1.6974  0.2864
   30MOL   H17621114   6.064   4.545   2.734 -1.6673  0.4398 -0.7300
   30MOL   H17721115   6.113   4.834   2.805 -3.4106  1.0773  1.2204
   30MOL   H17821116   6.007   4.712   2.888 -0.2020  0.1899  1.1378
   30MOL   H17921117   6.169   4.634   3.004  0.0886 -2.8709 -1.3760
   30MOL   H18021118   5.604   4.516   1.882  0.7284  0.1580  1.0707
   30MOL   H18121119   5.463   4.601   1.700  0.0333 -0.6891  0.5775
   30MOL   C18221120   6.334   4.708   2.912 -0.0814 -0.6064 -0.0920
   30MOL   O18321121   6.390   4.790   2.844  0.0608 -0.1374  0.0038
   30MOL   C18421122   6.420   4.636   3.010  0.1514  0.2244 -0.2958
   30MOL   C18521123   6.362   4.579   3.130 -0.2766 -0.1775 -0.3095
   30MOL   C18621124   6.439   4.503   3.215  0.2809  0.5396 -0.3083
   30MOL   C18721125   6.581   4.481   3.189 -0.3024  0.1791 -0.1078
   30MOL   C18821126   6.670   4.412   3.293 -0.6348 -1.2907 -0.6577
   30MOL   O18921127   6.791   4.409   3.274  0.3261  0.6825  0.8735
   30MOL   N19021128   6.614   4.362   3.407  0.6583  0.3845 -0.0274
   30MOL   C19121129   6.686   4.290   3.510 -0.0184  0.6197 -0.2213
   30MOL   C19221130   6.646   4.139   3.507 -0.4352 -0.2397  1.5673
   30MOL   C19321131   6.729   4.051   3.606  0.6641  0.9713  0.5153
   30MOL   C19421132   6.716   3.907   3.589 -0.3373  0.6549  0.2525
   30MOL   C19521133   6.822   3.837   3.669  0.2808  1.1345  0.5143
   30MOL   C19621134   6.792   3.687   3.661  0.7950 -0.1898 -0.1126
   30MOL   N19721135   6.869   3.610   3.756 -0.3376 -0.8919  0.1693
   30MOL   C19821136   6.634   4.531   3.064 -0.0603  0.0712  0.1635
   30MOL   C19921137   6.555   4.606   2.977  0.2074  0.2176 -0.8338
   30MOL   H20021138   6.258   4.589   3.157 -0.3438 -1.0863 -0.2167
   30MOL   H20121139   6.398   4.456   3.303  0.0269 -1.4349 -1.4461
   30MOL   H20221140   6.514   4.363   3.422  0.8057  1.1598  0.9592
   30MOL   H20321141   6.795   4.301   3.506  0.2766 -1.1736  1.7290
   30MOL   H20421142   6.659   4.331   3.607 -1.4819 -1.3563  0.2477
   30MOL   H20521143   6.656   4.104   3.404 -0.6883 -0.1633  1.5165
   30MOL   H20621144   6.540   4.133   3.532 -0.6434 -2.4727  0.2866
   30MOL   H20721145   6.832   4.087   3.600  1.3691 -1.1891 -0.8503
   30MOL   H20821146   6.691   4.086   3.701 -0.5882 -2.9634  1.5206
   30MOL   H20921147   6.726   3.885   3.483  0.7956  1.5006  0.1726
   30MOL   H21021148   6.615   3.872   3.611  0.3918 -1.2616  0.6628
   30MOL   H21121149   6.806   3.869   3.772  0.2979  0.3987  0.7465
   30MOL   H21221150   6.923   3.868   3.645  0.5423  1.5138  2.0447
   30MOL   H21321151   6.687   3.660   3.661  0.1290  2.2264  1.8025
   30MOL   H21421152   6.835   3.644   3.571  1.5453 -0.7263  0.4863
   30MOL   H21521153   6.964   3.581   3.735 -0.6781 -0.7049 -1.7598
   30MOL   H21621154   6.737   4.510   3.041 -0.7449 -0.5610 -2.4966
   30MOL   H21721155   6.609   4.640   2.890  0.5690 -1.1715 -1.1624
   30MOL   C21821156   6.818   3.545   3.862 -0.6059 -0.9367  0.2183
   30MOL   O21921157   6.705   3.574   3.904  0.3699 -0.0039  0.5152
   30MOL   C22021158   6.912   3.440   3.926 -0.3673 -0.3505  1.2212
   30MOL   C22121159   6.864   3.354   4.025  0.5410 -0.1346 -0.8086
   30MOL   C22221160   6.946   3.269   4.104  0.8452 -1.0860 -0.3654
   30MOL   C22321161   7.083   3.280   4.082  0.4002 -0.4765 -0.9528
   30MOL   C22421162   7.179   3.202   4.166  0.1116 -0.1421 -0.7626
   30MOL   O22521163   7.284   3.179   4.118 -0.4720 -0.0444 -0.0945
   30MOL   N22621164   7.140   3.162   4.289  0.0929 -0.1316  0.3122
   30MOL   C22721165   7.224   3.090   4.386 -0.2904 -0.2843  0.6710
   30MOL   C22821166   7.233   3.163   4.526  0.0156 -0.0594  0.4184
   30MOL   C22921167   7.323   3.086   4.626 -0.0061  0.4334  0.4263
   30MOL   C23021168   7.466   3.100   4.590 -0.5356  0.5113  0.0445
   30MOL   C23121169   7.564   3.065   4.702 -0.2500  0.1709 -0.4813
   30MOL   C23221170   7.550   2.921   4.758 -0.9971 -0.1765 -0.4741
   30MOL   N23321171   7.644   2.904   4.864 -0.3013 -0.7290 -0.0963
   30MOL   C23421172   7.130   3.353   3.971 -0.4412  0.6591  0.7710
   30MOL   C23521173   7.046   3.428   3.892 -0.4613 -0.5737 -0.7254
   30MOL   H23621174   6.758   3.359   4.045  0.5226  0.6639 -1.0996
   30MOL   H23721175   6.905   3.211   4.185 -0.1912 -0.0117 -0.1055
   30MOL   H23821176   7.051   3.195   4.322 -0.1268  0.4039 -0.7821
   30MOL   H23921177   7.182   2.990   4.401  0.9106 -0.8437  0.3874
   30MOL   H24021178   7.319   3.064   4.339 -0.4712 -4.5027  2.3681
   30MOL   H24121179   7.130   3.162   4.563 -0.3323 -1.7323 -0.5737
   30MOL   H24221180   7.263   3.267   4.518 -4.0546  1.0874 -0.8601
   30MOL   H24321181   7.298   3.124   4.725  0.6048 -1.3309  1.2759
   30MOL   H24421182   7.305   2.979   4.641  3.0437 -0.2042 -0.1734
   30MOL   H24521183   7.490   3.204   4.571 -0.7293  0.8107  1.4165
   30MOL   H24621184   7.491   3.039   4.503  1.2890 -1.0830  1.6165
   30MOL   H24721185   7.547   3.133   4.785  2.5225  0.1314  0.1867
   30MOL   H24821186   7.662   3.091   4.660 -0.0425 -0.2515 -0.2637
   30MOL   H24921187   7.450   2.893   4.792 -0.6194  0.4169  1.1393
   30MOL   H25021188   7.559   2.845   4.681  1.0654 -2.1317  1.6425
   30MOL   H25121189   7.673   2.988   4.911 -0.9508 -0.5057 -0.0937
   30MOL   H25221190   7.235   3.356   3.944 -1.0092  1.5066 -1.4296
   30MOL   H25321191   7.088   3.482   3.808  0.0790  0.9752  0.5228
   30MOL   C25421192   7.718   2.801   4.902 -0.6363 -0.2181 -0.0597
   30MOL   O25521193   7.704   2.690   4.848 -0.2594  0.2692 -0.3376
   30MOL   C25621194   7.818   2.821   5.008 -0.3430 -0.1146 -0.1982
   30MOL   C25721195   0.002   2.942   5.021 -0.2324  0.1852  0.1042
   30MOL   C25821196   0.094   2.962   5.125  0.0099 -0.3703 -0.1418
   30MOL   C25921197   0.123   2.857   5.212 -0.2842  0.4416 -0.0250
   30MOL   C26021198   0.228   2.863   5.319 -0.1769 -0.0384 -0.0452
   30MOL   O26121199   0.208   2.828   5.437  0.3313  0.1037 -0.3205
   30MOL   N26221200   0.346   2.898   5.266 -0.2719  0.5873  0.4199
   30MOL   C26321201   0.471   2.902   5.341 -0.0841  0.9582 -0.0470
   30MOL   C26421202   0.551   2.763   5.353  0.3574  0.4738  0.0411
   30MOL   C26521203   0.690   2.793   5.410  0.3233  0.1563 -0.0643
   30MOL   C26621204   0.780   2.666   5.412 -0.7994  0.5290  0.7323
   30MOL   C26721205   0.925   2.696   5.464 -0.0306 -0.2628  0.2748
   30MOL   C26821206   0.993   2.565   5.496 -0.1870  0.0767  0.4253
   30MOL   N26921207   1.122   2.576   5.560  0.1193 -0.2826 -0.0724
   30MOL   C27021208   0.049   2.739   5.201  0.7210  0.0330  0.8569
   30MOL   C27121209   7.840   2.723   5.104 -0.3141  0.2109  0.7632
   30MOL   H27221210   7.863   3.015   4.946  4.3088  0.9235 -0.8578
   30MOL   H27321211   0.134   3.061   5.135  0.5463 -0.5733 -0.2975
   30MOL   H27421212   0.354   2.882   5.166  0.5970 -0.2887  0.6158
   30MOL   H27521213   0.544   2.980   5.317  0.8428  0.0973 -0.0657
   30MOL   H27621214   0.445   2.931   5.442  1.8782  1.2525  0.3977
   30MOL   H27721215   0.553   2.716   5.254 -1.0026  1.3336 -0.4172
   30MOL   H27821216   0.497   2.696   5.420  0.2112 -0.4757 -0.9958
   30MOL   H27921217   0.739   2.855   5.335  1.8182  0.4075  1.0952
   30MOL   H28021218   0.685   2.864   5.492 -1.8939  1.5232 -1.3512
   30MOL   H28121219   0.784   2.626   5.310 -0.5819 -1.4383  1.5007
   30MOL   H28221220   0.735   2.585   5.468 -0.4012 -1.9611 -2.3812
   30MOL   H28321221   0.936   2.765   5.546  2.8352 -0.2019 -0.1336
   30MOL   H28421222   0.979   2.748   5.385  1.4692 -1.6914  0.3377
   30MOL   H28521223   0.938   2.515   5.575  1.2440 -3.1421 -0.5302
   30MOL   H28621224   0.993   2.493   5.414 -1.7062 -1.5090  1.7907
   30MOL   H28721225   1.116   2.614   5.653 -2.3947 -1.0915  0.1159
   30MOL   H28821226   0.075   2.664   5.274 -0.9871 -0.9155  0.5149
   30MOL   H28921227   7.790   2.627   5.097  0.8181 -0.1823 -3.3986
   30MOL   C29021228   1.239   2.535   5.506 -0.3240 -0.5263 -0.0754
   30MOL   O29121229   1.243   2.472   5.399  0.6698 -0.0975  0.0239
   30MOL   C29221230   1.367   2.574   5.575  0.1266 -0.0803 -0.4965
   30MOL   C29321231   1.480   2.484   5.558 -0.3256  1.0224  0.3961
   30MOL   C29421232   1.605   2.513   5.614 -0.1323  0.2660 -0.0514
   30MOL   C29521233   1.612   2.618   5.705  0.3867  0.1724  0.0571
   30MOL   C29621234   1.736   2.644   5.790 -0.3600 -0.1906 -0.0874
   30MOL   O29721235   1.761   2.754   5.829 -0.1857  0.0760 -0.6612
   30MOL   N29821236   1.824   2.545   5.800  0.2850 -0.9013  0.5250
   30MOL   C29921237   1.936   2.544   5.884  0.5651 -0.0264 -0.2072
   30MOL   C30021238   2.072   2.524   5.823 -0.0965 -0.0364  0.2908
   30MOL   C30121239   2.135   2.658   5.767 -0.6249  0.0380  0.0901
   30MOL   C30221240   2.277   2.644   5.715 -0.3099 -0.4540  0.3672
   30MOL   C30321241   2.327   2.793   5.721 -0.4302 -0.0016 -0.1655
   30MOL   C30421242   2.455   2.824   5.815  0.9922 -0.4993 -0.1235
   30MOL   N30521243   2.497   2.957   5.793  0.4172 -0.5286 -0.3331
   30MOL   C30621244   1.502   2.704   5.725 -0.8273  1.0305 -0.2195
   30MOL   C30721245   1.379   2.684   5.664 -0.6114  0.2973  0.3630
   30MOL   H30821246   1.478   2.397   5.494 -3.1075  0.7268  0.7994
   30MOL   H30921247   1.695   2.457   5.592  0.6637  1.1430  0.9433
   30MOL   H31021248   1.794   2.454   5.767 -1.2217 -0.4167  0.5433
   30MOL   H31121249   1.941   2.630   5.951 -1.3153 -0.3921  0.4581
   30MOL   H31221250   1.925   2.461   5.953 -2.6553 -0.5832 -1.3042
   30MOL   H31321251   2.080   2.445   5.748  0.3130 -0.5733  0.8913
   30MOL   H31421252   2.143   2.495   5.901  0.4155 -0.6588 -0.3917
   30MOL   H31521253   2.068   2.690   5.687 -1.0818  1.1129  0.8980
   30MOL   H31621254   2.132   2.736   5.843 -1.9002  0.9759 -0.9033
   30MOL   H31721255   2.273   2.612   5.610 -1.7890  1.0597 -0.0576
   30MOL   H31821256   2.340   2.581   5.777 -2.3164 -0.8586  2.0714
   30MOL   H31921257   2.247   2.863   5.745  0.3502  0.5273  0.9437
   30MOL   H32021258   2.348   2.820   5.618 -2.5054 -2.4317 -1.3025
   30MOL   H32121259   2.431   2.806   5.920  1.0794 -0.4349 -0.0916
   30MOL   H32221260   2.538   2.761   5.782  0.7502 -1.6355  1.4057
   30MOL   H32321261   2.467   3.028   5.857  1.7532  1.4315 -1.8125
   30MOL   H32421262   1.516   2.792   5.785 -1.7856  0.6353  0.5952
   30MOL   H32521263   1.299   2.755   5.675 -0.5779  0.3472  0.2763
   30MOL   C32621264   2.581   2.992   5.692  0.3362 -0.0928 -0.2968
   30MOL   O32721265   2.626   2.911   5.606 -0.0959  0.0572 -0.1346
   30MOL   C32821266   2.598   3.139   5.670  0.3099 -0.1802  0.1731
   30MOL   C32921267   2.596   3.235   5.774 -0.1988  0.1832 -0.5517
   30MOL   C33021268   2.595   3.373   5.750 -0.2152  0.5104  0.3501
   30MOL   C33121269   2.611   3.414   5.618 -0.1434  0.9351 -0.3030
   30MOL   C33221270   2.635   3.564   5.595 -0.1230  0.4292 -0.2323
   30MOL   O33321271   2.638   3.647   5.683  0.4809  0.7080 -0.3214
   30MOL   N33421272   2.653   3.599   5.464 -0.1985  0.0223  0.2487
   30MOL   C33521273   2.663   3.738   5.419 -0.2890 -0.3975  0.0905
   30MOL   C33621274   2.585   3.755   5.290 -0.3297 -0.2771  0.4296
   30MOL   C33721275   2.440   3.744   5.314  0.3951 -0.3326 -0.4008
   30MOL   C33821276   2.358   3.752   5.180  0.1191 -0.2932 -0.3420
   30MOL   C33921277   2.395   3.862   5.081 -0.8962 -0.5983 -0.2121
   30MOL   C34021278   2.325   3.840   4.947 -0.5696 -0.2550 -0.6401
   30MOL   N34121279   2.317   3.953   4.852 -0.4992  0.1512  0.4738
   30MOL   C34221280   2.626   3.320   5.511  0.7032 -0.4623  0.0300
   30MOL   C34321281   2.613   3.184   5.535  0.1009 -0.2654 -0.5510
   30MOL   H34421282   2.564   3.203   5.872  0.7533  1.5477  0.2169
   30MOL   H34521283   2.588   3.447   5.828  0.1624  1.2483 -0.3118
   30MOL   H34621284   2.657   3.527   5.393  1.0240  0.6182 -0.3097
   30MOL   H34721285   2.614   3.804   5.492 -0.1415  1.0649 -1.1106
   30MOL   H34821286   2.765   3.767   5.394 -0.1412 -1.7595 -0.9040
   30MOL   H34921287   2.628   3.691   5.213  0.1299  1.2444 -0.5985
   30MOL   H35021288   2.600   3.851   5.240  1.7490 -1.5681 -1.5114
   30MOL   H35121289   2.413   3.650   5.362  0.5982 -0.1526  0.0686
   30MOL   H35221290   2.420   3.834   5.372  0.9374  0.4326 -1.3753
   30MOL   H35321291   2.250   3.754   5.190  0.2582  0.9254  1.1285
   30MOL   H35421292   2.377   3.661   5.123 -1.3803 -1.7096  1.3886
   30MOL   H35521293   2.502   3.856   5.064 -0.9199 -1.0759 -0.1897
   30MOL   H35621294   2.365   3.953   5.132 -0.6323  0.3661 -1.7326
   30MOL   H35721295   2.368   3.751   4.901  1.1917 -0.7507  1.8498
   30MOL   H35821296   2.222   3.814   4.970 -0.8211  1.4033  0.1342
   30MOL   H35921297   2.227   3.967   4.808 -0.9870  1.1352  1.7382
   30MOL   H36021298   2.638   3.346   5.407  3.4758 -2.9557 -0.3399
   30MOL   H36121299   2.604   3.115   5.452  2.0533  2.6996 -3.3355
   30MOL   C36221300   2.418   4.033   4.828  0.4184  0.3565  0.0674
   30MOL   O36321301   2.530   4.014   4.868  0.1058 -0.6389  0.0818
   30MOL   C36421302   2.386   4.150   4.737  0.5297  0.2952 -0.0124
   30MOL   C36521303   2.274   4.146   4.649  0.5897 -0.8736 -0.2341
   30MOL   C36621304   2.253   4.251   4.562 -0.4798  0.3961 -0.3976
   30MOL   C36721305   2.342   4.364   4.563 -0.6030  0.2933  0.6736
   30MOL   C36821306   2.316   4.478   4.466 -0.4634 -0.7092  0.2804
   30MOL   O36921307   2.205   4.483   4.412  0.5735 -0.6208 -0.0072
   30MOL   N37021308   2.406   4.575   4.468 -0.8353 -0.4464  0.2080
   30MOL   C37121309   2.396   4.693   4.391 -0.0998 -0.5510  0.1994
   30MOL   C37221310   2.516   4.793   4.395 -0.6757  0.6241 -0.2706
   30MOL   C37321311   2.522   4.880   4.267 -0.6314  0.8022 -0.0881
   30MOL   C37421312   2.616   4.995   4.299 -0.2281  0.1165 -0.1256
   30MOL   C37521313   2.606   5.107   4.197 -0.3393 -0.0254 -0.0309
   30MOL   C37621314   2.725   5.207   4.207  0.5622 -0.4279 -0.1798
   30MOL   N37721315   2.705   5.322   4.119  0.0886 -0.2711  0.4070
   30MOL   C37821316   2.454   4.363   4.644 -0.3427  0.5606 -0.0670
   30MOL   C37921317   2.476   4.260   4.732 -0.4923 -1.0603 -0.4601
   30MOL   H38021318   2.202   4.065   4.651  2.4841 -2.5794  1.8221
   30MOL   H38121319   2.182   4.233   4.483 -1.5630 -0.6141  0.7798
   30MOL   H38221320   2.492   4.564   4.520 -0.7810 -1.0253 -0.0029
   30MOL   H38321321   2.388   4.679   4.283  1.3503 -0.3090  0.0460
   30MOL   H38421322   2.311   4.751   4.426  0.4281  0.0258  0.5420
   30MOL   H38521323   2.602   4.728   4.392 -1.1889 -0.0753  0.0507
   30MOL   H38621324   2.517   4.853   4.487  1.2687 -2.1510  1.5795
   30MOL   H38721325   2.570   4.814   4.195  1.5867  1.0178  1.1514
   30MOL   H38821326   2.428   4.929   4.240 -0.5638  1.4594  0.8415
   30MOL   H38921327   2.719   4.966   4.317 -0.4425  0.0906  1.1768
   30MOL   H39021328   2.589   5.047   4.391 -0.5368  2.0969 -1.3051
   30MOL   H39121329   2.518   5.165   4.224  0.6138  2.1874 -1.4600
   30MOL   H39221330   2.598   5.058   4.099  1.8779 -4.0804  1.6828
   30MOL   H39321331   2.737   5.240   4.310  0.1052 -2.8342  0.7039
   30MOL   H39421332   2.818   5.158   4.181  0.4905 -1.2114  0.9814
   30MOL   H39521333   2.708   5.405   4.177 -2.6405  1.4830 -1.8094
   30MOL   H39621334   2.530   4.440   4.641  0.5712 -0.3232  0.4592
   30MOL   H39721335   2.569   4.251   4.786 -2.0778 -0.3314  2.5202
   30MOL   C39821336   2.696   5.330   3.987  0.2981 -0.2246 -0.7846
   30MOL   O39921337   2.693   5.236   3.912 -0.2621  0.1014  0.2178
   30MOL   C40021338   2.679   5.468   3.933 -0.0436 -0.4178  0.4707
   30MOL   C40121339   2.583   5.551   3.988 -0.5216 -0.2043  0.2222
   30MOL   C40221340   2.562   5.676   3.938 -0.7753  0.2191 -0.0513
   30MOL   C40321341   2.642   5.720   3.827  0.9548 -0.7319  0.8103
   30MOL   C40421342   2.618   5.859   3.775  0.0101  0.6295 -0.4230
   30MOL   O40521343   2.684   5.917   3.687  0.3247 -0.1082  0.2360
   30MOL   N40621344   2.529   5.931   3.845  0.5854  0.8009 -0.2619
   30MOL   C40721345   2.475   6.055   3.799 -0.1559 -0.2829 -0.3837
   30MOL   C40821346   2.419   6.053   3.656  0.1499 -0.1972  0.2771
   30MOL   C40921347   2.291   5.970   3.639 -0.4578  0.5678  1.0408
   30MOL   C41021348   2.176   6.040   3.712  0.6638 -0.1531 -0.0079
   30MOL   C41121349   2.033   5.994   3.675 -0.7835 -0.1453 -0.8445
   30MOL   C41221350   1.993   6.037   3.541  0.7592  0.6089  0.4568
   30MOL   N41321351   1.863   5.974   3.514 -0.1951  0.0513 -0.2588
   30MOL   C41421352   2.740   5.644   3.768 -0.8875  0.3433  0.6410
   30MOL   C41521353   2.755   5.511   3.822 -0.0129  0.0588  0.0939
   30MOL   H41621354   2.528   5.510   4.071 -3.5989  0.0436 -1.6315
   30MOL   H41721355   2.482   5.743   3.967  1.0821  2.0550  0.9140
   30MOL   H41821356   2.474   5.883   3.915  0.1781 -0.0901 -1.1866
   30MOL   H41921357   2.401   6.095   3.868 -0.3397  1.5707 -1.5959
   30MOL   H42021358   2.565   6.117   3.806  1.2149 -2.5013  2.6253
   30MOL   H42121359   2.500   6.023   3.589 -0.4702 -1.1604 -0.0423
   30MOL   H42221360   2.399   6.159   3.640  3.8259  0.3111 -1.4219
   30MOL   H42321361   2.268   5.961   3.533  1.1743  0.6496  0.6652
   30MOL   H42421362   2.318   5.874   3.684  0.5629  0.1367 -0.4673
   30MOL   H42521363   2.184   6.147   3.695  1.4439 -0.1842  0.1626
   30MOL   H42621364   2.189   6.037   3.820 -0.8079 -0.6833  0.1679
   30MOL   H42721365   1.967   6.034   3.752  1.0238 -0.4773  0.9167
   30MOL   H42821366   2.037   5.885   3.672 -0.0942 -0.0985 -2.7187
   30MOL   H42921367   1.993   6.145   3.528 -1.5798  0.4390 -1.3706
   30MOL   H43021368   2.068   6.008   3.468 -0.4215  0.1654 -0.6006
   30MOL   H43121369   1.787   5.973   3.581 -1.6160 -0.8898 -1.8751
   30MOL   H43221370   2.803   5.684   3.690 -2.7478  1.1204 -0.5160
   30MOL   H43321371   2.822   5.437   3.780 -0.3240  1.1789 -2.4961
   30MOL   C43421372   1.826   5.923   3.399  0.4533 -0.1399  0.3378
   30MOL   O43521373   1.884   5.943   3.297  0.6367  0.3901  0.3996
   30MOL   C43621374   1.698   5.841   3.410 -0.4315  0.4848  0.6244
   30MOL   C43721375   1.630   5.795   3.295 -0.2388 -0.0715  0.4956
   30MOL   C43821376   1.518   5.715   3.296  0.0669 -0.1745  0.5313
   30MOL   C43921377   1.470   5.668   3.417  0.4897 -0.3594  0.1594
   30MOL   C44021378   1.337   5.583   3.417 -0.0408 -0.0452 -0.1463
   30MOL   O44121379   1.290   5.521   3.318  0.3039  0.3088 -0.2452
   30MOL   N44221380   1.278   5.568   3.534  0.0346 -0.1831  0.6148
   30MOL   C44321381   1.162   5.473   3.552  0.9424 -0.5941  0.0736
   30MOL   C44421382   1.119   5.466   3.699  0.0664 -0.1960  0.1757
   30MOL   C44521383   0.989   5.394   3.743  0.4816 -0.0122 -0.3695
   30MOL   C44621384   0.976   5.395   3.893  0.6224  0.5554 -0.2364
   30MOL   C44721385   0.840   5.431   3.953 -0.5507 -0.2420  0.0679
   30MOL   C44821386   0.840   5.414   4.107 -0.1671  0.2709  0.4886
   30MOL   N44921387   0.712   5.457   4.156 -0.0928  0.2547  1.0028
   30MOL   C45021388   1.534   5.704   3.538  0.5572 -0.2627  0.5762
   30MOL   C45121389   1.649   5.786   3.532  1.0573  0.3233  0.2183
   30MOL   H45221390   1.652   5.836   3.198  1.7608 -1.1225  0.4674
   30MOL   H45321391   1.459   5.701   3.207 -1.5893  1.2101  1.3587
   30MOL   H45421392   1.313   5.623   3.612  0.4557  3.5157 -2.0161
   30MOL   H45521393   1.084   5.518   3.490  1.6062  1.3822  0.6043
   30MOL   H45621394   1.175   5.372   3.513 -0.2334 -0.8645  0.3781
   30MOL   H45721395   1.096   5.569   3.725 -0.0238 -0.1352 -0.1404
   30MOL   H45821396   1.207   5.422   3.748  1.3246  0.8804 -1.1073
   30MOL   H45921397   0.902   5.451   3.710  0.5604  0.0206 -0.5243
   30MOL   H46021398   0.989   5.294   3.700 -1.4604  0.2102 -0.9405
   30MOL   H46121399   1.049   5.464   3.935  0.9907  0.7561 -1.1829
   30MOL   H46221400   1.001   5.297   3.933  1.7264  1.1649  0.5562
   30MOL   H46321401   0.766   5.362   3.914 -1.0810 -1.5337  3.2077
   30MOL   H46421402   0.823   5.535   3.926 -0.4300 -0.4169 -0.6809
   30MOL   H46521403   0.849   5.306   4.121 -1.0398 -0.0261 -1.0830
   30MOL   H46621404   0.923   5.467   4.154  0.3997  0.8674 -1.1323
   30MOL   H46721405   0.666   5.523   4.093 -1.6982 -0.4751  1.3851
   30MOL   H46821406   1.499   5.680   3.637 -1.8329 -2.1480 -0.6752
   30MOL   H46921407   1.692   5.809   3.628  1.2029 -1.9521  0.7292
   30MOL   C47021408   0.648   5.418   4.263  0.3585  0.1277 -0.6343
   30MOL   O47121409   0.698   5.360   4.360 -0.4679 -0.1413  0.2201
   30MOL   C47221410   0.508   5.453   4.266 -0.2366  0.5561  0.1789
   30MOL   C47321411   0.451   5.513   4.383 -0.1688  0.3191 -0.3429
   30MOL   C47421412   0.322   5.559   4.380 -0.3897 -0.6727  0.4949
   30MOL   C47521413   0.244   5.557   4.261  0.7778  0.6084 -0.6838
   30MOL   C47621414   0.096   5.593   4.261 -0.5297 -0.2428  0.0427
   30MOL   O47721415   0.052   5.652   4.360 -0.3932 -0.3378  0.6017
   30MOL   N47821416   0.022   5.545   4.159  0.2805  0.5643  0.0954
   30MOL   C47921417   7.765   5.568   4.145  0.3500  0.7310 -0.0331
   30MOL   C48021418   7.715   5.497   4.020 -0.3301 -0.1162 -0.1721
   30MOL   C48121419   7.564   5.526   3.982 -0.0508 -1.1078 -0.1201
   30MOL   C48221420   7.522   5.437   3.866 -0.6717 -0.2052  0.8256
   30MOL   C48321421   7.370   5.427   3.836 -0.6723 -0.0555  0.4548
   30MOL   C48421422   7.341   5.321   3.728 -0.3647 -0.4551  0.0131
   30MOL   N48521423   7.201   5.304   3.706  0.1168 -0.2390 -0.5848
   30MOL   C48621424   0.296   5.505   4.146 -0.6186  0.4699 -0.4462
   30MOL   C48721425   0.427   5.448   4.154 -0.2195 -0.1268 -0.1010
   30MOL   H48821426   0.508   5.517   4.475 -0.3995  0.3950 -0.2054
   30MOL   H48921427   0.276   5.598   4.469  0.4714 -0.3601  0.8073
   30MOL   H49021428   0.066   5.502   4.079 -1.8890 -0.2269 -0.7162
   30MOL   H49121429   7.716   5.526   4.233  0.6787  2.1521  0.8475
   30MOL   H49221430   7.740   5.674   4.140 -3.4681 -0.1317 -0.6825
   30MOL   H49321431   7.721   5.389   4.034 -0.7769 -0.0500  0.5656
   30MOL   H49421432   7.774   5.525   3.933  1.9906  2.5395  2.1646
   30MOL   H49521433   7.507   5.495   4.069  0.5640 -0.4511  0.5279
   30MOL   H49621434   7.533   5.629   3.964 -1.8486 -1.3714  1.3051
   30MOL   H49721435   7.562   5.338   3.888 -1.3195 -0.3915  1.1834
   30MOL   H49821436   7.575   5.469   3.776  0.7817 -0.3915  1.6025
   30MOL   H49921437   7.327   5.522   3.806  0.1745 -0.1375 -1.0870
   30MOL   H50021438   7.317   5.410   3.930  0.0561  0.0772  0.8932
   30MOL   H50121439   7.390   5.359   3.638  0.3057 -0.5827  0.3196
   30MOL   H50221440   7.399   5.231   3.751  1.7263  0.7088 -0.5789
   30MOL   H50321441   7.150   5.248   3.773 -1.8413  0.8248 -1.1505
   30MOL   H50421442   0.247   5.492   4.050 -1.4593 -1.3494  0.2097
   30MOL   H50521443   0.462   5.409   4.059 -1.5688 -0.7668 -0.3481
   30MOL   C50621444   7.133   5.322   3.591  0.0599 -0.7475  0.9078
   30MOL   O50721445   7.190   5.360   3.490  0.1874  0.3353  0.3129
   30MOL   C50821446   6.990   5.282   3.583 -1.0499 -0.1470  0.1501
   30MOL   C50921447   6.919   5.226   3.694 -0.6015  0.1353 -0.5225
   30MOL   C51021448   6.781   5.194   3.684  0.1175 -0.1096 -0.1751
   30MOL   C51121449   6.715   5.194   3.565 -0.4793 -0.5748 -0.0556
   30MOL   C51221450   6.571   5.148   3.559  0.0810 -0.5337 -0.8571
   30MOL   O51321451   6.520   5.065   3.637 -0.1166 -0.4310  0.6241
   30MOL   N51421452   6.507   5.214   3.458 -0.3370  0.3451  0.2057
   30MOL   C51521453   6.359   5.212   3.446 -0.4657 -0.2955  0.4083
   30MOL   C51621454   6.295   5.336   3.516  0.3170 -0.4541  0.5943
   30MOL   C51721455   6.146   5.318   3.544  0.3451 -0.5180 -0.5833
   30MOL   C51821456   6.063   5.264   3.423 -0.2150  0.0304 -0.1128
   30MOL   C51921457   6.079   5.350   3.287 -0.0934  0.2651 -0.8610
   30MOL   C52021458   5.952   5.346   3.194 -0.3354 -0.1273 -0.1357
   30MOL   N52121459   5.856   5.442   3.246  0.2310 -0.2715 -1.0464
   30MOL   C52221460   6.787   5.226   3.449  0.1955  0.4262  0.3248
   30MOL   C52321461   6.922   5.277   3.456 -0.2299 -0.4897  0.1662
   30MOL   H52421462   6.971   5.232   3.788 -3.4664  1.1480  1.0459
   30MOL   H52521463   6.732   5.163   3.776  2.2790 -1.1813  0.6468
   30MOL   H52621464   6.557   5.261   3.384  1.3756 -0.6930  0.6596
   30MOL   H52721465   6.319   5.198   3.345 -1.3443 -1.0014  0.8451
   30MOL   H52821466   6.331   5.118   3.493  0.1511 -0.5211  0.3312
   30MOL   H52921467   6.298   5.424   3.450  1.0804 -0.8892  0.0387
   30MOL   H53021468   6.347   5.356   3.609 -0.1405 -0.9281  0.9501
   30MOL   H53121469   6.141   5.261   3.636  1.3341 -0.4888 -0.4967
   30MOL   H53221470   6.107   5.410   3.588 -0.1256 -0.1556 -1.7191
   30MOL   H53321471   5.959   5.258   3.454  0.4587 -1.1556  2.0803
   30MOL   H53421472   6.093   5.159   3.416  1.7341  0.3655  2.2165
   30MOL   H53521473   6.146   5.306   3.214 -1.2714  1.3223 -2.6249
   30MOL   H53621474   6.099   5.454   3.317  2.1203  0.2283 -2.0612
   30MOL   H53721475   5.969   5.378   3.091  1.0101  1.6890  0.6265
   30MOL   H53821476   5.898   5.252   3.190  0.6103 -0.7618  1.7481
   30MOL   H53921477   5.881   5.501   3.324 -0.0939  0.0068 -1.1522
   30MOL   H54021478   6.738   5.225   3.353 -1.6046  0.8041  1.2297
   30MOL   H54121479   6.971   5.311   3.366 -1.9847  0.2760 -0.5224
   30MOL   C54221480   5.728   5.457   3.218  0.1520  0.6998  0.0305
   30MOL   O54321481   5.669   5.384   3.132  0.0278  0.0387 -0.4677
   30MOL   C54421482   5.659   5.569   3.287  0.4012  0.5373 -0.3313
   30MOL   C54521483   5.556   5.636   3.221 -0.6590  0.0318 -0.0349
   30MOL   C54621484   5.494   5.738   3.288 -0.1535 -0.0213 -0.0707
   30MOL   C54721485   5.533   5.783   3.414  0.0194 -0.0494 -0.4566
   30MOL   C54821486   5.474   5.906   3.475 -0.7607  0.3563  1.1014
   30MOL   O54921487   5.380   5.970   3.412 -0.2624 -0.4979  0.3846
   30MOL   N55021488   5.509   5.946   3.602  0.0681 -0.2856 -0.2675
   30MOL   C55121489   5.433   6.046   3.679 -0.5205  0.6772 -0.2609
   30MOL   C55221490   5.346   5.977   3.788  0.4170 -0.1930 -0.0744
   30MOL   C55321491   5.238   6.064   3.854 -0.0498 -0.0351  0.5355
   30MOL   C55421492   5.134   5.994   3.945 -0.7393 -0.1149 -0.2383
   30MOL   C55521493   5.192   5.976   4.083  0.3702 -0.0880 -0.7854
   30MOL   C55621494   5.083   5.924   4.178 -0.3192 -0.4283  0.3869
   30MOL   N55721495   5.026   5.794   4.151  0.6012 -0.2827  0.2091
   30MOL   C55821496   5.638   5.717   3.478  0.0713 -0.3650  0.4488
   30MOL   C55921497   5.702   5.609   3.412  0.2619 -0.1959 -0.2593
   30MOL   H56021498   5.523   5.606   3.123 -0.0149 -2.5702  0.5091
   30MOL   H56121499   5.415   5.794   3.239 -1.3279 -2.6050 -1.1977
   30MOL   H56221500   5.583   5.899   3.653 -0.2004 -0.1284  0.2677
   30MOL   H56321501   5.509   6.110   3.723 -0.4253  0.1906  0.2855
   30MOL   H56421502   5.378   6.123   3.624  0.6329  3.2709  2.0553
   30MOL   H56521503   5.408   5.936   3.868  0.2670 -1.4170 -0.5768
   30MOL   H56621504   5.288   5.898   3.740  0.5146 -0.2557 -0.0863
   30MOL   H56721505   5.292   6.144   3.905 -1.2093  0.6950  0.6344
   30MOL   H56821506   5.178   6.108   3.774 -0.3692  1.3326  1.5305
   30MOL   H56921507   5.112   5.897   3.900 -1.0864  0.2792 -0.9243
   30MOL   H57021508   5.044   6.055   3.941 -0.0229  0.9473 -0.1438
   30MOL   H57121509   5.208   6.079   4.112  1.9474  0.0223 -1.9686
   30MOL   H57221510   5.291   5.931   4.087  0.0927 -0.6112  0.4088
   30MOL   H57321511   5.111   5.947   4.281 -0.9704  1.7772  0.1035
   30MOL   H57421512   5.000   5.994   4.165  1.1959  2.1122  3.5231
   30MOL   H57521513   5.061   5.737   4.075  1.4925 -0.6901  0.9100
   30MOL   H57621514   5.662   5.754   3.576 -1.1476 -1.3197  1.1301
   30MOL   H57721515   5.780   5.561   3.468 -0.3800 -0.9401  0.0039
   30MOL   C57821516   4.959   5.717   4.237 -0.2723  0.7315 -0.7036
   30MOL   O57921517   4.908   5.752   4.347 -0.3582  0.1957  0.0404
   30MOL   C58021518   4.929   5.580   4.179 -0.6876  0.7352 -0.4049
   30MOL   C58121519   5.034   5.499   4.128  0.3596  0.0570 -0.0027
   30MOL   C58221520   5.011   5.368   4.086  0.3330 -0.3708 -0.2230
   30MOL   C58321521   4.876   5.311   4.090  0.1080  0.4595 -0.0143
   30MOL   C58421522   4.865   5.174   4.025 -0.4930 -0.3453  0.3125
   30MOL   O58521523   4.939   5.146   3.930  0.1603  0.3924 -0.1079
   30MOL   N58621524   4.783   5.083   4.087  0.2328  0.3412 -0.1587
   30MOL   C58721525   4.752   4.947   4.039  0.2096 -0.3712 -0.5976
   30MOL   C58821526   4.877   4.858   4.035 -0.6922 -0.1131  0.1590
   30MOL   C58921527   4.960   4.864   4.162  0.0723  0.3833  0.7123
   30MOL   C59021528   5.040   4.731   4.172  0.0824  0.3707  0.2954
   30MOL   C59121529   5.105   4.724   4.312  0.0639 -0.5423 -0.8780
   30MOL   C59221530   5.183   4.599   4.346  0.2124  0.2446 -0.0660
   30MOL   N59321531   5.194   4.583   4.487 -0.8076  0.1488 -0.8675
   30MOL   C59421532   4.769   5.394   4.138 -0.5274  0.2577  1.0539
   30MOL   C59521533   4.797   5.523   4.181  0.1411  0.3115  0.0385
   30MOL   H59621534   5.134   5.536   4.115  0.3101 -0.5637 -2.3733
   30MOL   H59721535   5.090   5.316   4.034 -0.5906 -0.9756 -1.0703
   30MOL   H59821536   4.730   5.120   4.165 -0.5205 -2.1107  0.5325
   30MOL   H59921537   4.677   4.908   4.108 -0.7811  2.6984  0.1177
   30MOL   H60021538   4.697   4.945   3.945 -0.1872  0.5389 -0.3873
   30MOL   H60121539   4.932   4.894   3.949 -0.1162 -2.1697 -0.3740
   30MOL   H60221540   4.849   4.753   4.019 -2.3190  0.4290 -0.6074
   30MOL   H60321541   5.032   4.945   4.169  0.0213  0.5551 -0.6314
   30MOL   H60421542   4.893   4.857   4.248 -1.7961  0.2324 -0.7210
   30MOL   H60521543   5.108   4.725   4.086 -1.8987 -1.2633 -1.1898
   30MOL   H60621544   4.978   4.642   4.165  1.6468 -0.6807 -0.6709
   30MOL   H60721545   5.034   4.742   4.393  1.4753 -0.6229  0.3838
   30MOL   H60821546   5.170   4.806   4.341 -0.7459  0.0483 -0.7256
   30MOL   H60921547   5.135   4.509   4.308  2.4731 -0.6497 -0.9133
   30MOL   H61021548   5.279   4.613   4.296 -0.6875 -0.4472 -2.0555
   30MOL   H61121549   5.139   4.640   4.549 -0.2460  0.7039 -0.8787
   30MOL   H61221550   4.668   5.356   4.141 -1.5105  2.6263 -0.6039
   30MOL   H61321551   4.715   5.587   4.211 -0.3919 -1.0178  1.4692
   30MOL   C61421552   5.274   4.486   4.535  0.4393 -0.2541 -0.2795
   30MOL   O61521553   5.365   4.437   4.470 -0.2026  0.0576 -0.2164
   30MOL   C61621554   5.244   4.438   4.678  0.7376 -1.0546 -0.2257
   30MOL   C61721555   5.259   4.301   4.709  0.2838 -0.4227  0.0045
   30MOL   C61821556   5.229   4.250   4.833  0.0556 -0.5187  0.2669
   30MOL   C61921557   5.179   4.335   4.938 -0.5572  0.4302 -0.3448
   30MOL   C62021558   5.123   4.273   5.063  0.9092  0.5647  0.2981
   30MOL   O62121559   5.065   4.164   5.056  0.3137 -0.0030  0.7161
   30MOL   N62221560   5.135   4.340   5.174  0.1265 -0.2450 -0.0932
   30MOL   C62321561   5.086   4.293   5.307  0.0065 -0.2276  0.2765
   30MOL   C62421562   5.130   4.390   5.423 -0.6573 -0.3056 -0.2524
   30MOL   C62521563   5.062   4.349   5.553 -0.7534  0.9588  0.5403
   30MOL   C62621564   5.083   4.460   5.664 -0.4457  0.3767  0.8522
   30MOL   C62721565   5.002   4.445   5.794  0.2054  0.0456 -0.1997
   30MOL   C62821566   4.965   4.585   5.842 -0.0805 -0.2138  0.3040
   30MOL   N62921567   4.891   4.576   5.972 -0.1548 -0.0081  0.2948
   30MOL   C63021568   5.162   4.469   4.907  0.5990  0.4868  0.1926
   30MOL   C63121569   5.196   4.524   4.782  0.0962 -0.1530 -0.0819
   30MOL   H63221570   5.283   4.236   4.625 -0.2755 -0.0726 -0.4249
   30MOL   H63321571   5.225   4.143   4.844 -1.4156 -0.6361 -1.1587
   30MOL   H63421572   5.188   4.426   5.165 -4.1425  2.3936 -2.0114
   30MOL   H63521573   4.978   4.294   5.299  0.0826 -0.0404 -0.7969
   30MOL   H63621574   5.117   4.190   5.321  0.6246 -0.0368  0.3395
   30MOL   H63721575   5.107   4.494   5.400 -2.0750 -0.2023  1.5431
   30MOL   H63821576   5.235   4.364   5.430 -0.8728 -1.0094  0.3818
   30MOL   H63921577   4.954   4.339   5.537 -0.7422  1.5983  0.0493
   30MOL   H64021578   5.108   4.255   5.585  0.3875  0.2512 -2.9527
   30MOL   H64121579   5.057   4.558   5.622 -0.2528 -0.5733 -1.5720
   30MOL   H64221580   5.189   4.478   5.679  0.1407 -1.8771 -0.3545
   30MOL   H64321581   5.058   4.393   5.872  0.8547  1.9663  0.6597
   30MOL   H64421582   4.910   4.391   5.773  0.6822 -0.8895  0.0706
   30MOL   H64521583   5.056   4.637   5.871 -1.2607  2.4622 -0.6339
   30MOL   H64621584   4.914   4.642   5.764  0.1894 -1.9120 -1.1402
   30MOL   H64721585   4.954   4.576   6.051  0.6974  3.7286 -0.2881
   30MOL   H64821586   5.128   4.532   4.988 -1.2497 -0.5598  0.2553
   30MOL   H64921587   5.168   4.626   4.762  2.9728  0.6109 -0.4967
   30MOL   C65021588   4.760   4.556   5.994  0.2555 -0.0564 -0.5635
   30MOL   O65121589   4.681   4.547   5.899  0.2799 -0.0381 -0.5242
   30MOL   C65221590   4.709   4.538   6.132 -0.4403 -0.0086  0.6029
   30MOL   C65321591   4.585   4.586   6.168  0.0273 -0.7680 -0.1065
   30MOL   C65421592   4.532   4.572   6.301  0.7322  0.5542  0.2374
   30MOL   C65521593   4.614   4.517   6.402  0.6930  0.2473 -0.3258
   30MOL   C65621594   4.566   4.505   6.547 -0.3423  0.5145  0.4915
   30MOL   O65721595   4.445   4.508   6.570  0.5955 -0.0592 -0.3252
   30MOL   N65821596   4.658   4.495   6.636 -0.3854 -0.2525  0.6046
   30MOL   C65921597   4.640   4.493   6.781 -0.3822  0.4157  0.9714
   30MOL   C66021598   4.763   4.531   6.859  0.0614  0.9323 -0.5296
   30MOL   C66121599   4.846   4.652   6.815  0.6245 -0.2995  0.8108
   30MOL   C66221600   4.988   4.676   6.885 -0.0551 -0.5062 -0.1940
   30MOL   C66321601   4.976   4.659   7.035 -0.4997  0.3172 -0.5766
   30MOL   C66421602   5.111   4.693   7.091 -0.0180  0.1201  0.8209
   30MOL   N66521603   5.110   4.683   7.240 -0.4514 -0.6538 -0.0834
   30MOL   C66621604   4.736   4.455   6.360  0.5106  0.6994  0.0413
   30MOL   C66721605   4.785   4.467   6.227  0.3952 -0.5259  0.4990
   30MOL   H66821606   4.521   4.637   6.097 -0.5958 -1.3855  0.0021
   30MOL   H66921607   4.442   4.618   6.339  1.3015  1.1753  0.8408
   30MOL   H67021608   4.752   4.470   6.610  0.2818  1.9303  0.8642
   30MOL   H67121609   4.553   4.551   6.810 -0.5195  0.9529 -0.4609
   30MOL   H67221610   4.596   4.395   6.803 -4.9861  2.3698  0.9382
   30MOL   H67321611   4.843   4.457   6.857  0.3701  1.1961  1.1176
   30MOL   H67421612   4.715   4.549   6.956  0.2953 -0.8068 -0.0747
   30MOL   H67521613   4.876   4.654   6.710 -0.4194 -0.2242  0.5158
   30MOL   H67621614   4.794   4.747   6.822 -1.5027 -1.2524 -1.1802
   30MOL   H67721615   5.027   4.775   6.864 -0.7747 -0.3568 -0.8322
   30MOL   H67821616   5.059   4.611   6.833  1.0410  1.5548 -1.3385
   30MOL   H67921617   4.947   4.561   7.073  1.6228  0.8282  2.5519
   30MOL   H68021618   4.899   4.728   7.068 -1.3260  0.4888 -2.8124
   30MOL   H68121619   5.180   4.613   7.062 -0.3279 -0.5854  1.9782
   30MOL   H68221620   5.143   4.795   7.072  1.1656 -0.5957 -1.2397
   30MOL   H68321621   5.022   4.679   7.289 -0.0588 -0.0608  0.6934
   30MOL   H68421622   4.795   4.404   6.435  0.9071 -0.8903 -1.3246
   30MOL   H68521623   4.885   4.436   6.200 -0.7260 -0.2732 -4.4659
   30MOL   C68621624   5.219   4.686   7.316 -0.6824 -0.0153  0.0122
   30MOL   O68721625   5.332   4.705   7.269  0.4622  0.3313  0.3327
   30MOL   C68821626   5.211   4.664   7.467 -0.1608 -0.7062 -0.1606
   30MOL   C68921627   5.294   4.739   7.558 -0.3267  0.3123 -0.4639
   30MOL   C69021628   5.273   4.725   7.691 -0.3381  0.5739 -0.1479
   30MOL   C69121629   5.169   4.646   7.747 -0.4112 -0.6959 -0.6735
   30MOL   C69221630   5.151   4.640   0.010  0.7995  0.6769 -0.2054
   30MOL   O69321631   5.238   4.671   0.087  0.1156  0.0661  0.0453
   30MOL   N69421632   5.033   4.591   0.057  0.6040 -0.5025  0.4620
   30MOL   C69521633   5.006   4.564   0.195  0.3653  0.2410  0.0027
   30MOL   C69621634   4.868   4.509   0.221 -0.0368 -0.6447 -0.6293
   30MOL   C69721635   4.814   4.514   0.369 -0.1695  0.5346  0.3837
   30MOL   C69821636   4.861   4.395   0.457 -0.2455  0.9945  0.7970
   30MOL   C69921637   4.828   4.406   0.607  0.2757  0.4026 -0.1089
   30MOL   C70021638   4.839   4.268   0.677 -0.3092 -0.3933  0.3207
   30MOL   N70121639   4.785   4.290   0.814 -0.6399 -0.3550 -0.1560
   30MOL   C70221640   5.087   4.570   7.656 -0.0370 -0.1915 -0.0414
   30MOL   C70321641   5.115   4.575   7.518 -0.0268 -0.2209  0.0735
   30MOL   H70421642   5.361   4.815   7.520 -0.3784  0.8352  0.4879
   30MOL   H70521643   5.338   4.788   7.750 -0.9730 -1.4964  2.8365
   30MOL   H70621644   4.958   4.562   7.882 -1.4789  0.3838  2.5219
   30MOL   H70721645   5.080   4.492   0.230  1.1694  1.2327  0.3776
   30MOL   H70821646   5.016   4.656   0.252  2.3632 -1.1968  2.0667
   30MOL   H70921647   4.860   4.413   0.168  1.6947 -0.3631 -1.4321
   30MOL   H71021648   4.800   4.574   0.165 -0.7089  0.2458  1.1874
   30MOL   H71121649   4.846   4.605   0.419 -0.7838  0.7759  0.3425
   30MOL   H71221650   4.705   4.518   0.366 -0.2196 -1.2066 -0.8685
   30MOL   H71321651   4.965   4.364   0.449 -1.0986 -1.0451 -3.9214
   30MOL   H71421652   4.799   4.316   0.415  1.4723  0.6478 -1.1925
   30MOL   H71521653   4.732   4.449   0.633 -0.3584 -0.7085 -0.5746
   30MOL   H71621654   4.888   4.482   0.656 -0.3865  0.3990  0.7291
   30MOL   H71721655   4.794   4.194   0.612 -0.2401 -0.4694  0.3585
   30MOL   H71821656   4.947   4.250   0.680 -0.6645 -2.6327  0.3504
   30MOL   H71921657   4.836   4.366   0.857 -0.9584  0.5713 -1.3892
   30MOL   H72021658   5.003   4.510   7.688 -0.5236 -1.5983 -3.6567
   30MOL   H72121659   5.052   4.517   7.451 -0.5819 -1.2412  1.4562
   30MOL   H72221660   4.808   4.208   0.867 -1.6293 -0.7949 -0.3844
   31MOL     C121661   4.011   0.927   7.580  0.3400 -0.2862  0.8600
   31MOL     O221662   4.111   0.993   7.550  0.3354 -0.0522 -0.2791
   31MOL     C321663   4.005   0.781   7.565 -0.0507 -0.9435  0.0337
   31MOL     C421664   3.881   0.712   7.539  0.1926  0.5854 -0.8477
   31MOL     C521665   3.875   0.570   7.521 -0.9871 -0.0911 -0.6060
   31MOL     C621666   3.995   0.494   7.540 -0.1454 -0.0738 -0.5875
   31MOL     C721667   3.984   0.343   7.513 -0.1094 -0.4361  0.0365
   31MOL     O821668   4.074   0.263   7.544  0.1564 -0.3497  0.5250
   31MOL     N921669   3.874   0.301   7.456  0.5033  0.4427 -0.2777
   31MOL    C1021670   3.858   0.161   7.420  0.0081 -0.3793 -0.6034
   31MOL    C1121671   3.826   0.075   7.542 -0.4301  0.2435  0.3911
   31MOL    C1221672   3.776   7.821   7.477  0.2846 -0.2086  0.0503
   31MOL    C1321673   3.688   7.739   7.573  0.1527  0.7725 -0.2477
   31MOL    C1421674   3.762   7.644   7.663 -0.0396 -0.2614  0.8026
   31MOL    C1521675   3.664   7.535   7.717  0.0922  0.2192 -0.2494
   31MOL    N1621676   3.634   7.433   7.622  0.0698  0.7561  0.1327
   31MOL    C1721677   4.117   0.557   7.575  0.1693  0.7273  0.2910
   31MOL    C1821678   4.120   0.699   7.572  0.3804 -0.1934  0.0060
   31MOL    H1921679   3.793   0.774   7.527  1.0753  1.8414 -0.9102
   31MOL    H2021680   3.778   0.525   7.509 -0.7195 -1.1293  1.0068
   31MOL    H2121681   3.797   0.367   7.447 -1.0720 -1.4332 -0.9962
   31MOL    H2221682   3.782   0.152   7.343 -1.9883 -1.3277  1.4456
   31MOL    H2321683   3.953   0.123   7.383  1.6424  0.9067  2.0490
   31MOL    H2421684   3.737   0.121   7.585  0.0800  0.3388  1.3561
   31MOL    H2521685   3.907   0.058   7.612 -0.7790 -2.9844  0.0869
   31MOL    H2621686   3.707   7.842   7.396  0.4515  0.3273  0.0446
   31MOL    H2721687   3.850   7.746   7.449  1.2597  0.5087  0.6432
   31MOL    H2821688   3.629   7.673   7.509  4.3972 -2.0672 -1.4648
   31MOL    H2921689   3.620   7.805   7.626  0.9621  0.3026  1.4127
   31MOL    H3021690   3.803   7.699   7.747 -2.4022  3.2096 -0.1963
   31MOL    H3121691   3.837   7.598   7.599 -0.7692 -0.6732  0.2257
   31MOL    H3221692   3.720   7.500   7.804  1.5139  1.5387 -0.6119
   31MOL    H3321693   3.574   7.570   7.768  0.6431  1.1021  0.1463
   31MOL    H3421694   3.682   7.441   7.533 -0.1564 -2.6900 -0.4096
   31MOL    H3521695   4.213   0.507   7.581  0.0596  0.5501  0.6015
   31MOL    H3621696   4.215   0.751   7.574  1.2217 -1.7248  0.9656
   31MOL    H3721697   3.924   0.977   7.622  0.1460 -0.4451  0.6508
   31MOL    C3821698   3.563   7.320   7.640 -0.3745 -0.8992 -0.4818
   31MOL    O3921699   3.496   7.299   7.738  0.2850  0.6821 -0.0127
   31MOL    C4021700   3.573   7.220   7.529  0.4209  0.6928  0.5968
   31MOL    C4121701   3.550   7.084   7.561 -0.1509 -0.1003 -0.3994
   31MOL    C4221702   3.596   6.990   7.470  0.1779  0.0884 -0.4310
   31MOL    C4321703   3.644   7.027   7.340  0.5125  0.0524 -0.4331
   31MOL    C4421704   3.699   6.920   7.244  0.1607  0.1796  0.2683
   31MOL    O4521705   3.815   6.933   7.199  0.6081  0.1940 -0.3249
   31MOL    N4621706   3.625   6.811   7.228  0.2014  0.2185 -0.2028
   31MOL    C4721707   3.672   6.689   7.156  0.2868  0.5630  0.3778
   31MOL    C4821708   3.557   6.616   7.101 -0.7417 -0.5338  0.1341
   31MOL    C4921709   3.605   6.523   6.985 -0.3633 -0.0690 -0.3882
   31MOL    C5021710   3.493   6.480   6.894 -0.5045  0.1962 -0.2711
   31MOL    C5121711   3.420   6.355   6.936  0.4489 -0.4385 -0.7072
   31MOL    C5221712   3.323   6.374   7.055 -0.4321  0.7806  0.0096
   31MOL    N5321713   3.239   6.251   7.065  0.1091  0.2275  0.2961
   31MOL    C5421714   3.648   7.157   7.310  0.2031  0.6607 -0.4326
   31MOL    C5521715   3.613   7.258   7.402  0.6774  0.4885  0.2169
   31MOL    H5621716   3.515   7.058   7.660 -0.3989  0.6738 -0.2798
   31MOL    H5721717   3.589   6.885   7.495  3.6769  0.0298  0.6207
   31MOL    H5821718   3.532   6.807   7.266  0.5949 -5.6695  0.5999
   31MOL    H5921719   3.730   6.737   7.076 -0.1906  1.3921  0.5221
   31MOL    H6021720   3.731   6.628   7.224  0.0196 -0.4407 -0.2894
   31MOL    H6121721   3.487   6.690   7.064  0.5756  1.1632  0.9870
   31MOL    H6221722   3.508   6.558   7.180  0.7712 -1.6500  0.2737
   31MOL    H6321723   3.680   6.577   6.927  1.0979 -1.7090 -0.0681
   31MOL    H6421724   3.666   6.442   7.026 -0.4587 -0.9168 -1.8878
   31MOL    H6521725   3.530   6.471   6.792  0.7406  3.2193 -0.1396
   31MOL    H6621726   3.421   6.562   6.902 -1.2877 -0.5937  0.8275
   31MOL    H6721727   3.485   6.275   6.972  0.2506 -0.1844  0.2439
   31MOL    H6821728   3.360   6.327   6.849  0.6617 -0.6709 -0.7782
   31MOL    H6921729   3.385   6.389   7.144 -0.8047 -0.4769  0.4832
   31MOL    H7021730   3.265   6.465   7.042 -3.1011 -1.0061 -0.8507
   31MOL    H7121731   3.142   6.268   7.044  0.8770  1.2209 -2.8738
   31MOL    H7221732   3.679   7.182   7.210  0.1631 -2.4064 -1.2457
   31MOL    H7321733   3.624   7.363   7.379  0.1119  0.8193  1.4402
   31MOL    C7421734   3.276   6.129   7.117 -0.6435 -0.3603 -0.0236
   31MOL    O7521735   3.391   6.106   7.153 -0.1639  0.0900  0.1502
   31MOL    C7621736   3.156   6.043   7.141  0.5678  0.3378 -0.0827
   31MOL    C7721737   3.030   6.100   7.189  0.3355  0.7871  0.3899
   31MOL    C7821738   2.923   6.021   7.220  0.0941  0.8551 -0.7772
   31MOL    C7921739   2.928   5.882   7.191  0.7796 -0.2441  0.0846
   31MOL    C8021740   2.811   5.792   7.219  0.1744  0.4049 -0.2625
   31MOL    O8121741   2.741   5.818   7.318 -0.0947 -0.5462  0.6851
   31MOL    N8221742   2.788   5.686   7.140  0.3993  0.5961  0.1843
   31MOL    C8321743   2.666   5.604   7.147 -0.4761 -0.4411 -0.2827
   31MOL    C8421744   2.696   5.455   7.177 -0.1872  0.7565  0.5193
   31MOL    C8521745   2.723   5.435   7.321  0.5791  0.4812  0.1714
   31MOL    C8621746   2.605   5.459   7.411  0.4440  0.7401 -0.4552
   31MOL    C8721747   2.622   5.429   7.562  0.4059  0.2495 -0.1527
   31MOL    C8821748   2.502   5.474   7.649  0.2060 -0.3763 -0.6476
   31MOL    N8921749   2.515   5.447   7.793 -0.1360  0.3549 -0.5139
   31MOL    C9021750   3.042   5.820   7.146  0.9742 -0.5213 -0.7642
   31MOL    C9121751   3.160   5.901   7.126  0.6345  0.3403  0.5072
   31MOL    H9221752   3.039   6.205   7.212  0.3914  1.1129 -1.0595
   31MOL    H9321753   2.833   6.054   7.271  0.3895 -0.5011  0.6747
   31MOL    H9421754   2.843   5.673   7.056  1.6080 -2.0887  1.3527
   31MOL    H9521755   2.589   5.649   7.209 -3.0843 -1.5041 -2.6650
   31MOL    H9621756   2.626   5.613   7.046 -1.4381  0.3269  0.1665
   31MOL    H9721757   2.778   5.405   7.126 -0.2524  0.7063  0.4637
   31MOL    H9821758   2.621   5.382   7.145  1.4140 -2.7437  4.2749
   31MOL    H9921759   2.753   5.332   7.341 -0.9268  0.2993  1.5812
   31MOL   H10021760   2.808   5.489   7.362  0.1479 -0.1747  1.9961
   31MOL   H10121761   2.511   5.420   7.373 -0.2429  1.0930  0.8316
   31MOL   H10221762   2.594   5.568   7.408  0.1692  0.7513  0.5982
   31MOL   H10321763   2.705   5.494   7.589  0.6155 -0.4848  0.9777
   31MOL   H10421764   2.651   5.329   7.595  2.2865  1.0026  0.5395
   31MOL   H10521765   2.496   5.583   7.638  0.1538 -0.5155 -2.1218
   31MOL   H10621766   2.409   5.428   7.615 -0.2590  0.2204 -0.1848
   31MOL   H10721767   2.608   5.430   7.830 -0.2918  0.5147 -0.0531
   31MOL   H10821768   3.041   5.713   7.136 -0.9102 -0.9624  3.0337
   31MOL   H10921769   3.252   5.853   7.094 -0.3189 -0.5938 -0.8961
   31MOL   C11021770   2.409   5.467   7.871 -0.4219 -0.1191 -0.5896
   31MOL   O11121771   2.299   5.501   7.836  0.2443  0.5222 -0.3770
   31MOL   C11221772   2.440   5.472   0.138 -0.2975 -0.3380 -0.1138
   31MOL   C11321773   2.549   5.396   0.188 -0.1010  0.4078  0.4272
   31MOL   C11421774   2.561   5.377   0.328 -0.4205 -0.4400  0.8310
   31MOL   C11521775   2.477   5.448   0.413 -0.5493 -0.9269 -0.4847
   31MOL   C11621776   2.484   5.424   0.565  0.3574  0.6588  0.2271
   31MOL   O11721777   2.582   5.374   0.614  0.3978  0.4664 -0.1007
   31MOL   N11821778   2.378   5.469   0.631 -0.0930 -0.4407  0.2445
   31MOL   C11921779   2.357   5.490   0.767 -0.8418 -0.1554  1.0547
   31MOL   C12021780   2.332   5.642   0.804 -0.1061  0.0927  0.6843
   31MOL   C12121781   2.271   5.650   0.939 -0.5367  0.2395 -0.6255
   31MOL   C12221782   2.243   5.793   0.982 -0.2255 -0.3671 -0.1780
   31MOL   C12321783   2.148   5.874   0.889 -0.4087 -0.7940 -0.9099
   31MOL   C12421784   2.154   6.028   0.898  0.3169  0.0602  0.5706
   31MOL   N12521785   2.183   6.079   1.029  0.2402  0.1275 -0.8034
   31MOL   C12621786   2.382   5.540   0.362 -0.7090 -0.2962 -0.2118
   31MOL   C12721787   2.356   5.545   0.223  0.4143  0.5164 -0.2818
   31MOL   H12821788   2.610   5.329   0.131  0.1767  0.2368  0.9204
   31MOL   H12921789   2.638   5.320   0.379 -1.1329 -2.5529 -0.3850
   31MOL   H13021790   2.301   5.499   0.572  2.4017  1.1164 -2.3329
   31MOL   H13121791   2.271   5.429   0.794 -0.6637 -1.0367 -0.3512
   31MOL   H13221792   2.439   5.461   0.833 -0.5730  1.5241  1.5036
   31MOL   H13321793   2.265   5.678   0.726  1.4878  1.9194  0.1002
   31MOL   H13421794   2.426   5.698   0.796 -0.4035  0.2910 -1.7102
   31MOL   H13521795   2.178   5.593   0.945 -1.0590  1.1040 -0.5355
   31MOL   H13621796   2.335   5.604   1.014  0.8883  3.9067  0.5258
   31MOL   H13721797   2.335   5.851   0.973  0.8455 -2.1302 -0.9251
   31MOL   H13821798   2.220   5.795   1.088 -1.4141 -2.3751 -0.3814
   31MOL   H13921799   2.045   5.839   0.900 -1.7431  2.8831 -1.1151
   31MOL   H14021800   2.172   5.851   0.785 -0.6039 -0.4564 -1.0282
   31MOL   H14121801   2.244   6.057   0.844  2.2834  0.2929  3.8066
   31MOL   H14221802   2.069   6.080   0.856 -0.3257 -0.0688  1.7019
   31MOL   H14321803   2.281   6.074   1.052 -0.1912  0.3300  1.0920
   31MOL   H14421804   2.323   5.601   0.428 -1.2584  1.4165 -2.2265
   31MOL   H14521805   2.275   5.605   0.183  0.5355  1.2385  0.5452
   31MOL   C14621806   2.096   6.115   1.121 -0.3754  0.0151  0.0549
   31MOL   O14721807   1.977   6.112   1.100 -0.2648  0.0028 -0.2787
   31MOL   C14821808   2.155   6.149   1.257 -0.3643 -0.8105 -0.0735
   31MOL   C14921809   2.068   6.178   1.372  0.5107 -0.6421  0.2707
   31MOL   C15021810   2.122   6.207   1.498 -0.3940  0.0767  0.2116
   31MOL   C15121811   2.262   6.217   1.507  0.7252 -0.0098 -0.9361
   31MOL   C15221812   2.316   6.230   1.642  0.5251  0.3421 -0.2403
   31MOL   O15321813   2.266   6.171   1.734 -0.0652 -0.4637  0.5653
   31MOL   N15421814   2.423   6.305   1.659  0.2293 -0.7233 -0.7355
   31MOL   C15521815   2.499   6.291   1.783  0.3995  0.0976 -0.2544
   31MOL   C15621816   2.645   6.234   1.761  0.1326 -0.2062 -0.0909
   31MOL   C15721817   2.639   6.097   1.702  0.6455  0.5219 -0.6764
   31MOL   C15821818   2.781   6.048   1.669  0.4145 -0.0912 -1.1761
   31MOL   C15921819   2.830   6.116   1.543 -0.0523 -0.0948  0.5995
   31MOL   C16021820   2.966   6.069   1.478  0.1558  0.6831 -0.4021
   31MOL   N16121821   3.076   6.159   1.519  0.9740  0.7130  0.1716
   31MOL   C16221822   2.345   6.194   1.399  0.5418  0.0564  0.4463
   31MOL   C16321823   2.294   6.165   1.273  0.4125  1.3992 -0.0652
   31MOL   H16421824   1.960   6.171   1.362  0.5114 -0.1346 -0.1206
   31MOL   H16521825   2.050   6.222   1.578  0.0505 -2.2273  1.0855
   31MOL   H16621826   2.459   6.360   1.582 -0.9725  0.7597 -0.2747
   31MOL   H16721827   2.510   6.393   1.821 -2.9623  1.0219 -1.6253
   31MOL   H16821828   2.456   6.236   1.866 -1.3945  0.5009 -0.9053
   31MOL   H16921829   2.687   6.227   1.861 -1.5125  0.5114  0.6723
   31MOL   H17021830   2.697   6.316   1.712  0.5268 -0.3437  0.0991
   31MOL   H17121831   2.588   6.039   1.778 -1.1160  1.6480 -0.9609
   31MOL   H17221832   2.581   6.085   1.611 -0.2814 -1.2081  0.1209
   31MOL   H17321833   2.774   5.940   1.661  0.9393 -0.3652  1.6008
   31MOL   H17421834   2.853   6.065   1.749 -1.0397  3.0402 -0.4311
   31MOL   H17521835   2.837   6.222   1.568  0.4130 -0.1430  0.6680
   31MOL   H17621836   2.754   6.119   1.465 -0.8758 -1.7226  1.3098
   31MOL   H17721837   2.998   5.968   1.506  0.2817  1.2270  1.5456
   31MOL   H17821838   2.947   6.064   1.371  0.3935  0.1004 -0.4205
   31MOL   H17921839   3.055   6.248   1.561  0.3084  1.5683 -1.9499
   31MOL   H18021840   2.450   6.204   1.421  0.2376  2.6453  0.9524
   31MOL   H18121841   2.360   6.152   1.189 -1.4156 -0.7222 -1.2484
   31MOL   C18221842   3.200   6.136   1.485  0.1985 -0.6428 -0.1781
   31MOL   O18321843   3.241   6.038   1.430 -0.7676  0.2781 -0.6396
   31MOL   C18421844   3.298   6.239   1.526  0.5820  0.5930  0.5742
   31MOL   C18521845   3.334   6.339   1.438 -0.3503  0.4999 -0.2816
   31MOL   C18621846   3.413   6.448   1.476 -0.1470  0.7584  0.0410
   31MOL   C18721847   3.470   6.450   1.603  0.7523  0.0489  0.1103
   31MOL   C18821848   3.548   6.569   1.632  0.0559 -0.5096 -0.3331
   31MOL   O18921849   3.554   6.674   1.568  0.3862  0.0563  0.0493
   31MOL   N19021850   3.606   6.553   1.747 -0.0774  0.2306  0.1834
   31MOL   C19121851   3.685   6.659   1.808 -0.1540 -0.6332  0.0092
   31MOL   C19221852   3.599   6.770   1.871  0.6640 -0.1201 -0.5467
   31MOL   C19321853   3.678   6.880   1.937 -0.9889 -0.4942 -0.2950
   31MOL   C19421854   3.753   6.972   1.833  0.2275  0.3601 -0.2666
   31MOL   C19521855   3.808   7.091   1.910  0.1604  1.0417  0.1412
   31MOL   C19621856   3.879   7.187   1.829 -0.6920 -0.6528  0.2532
   31MOL   N19721857   3.908   7.300   1.921 -0.5288  0.5317 -0.2478
   31MOL   C19821858   3.425   6.354   1.695 -0.4658  0.1893 -0.2599
   31MOL   C19921859   3.338   6.250   1.657 -0.3241 -0.3187  0.6337
   31MOL   H20021860   3.286   6.353   1.342 -0.6489  0.7369 -0.0993
   31MOL   H20121861   3.429   6.534   1.413 -1.5161  2.3635  1.8081
   31MOL   H20221862   3.598   6.457   1.777 -1.2625 -0.4812 -2.2523
   31MOL   H20321863   3.729   6.614   1.897 -3.1416 -2.3433  0.6973
   31MOL   H20421864   3.767   6.692   1.744 -1.4338 -0.0489 -1.3560
   31MOL   H20521865   3.525   6.736   1.943  0.9698  0.8126  0.2202
   31MOL   H20621866   3.542   6.821   1.793 -1.1833 -3.7097 -1.6799
   31MOL   H20721867   3.611   6.939   2.000 -0.3103 -1.6397  1.5533
   31MOL   H20821868   3.754   6.837   2.003 -2.0758 -0.6829  0.8411
   31MOL   H20921869   3.685   7.010   1.756  0.1722  1.4392  0.3109
   31MOL   H21021870   3.830   6.911   1.785  0.4434  1.0909 -0.8656
   31MOL   H21121871   3.875   7.054   1.987  0.6927  0.2618 -0.6849
   31MOL   H21221872   3.725   7.143   1.958  0.5024  0.2674  1.5975
   31MOL   H21321873   3.972   7.143   1.792  0.9681  0.2684  3.1306
   31MOL   H21421874   3.809   7.225   1.755  0.4895 -0.9666 -1.0456
   31MOL   H21521875   3.861   7.309   2.010  0.1435 -0.6599  0.2322
   31MOL   H21621876   3.460   6.374   1.795  1.8840 -2.3379 -0.5158
   31MOL   H21721877   3.302   6.173   1.724  1.3936 -2.3463 -0.7004
   31MOL   C21821878   3.996   7.399   1.886 -0.5986  0.1214 -0.2876
   31MOL   O21921879   4.069   7.393   1.786  0.5872 -0.3143 -0.2258
   31MOL   C22021880   3.993   7.522   1.980  0.3481 -0.2727  0.5179
   31MOL   C22121881   3.906   7.525   2.097  0.1290  0.2820 -0.4310
   31MOL   C22221882   3.899   7.645   2.168 -0.3144 -0.2121 -0.0896
   31MOL   C22321883   3.986   7.745   2.141  0.0285  0.0522 -0.3491
   31MOL   C22421884   3.971   7.874   2.211  0.0582 -0.1745 -0.4583
   31MOL   O22521885   3.863   0.038   2.221  0.2068  0.9853 -0.4254
   31MOL   N22621886   4.082   0.050   2.262  0.1809 -0.1633  0.6748
   31MOL   C22721887   4.093   0.187   2.314  0.6192  0.5040  0.2297
   31MOL   C22821888   4.125   0.294   2.210 -0.6416  1.2654  0.3198
   31MOL   C22921889   4.239   0.270   2.102 -0.0664  0.8075  0.2707
   31MOL   C23021890   4.372   0.243   2.172 -0.4343 -0.1268  0.1864
   31MOL   C23121891   4.479   0.219   2.068 -0.2294 -0.8881  0.3055
   31MOL   C23221892   4.615   0.174   2.129 -0.8047 -0.3996  0.1965
   31MOL   N23321893   4.705   0.139   2.027 -0.5893  0.2004  0.4733
   31MOL   C23421894   4.088   7.740   2.046  0.3011 -0.7744  0.1186
   31MOL   C23521895   4.077   7.630   1.958  0.3455 -0.1966  0.1286
   31MOL   H23621896   3.839   7.444   2.120 -1.1800  2.1860  2.7731
   31MOL   H23721897   3.825   7.667   2.244 -1.7538  0.0639 -1.5380
   31MOL   H23821898   4.170   0.001   2.267  0.9450  0.5525 -3.6147
   31MOL   H23921899   3.999   0.209   2.365 -0.0167  1.0885 -1.1360
   31MOL   H24021900   4.163   0.180   2.397 -0.3534 -0.0360  1.0039
   31MOL   H24121901   4.141   0.387   2.264  0.4180 -0.0673  2.3668
   31MOL   H24221902   4.031   0.306   2.156 -2.5224 -1.0370  2.8699
   31MOL   H24321903   4.207   0.182   2.047  0.0107  0.1752  1.2189
   31MOL   H24421904   4.245   0.343   2.022 -0.1302 -0.3372 -0.7953
   31MOL   H24521905   4.359   0.161   2.243 -2.2443  0.7285  0.8882
   31MOL   H24621906   4.399   0.330   2.230  0.8215  0.1353 -0.7824
   31MOL   H24721907   4.482   0.313   2.013  2.0802 -1.6957 -1.0169
   31MOL   H24821908   4.438   0.148   1.996 -1.7999  0.3754 -0.0801
   31MOL   H24921909   4.656   0.253   2.191  0.4830  0.4603 -1.6899
   31MOL   H25021910   4.597   0.091   2.198 -1.5151 -0.7985 -0.4513
   31MOL   H25121911   4.773   0.202   1.988  0.6507 -0.7188  1.1415
   31MOL   H25221912   4.154   7.825   2.035 -1.6339  0.8648  0.9302
   31MOL   H25321913   4.148   7.624   1.877  0.3167  2.2987 -0.1035
   31MOL   C25421914   4.729   0.011   1.993 -0.6419  0.5487  0.4926
   31MOL   O25521915   4.653   7.807   2.022  0.4614  0.2346  0.4856
   31MOL   C25621916   4.857   7.874   1.912  0.2524  0.5919  0.1971
   31MOL   C25721917   4.976   0.067   1.924 -0.0162 -0.1591  0.8954
   31MOL   C25821918   5.097   0.020   1.871  0.5871 -0.0074 -0.4406
   31MOL   C25921919   5.094   7.802   1.775  0.1456 -0.1065  0.4605
   31MOL   C26021920   5.212   7.763   1.690  0.6079  0.5697 -0.3575
   31MOL   O26121921   5.199   7.682   1.595 -0.0546 -0.1386  0.3578
   31MOL   N26221922   5.330   7.810   1.734 -0.5297 -0.1328  0.0230
   31MOL   C26321923   5.458   7.786   1.663 -0.6595  0.4294  0.1798
   31MOL   C26421924   5.525   0.037   1.637  0.2785  0.3321  0.0045
   31MOL   C26521925   5.452   0.125   1.528  0.1773  0.3310 -0.3738
   31MOL   C26621926   5.516   0.268   1.499  0.8853 -0.0909 -0.0875
   31MOL   C26721927   5.525   0.356   1.630 -0.1523  1.1401 -0.1311
   31MOL   C26821928   5.395   0.392   1.698  0.2050 -0.3146  0.4322
   31MOL   N26921929   5.405   0.504   1.790  0.3462 -0.1770  0.3623
   31MOL   C27021930   4.976   7.733   1.753 -0.0645 -0.2635  0.2721
   31MOL   C27121931   4.861   7.763   1.824  0.0774  0.0803  0.3078
   31MOL   H27221932   4.965   0.161   1.975  1.7154  1.7073 -2.0449
   31MOL   H27321933   5.180   0.089   1.879 -0.3183  0.8918  1.3494
   31MOL   H27421934   5.333   7.861   1.820 -0.9818 -0.3277  0.1565
   31MOL   H27521935   5.516   7.719   1.727 -3.7833 -2.1990  0.3947
   31MOL   H27621936   5.433   7.754   1.562 -0.8411  1.2340 -0.0359
   31MOL   H27721937   5.624   0.019   1.596 -0.3865 -1.7614 -0.7216
   31MOL   H27821938   5.535   0.091   1.732  0.6529  0.7165 -0.2519
   31MOL   H27921939   5.454   0.067   1.436 -2.4078 -2.1446  1.0654
   31MOL   H28021940   5.347   0.138   1.554 -0.3923 -3.9619 -0.1633
   31MOL   H28121941   5.451   0.310   1.423  0.2107  3.4156  2.3016
   31MOL   H28221942   5.614   0.251   1.454  0.5482 -2.6848  0.1088
   31MOL   H28321943   5.578   0.443   1.591  1.1093  0.0446 -0.8835
   31MOL   H28421944   5.599   0.306   1.692  0.3943 -1.7081 -2.9372
   31MOL   H28521945   5.332   0.429   1.617  1.9802  0.1801 -0.7381
   31MOL   H28621946   5.350   0.302   1.739  1.6534 -1.9206 -1.3778
   31MOL   H28721947   5.417   0.593   1.745  3.2863 -0.2689  0.8990
   31MOL   H28821948   4.980   7.646   1.688  0.3216  0.9723 -1.4054
   31MOL   H28921949   4.775   7.698   1.820 -0.5243  0.9903 -1.8690
   31MOL   C29021950   5.380   0.498   1.925  0.8162 -0.2140 -0.3300
   31MOL   O29121951   5.343   0.393   1.979  0.5180 -0.3758 -0.1956
   31MOL   C29221952   5.404   0.620   2.008  0.2700  0.0151  0.3851
   31MOL   C29321953   5.338   0.634   2.131  0.4682  0.4736 -0.4223
   31MOL   C29421954   5.335   0.750   2.203  0.2959 -0.0873  0.0707
   31MOL   C29521955   5.410   0.861   2.161 -0.6494 -0.6080  0.0703
   31MOL   C29621956   5.414   0.993   2.228  0.0246 -0.6511  0.3756
   31MOL   O29721957   5.494   1.080   2.198  0.0722 -0.0944  0.3781
   31MOL   N29821958   5.325   1.014   2.327  1.0141  0.4655  0.2684
   31MOL   C29921959   5.291   1.147   2.384  0.7746  0.6351  0.0241
   31MOL   C30021960   5.362   1.173   2.520 -1.4708  0.0153  0.3537
   31MOL   C30121961   5.358   1.313   2.585  0.2645 -0.8024 -0.3914
   31MOL   C30221962   5.425   1.423   2.512 -0.1537  0.3893 -0.7083
   31MOL   C30321963   5.483   1.538   2.596  0.0377 -0.2730  0.1601
   31MOL   C30421964   5.387   1.653   2.620  0.1668 -0.2598  0.5309
   31MOL   N30521965   5.440   1.769   2.693  0.0776 -0.1855 -0.1727
   31MOL   C30621966   5.496   0.847   2.051 -0.2267 -0.3297 -0.4773
   31MOL   C30721967   5.492   0.728   1.968  0.0731  0.3595  0.8179
   31MOL   H30821968   5.268   0.561   2.170  1.8417  0.6910  2.5537
   31MOL   H30921969   5.282   0.755   2.297  0.2293  1.2494 -0.0224
   31MOL   H31021970   5.269   0.938   2.362 -0.0898  1.8881  1.6554
   31MOL   H31121971   5.314   1.224   2.310  1.0082  1.7675  1.2544
   31MOL   H31221972   5.185   1.138   2.409  1.2191  0.3140  1.8458
   31MOL   H31321973   5.468   1.148   2.519 -1.3618  0.4797 -0.5680
   31MOL   H31421974   5.324   1.110   2.599 -0.3731  1.2594  1.9027
   31MOL   H31521975   5.255   1.340   2.607  0.6425 -2.0856  3.3231
   31MOL   H31621976   5.409   1.300   2.681 -1.0979  2.1043  0.7906
   31MOL   H31721977   5.362   1.455   2.428 -1.2456  1.2942  0.4283
   31MOL   H31821978   5.502   1.377   2.451 -0.7317 -0.7581 -0.5828
   31MOL   H31921979   5.574   1.580   2.552 -0.4146 -0.2258 -0.7550
   31MOL   H32021980   5.508   1.505   2.697 -2.2218 -2.5871 -0.0126
   31MOL   H32121981   5.352   1.686   2.522 -1.6674 -0.1059  1.2192
   31MOL   H32221982   5.297   1.623   2.673  0.3182  2.7884  2.6232
   31MOL   H32321983   5.460   1.859   2.652  0.0881 -0.5481 -0.9780
   31MOL   H32421984   5.558   0.931   2.024 -0.5964  0.8728  2.2716
   31MOL   H32521985   5.554   0.714   1.881  0.7105 -0.3251  1.3791
   31MOL   C32621986   5.463   1.765   2.825  0.3539  0.2533 -0.7525
   31MOL   O32721987   5.475   1.660   2.890  0.0582 -0.0403  0.2334
   31MOL   C32821988   5.508   1.894   2.892  0.2554  0.1008  0.3774
   31MOL   C32921989   5.587   1.883   3.006  0.6422 -0.4019 -0.0657
   31MOL   C33021990   5.649   1.998   3.064  0.2761  0.1485  0.3272
   31MOL   C33121991   5.626   2.126   3.006 -0.2729  1.1689 -0.4889
   31MOL   C33221992   5.687   2.246   3.066  0.3302  0.2637  0.5776
   31MOL   O33321993   5.761   2.239   3.162 -0.4149 -0.2142  0.4223
   31MOL   N33421994   5.636   2.363   3.023  0.5873  0.2111 -0.0697
   31MOL   C33521995   5.635   2.479   3.112 -0.2009  0.0725 -0.7528
   31MOL   C33621996   5.489   2.510   3.151 -0.1584 -0.0841  0.0928
   31MOL   C33721997   5.391   2.503   3.030 -0.0312  0.3777  0.7799
   31MOL   C33821998   5.253   2.552   3.065 -0.2174 -0.2205 -0.2551
   31MOL   C33921999   5.156   2.566   2.947 -0.6779 -0.3423 -0.3927
   31MOL   C34022000   5.031   2.649   2.984  0.2378  0.3650  0.1139
   31MOL   N34122001   5.050   2.799   2.999 -0.0003 -0.1596 -0.1649
   31MOL   C34222002   5.547   2.130   2.894 -0.4334 -0.6570 -0.0279
   31MOL   C34322003   5.493   2.017   2.833 -0.1863  0.3409  0.0006
   31MOL   H34422004   5.603   1.787   3.052  2.4231  0.0057  0.1741
   31MOL   H34522005   5.712   1.985   3.151 -0.9037  0.6525  1.2600
   31MOL   H34622006   5.605   2.367   2.927 -1.7331 -1.9543  0.5377
   31MOL   H34722007   5.703   2.468   3.196 -2.3986  1.2506  1.2402
   31MOL   H34822008   5.681   2.556   3.051 -2.2484  0.9487 -1.2391
   31MOL   H34922009   5.475   2.613   3.186  0.6175 -0.1573  0.6458
   31MOL   H35022010   5.453   2.441   3.227 -1.8395  2.3407  1.5956
   31MOL   H35122011   5.429   2.563   2.947 -1.8654  0.6267  0.0975
   31MOL   H35222012   5.382   2.400   2.997 -2.2496  0.8772 -0.2452
   31MOL   H35322013   5.249   2.654   3.103  0.1181 -0.1520 -0.4011
   31MOL   H35422014   5.207   2.482   3.134 -0.2789 -0.3605 -0.4403
   31MOL   H35522015   5.135   2.469   2.903  0.2271 -1.2411  1.1171
   31MOL   H35622016   5.211   2.624   2.872 -1.1572  2.9501  1.7146
   31MOL   H35722017   4.965   2.622   2.902 -0.6406 -1.4371  1.3850
   31MOL   H35822018   4.990   2.606   3.074 -0.2524  2.0464  0.7199
   31MOL   H35922019   5.136   2.835   3.038  0.0284  1.3913 -1.6122
   31MOL   H36022020   5.524   2.223   2.844 -0.8670 -1.1087 -0.6662
   31MOL   H36122021   5.436   2.026   2.741  2.6824 -2.4760 -2.1691
   31MOL   C36222022   4.958   2.881   2.944  0.7434  0.5224  0.7744
   31MOL   O36322023   4.849   2.844   2.905  0.2862 -0.0063  0.0704
   31MOL   C36422024   4.990   3.024   2.938 -0.9405 -0.5898 -0.1481
   31MOL   C36522025   5.042   3.098   3.045  0.4350 -0.8295 -0.3044
   31MOL   C36622026   5.076   3.235   3.026  0.1295  0.0641  0.0010
   31MOL   C36722027   5.065   3.297   2.901 -0.2495 -0.1883 -0.4676
   31MOL   C36822028   5.122   3.437   2.880 -0.3253  0.1725  0.3606
   31MOL   O36922029   5.149   3.506   2.977  0.0602  0.2993 -0.2025
   31MOL   N37022030   5.138   3.481   2.753  0.1362  1.0917  0.3518
   31MOL   C37122031   5.232   3.595   2.715  0.2905  0.4148 -0.0816
   31MOL   C37222032   5.295   3.573   2.576  0.1350 -0.0052  0.0759
   31MOL   C37322033   5.389   3.449   2.554 -0.7280 -0.3217 -0.7407
   31MOL   C37422034   5.316   3.314   2.529 -0.2876  0.3306 -0.0049
   31MOL   C37522035   5.422   3.202   2.515  0.0993  0.2531 -0.2565
   31MOL   C37622036   5.350   3.085   2.444  0.7075 -0.1603 -0.5171
   31MOL   N37722037   5.431   2.975   2.397  0.1648 -0.1446  0.1666
   31MOL   C37822038   5.012   3.223   2.793 -0.7252  0.0302  0.8249
   31MOL   C37922039   4.966   3.091   2.814 -1.0121  0.0679  0.2036
   31MOL   H38022040   5.040   3.054   3.144 -0.7339 -0.9901 -0.4005
   31MOL   H38122041   5.120   3.305   3.095 -0.5889  3.8382 -3.1533
   31MOL   H38222042   5.117   3.419   2.677  0.3782  0.4194  0.8250
   31MOL   H38322043   5.165   3.681   2.722 -3.0707 -2.1569  0.4645
   31MOL   H38422044   5.309   3.605   2.791  0.0216 -2.6651  0.6296
   31MOL   H38522045   5.340   3.660   2.530 -0.9863 -0.1406 -1.3249
   31MOL   H38622046   5.204   3.559   2.517  1.1218 -0.0514 -1.4445
   31MOL   H38722047   5.444   3.478   2.464  0.8809  1.6746  0.8517
   31MOL   H38822048   5.450   3.453   2.644 -2.8108  2.6844  0.6412
   31MOL   H38922049   5.261   3.328   2.436  0.0444 -0.2471 -0.2925
   31MOL   H39022050   5.249   3.289   2.610 -1.3762  1.8628 -0.4108
   31MOL   H39122051   5.465   3.165   2.608 -1.7972 -0.1972  0.4570
   31MOL   H39222052   5.496   3.220   2.437  0.6943 -2.0153 -0.2278
   31MOL   H39322053   5.284   3.050   2.523  2.6260 -1.0826  0.7277
   31MOL   H39422054   5.292   3.121   2.359  0.0586  0.0096 -0.0065
   31MOL   H39522055   5.520   2.996   2.354 -0.6977  0.8412 -1.1691
   31MOL   H39622056   4.994   3.268   2.697 -1.2980 -1.3868  0.2569
   31MOL   H39722057   4.921   3.045   2.727 -0.7157 -2.6651  1.4600
   31MOL   C39822058   5.397   2.849   2.404 -0.1316 -0.0048  0.0795
   31MOL   O39922059   5.288   2.818   2.454  0.0510  0.4643 -0.4643
   31MOL   C40022060   5.505   2.747   2.365 -0.3087 -0.2231  0.0680
   31MOL   C40122061   5.476   2.618   2.310  0.4156  0.2471 -0.0169
   31MOL   C40222062   5.575   2.526   2.269 -0.4144 -0.2538 -0.3062
   31MOL   C40322063   5.710   2.565   2.302  0.8598  0.3447  0.3797
   31MOL   C40422064   5.820   2.468   2.258  0.3226  0.6726 -0.4702
   31MOL   O40522065   5.898   2.425   2.339  0.2103  0.1472 -0.0324
   31MOL   N40622066   5.820   2.437   2.128 -0.5218  0.0179 -0.0403
   31MOL   C40722067   5.899   2.334   2.065 -0.2705  0.0439  0.5096
   31MOL   C40822068   6.008   2.405   1.985 -0.8817  0.7132 -0.4872
   31MOL   C40922069   6.081   2.297   1.901  0.8989  0.2239 -0.1161
   31MOL   C41022070   5.991   2.240   1.785 -0.9032 -0.0767 -0.3255
   31MOL   C41122071   6.060   2.145   1.685  0.4187 -0.2675  0.1532
   31MOL   C41222072   5.950   2.108   1.579  0.0181  0.3032 -0.2249
   31MOL   N41322073   5.981   2.000   1.500 -0.7478 -0.0702  0.0795
   31MOL   C41422074   5.743   2.692   2.356  0.0438 -0.2858 -1.0319
   31MOL   C41522075   5.642   2.782   2.392  0.8465 -0.4566 -0.2952
   31MOL   H41622076   5.375   2.582   2.304  0.5484 -0.3496  1.0202
   31MOL   H41722077   5.546   2.431   2.226  1.5363 -1.2576  0.5565
   31MOL   H41822078   5.747   2.478   2.070 -1.5064 -1.6400  0.0039
   31MOL   H41922079   5.937   2.265   2.140  0.5865  0.7789  0.7558
   31MOL   H42022080   5.827   2.289   1.996  0.4584 -0.4124  0.0480
   31MOL   H42122081   6.071   2.463   2.053 -1.6068  0.2960  0.5417
   31MOL   H42222082   5.961   2.484   1.926 -0.6908  0.6323 -0.7539
   31MOL   H42322083   6.156   2.344   1.837 -0.1654 -0.3403 -1.8420
   31MOL   H42422084   6.145   2.226   1.952  0.4005  0.9993  1.6015
   31MOL   H42522085   5.960   2.327   1.727  2.0684  0.2198 -1.5757
   31MOL   H42622086   5.902   2.195   1.828 -1.1990 -0.7483 -1.6437
   31MOL   H42722087   6.091   2.057   1.741  0.6577 -0.1057  0.2749
   31MOL   H42822088   6.152   2.178   1.638 -1.1197  0.7000 -2.2792
   31MOL   H42922089   5.854   2.091   1.628  0.8400  0.4598  1.4862
   31MOL   H43022090   5.935   2.195   1.515  1.3646  0.0299 -0.9180
   31MOL   H43122091   5.934   1.913   1.524 -0.8332 -0.3337 -0.9991
   31MOL   H43222092   5.846   2.721   2.366 -0.2171  0.0897  0.7230
   31MOL   H43322093   5.666   2.872   2.448  2.0130 -1.8682  1.5430
   31MOL   C43422094   6.039   1.998   1.379 -0.0962  0.4720  0.2614
   31MOL   O43522095   6.074   2.101   1.320 -0.2168  0.5587  0.6760
   31MOL   C43622096   6.047   1.862   1.316 -0.0025  0.4076 -0.8947
   31MOL   C43722097   6.121   1.762   1.375  0.2357 -1.0465  0.0594
   31MOL   C43822098   6.117   1.633   1.319 -0.1704 -0.0348 -0.0906
   31MOL   C43922099   6.041   1.600   1.203 -0.1286  0.6563 -0.1276
   31MOL   C44022100   6.040   1.459   1.154 -0.9041 -0.0681 -0.2082
   31MOL   O44122101   6.073   1.367   1.230  0.0428  0.0691  0.3302
   31MOL   N44222102   6.000   1.435   1.029  0.2238  0.2012  0.0654
   31MOL   C44322103   6.036   1.319   0.954  0.1876  0.2725  0.1449
   31MOL   C44422104   5.956   1.191   0.978  0.1546 -1.0936  0.2211
   31MOL   C44522105   6.026   1.068   0.912 -0.0016 -0.9378 -0.2128
   31MOL   C44622106   5.937   0.948   0.900  0.8547 -0.2714 -0.2124
   31MOL   C44722107   6.007   0.859   0.791 -1.0879 -0.2222 -0.1371
   31MOL   C44822108   5.929   0.734   0.757  0.4387  0.8399 -0.1116
   31MOL   N44922109   6.004   0.625   0.690 -0.4916  0.8017 -0.5565
   31MOL   C45022110   5.958   1.703   1.151 -0.1442 -0.4462  0.1176
   31MOL   C45122111   5.952   1.832   1.210  0.8624 -0.0241  0.0171
   31MOL   H45222112   6.185   1.762   1.462  0.0517 -0.7988  0.1954
   31MOL   H45322113   6.178   1.558   1.369 -0.2249  0.3668  0.5949
   31MOL   H45422114   5.971   1.516   0.975  0.3511 -0.0076 -0.3106
   31MOL   H45522115   6.032   1.330   0.845  0.3525 -1.0495 -0.0046
   31MOL   H45622116   6.142   1.301   0.972  0.1044 -1.5632 -0.9620
   31MOL   H45722117   5.853   1.210   0.950  0.3920  0.2235  0.2151
   31MOL   H45822118   5.954   1.176   1.086  2.7232 -1.0556  0.3099
   31MOL   H45922119   6.044   1.098   0.809 -0.6165  0.1189 -0.0152
   31MOL   H46022120   6.126   1.051   0.951  0.1150  1.4154  0.5703
   31MOL   H46122121   5.835   0.978   0.877  0.5217  0.9880  2.7036
   31MOL   H46222122   5.935   0.908   1.002 -0.5117  1.1990  0.3581
   31MOL   H46322123   6.105   0.837   0.833 -2.2123  0.7959  3.1432
   31MOL   H46422124   6.018   0.911   0.695 -3.6411  0.7603  0.0524
   31MOL   H46522125   5.923   0.689   0.856  2.1078 -1.1260 -0.8755
   31MOL   H46622126   5.824   0.740   0.726 -0.1745  1.7229  2.0337
   31MOL   H46722127   6.018   0.547   0.752 -0.9586  1.9228  0.9979
   31MOL   H46822128   5.904   1.684   1.059 -0.1131  0.4477 -0.0937
   31MOL   H46922129   5.881   1.908   1.181  3.2119  1.5400 -1.8650
   31MOL   C47022130   6.088   0.627   0.587 -0.6830 -0.5123  0.0158
   31MOL   O47122131   6.120   0.735   0.532 -0.4121 -0.0264  0.2089
   31MOL   C47222132   6.143   0.502   0.537  0.4086 -0.0011 -0.0944
   31MOL   C47322133   6.047   0.397   0.509  0.7001  0.3577 -0.4700
   31MOL   C47422134   6.094   0.273   0.458  0.4539  0.5745  0.4662
   31MOL   C47522135   6.226   0.256   0.413  0.3627  0.6754  0.0668
   31MOL   C47622136   6.269   0.119   0.358 -0.1684 -0.1013 -0.3236
   31MOL   O47722137   6.242   0.017   0.415 -0.0103  0.0960  0.1379
   31MOL   N47822138   6.334   0.142   0.244  0.1164  0.7307 -0.0545
   31MOL   C47922139   6.413   0.042   0.166 -0.8677 -0.3300 -0.1324
   31MOL   C48022140   6.501   0.104   0.060  0.0605  0.0838  0.5262
   31MOL   C48122141   6.603   0.004   7.885  0.2644  0.1424  0.3050
   31MOL   C48222142   6.564   7.751   7.848 -0.3391 -0.0996  0.4309
   31MOL   C48322143   6.466   7.745   7.726 -0.5099  0.2656  0.5781
   31MOL   C48422144   6.391   7.612   7.691 -0.9245 -0.4089  0.5143
   31MOL   N48522145   6.281   7.592   7.789  0.3283 -0.2285 -0.1991
   31MOL   C48622146   6.325   0.361   0.437 -0.0432  0.0402  0.0124
   31MOL   C48722147   6.281   0.481   0.501 -0.2052 -0.3605 -0.3674
   31MOL   H48822148   5.943   0.410   0.533  0.8597  0.6123  0.0928
   31MOL   H48922149   6.015   0.201   0.443 -0.5375  1.4988  1.1912
   31MOL   H49022150   6.324   0.234   0.204  0.6994  0.6679 -0.3559
   31MOL   H49122151   6.466   7.885   0.251  1.2566  2.6974  0.1764
   31MOL   H49222152   6.344   7.858   0.120 -0.9535 -0.9826  0.9633
   31MOL   H49322153   6.566   0.187   0.085  1.9209 -1.4895  1.0938
   31MOL   H49422154   6.441   0.146   7.865  1.2042  0.0862 -0.3403
   31MOL   H49522155   6.660   0.043   7.801 -0.1215 -3.0636 -1.5389
   31MOL   H49622156   6.681   0.004   0.075  0.5396  2.5526  0.0443
   31MOL   H49722157   6.536   7.707   0.058 -0.3204 -2.5253 -0.6394
   31MOL   H49822158   6.649   7.688   7.821  0.1306  0.8697 -0.3826
   31MOL   H49922159   6.516   7.764   7.631 -1.2367 -0.3978  0.0587
   31MOL   H50022160   6.394   7.824   7.743 -3.1917 -1.2655 -2.9646
   31MOL   H50122161   6.333   7.632   7.601 -0.3357  0.2494  0.2764
   31MOL   H50222162   6.473   7.541   7.682  0.3514  1.1244 -0.1837
   31MOL   H50322163   6.184   7.615   7.772  0.1717 -0.8411 -0.1492
   31MOL   H50422164   6.429   0.346   0.411 -0.4636 -3.0737 -0.0371
   31MOL   H50522165   6.349   0.565   0.506 -1.2737  0.5552 -0.9772
   31MOL   C50622166   6.291   7.560   0.030 -0.7198  0.3714  0.2991
   31MOL   O50722167   6.398   7.529   0.088  0.6864  0.3351  0.5763
   31MOL   C50822168   6.165   7.551   0.108  0.4284 -0.0351  0.3931
   31MOL   C50922169   6.148   7.637   0.220 -0.1647  0.3637 -0.6087
   31MOL   C51022170   6.033   7.637   0.298 -0.0117  0.3549 -1.0173
   31MOL   C51122171   5.939   7.528   0.269  0.5611  0.5075  0.1544
   31MOL   C51222172   5.823   7.512   0.363  0.2546 -0.2536 -0.8453
   31MOL   O51322173   5.723   7.454   0.317  0.2942 -0.1076 -0.3218
   31MOL   N51422174   5.832   7.560   0.488 -0.5611  0.2093 -0.1439
   31MOL   C51522175   5.715   7.571   0.575 -0.7141 -0.4768 -0.1717
   31MOL   C51622176   5.731   7.682   0.681 -1.2250  0.0272 -0.1526
   31MOL   C51722177   5.605   7.705   0.774  0.4694  0.0746  0.2721
   31MOL   C51822178   5.500   7.797   0.715  0.0899 -0.2369 -0.2271
   31MOL   C51922179   5.544   0.056   0.709  0.3725 -0.2940  0.4268
   31MOL   C52022180   5.447   0.143   0.616  0.0223 -0.4256  0.0694
   31MOL   N52122181   5.492   0.282   0.607 -0.7530  0.5682  0.5032
   31MOL   C52222182   5.947   7.452   0.148  0.3534  0.3775 -0.4147
   31MOL   C52322183   6.068   7.461   0.075  0.4179 -0.2191 -0.1616
   31MOL   H52422184   6.228   7.709   0.230 -1.8652  1.9890  1.9289
   31MOL   H52522185   6.022   7.699   0.386 -1.2878 -0.3685 -0.6485
   31MOL   H52622186   5.920   7.596   0.521 -0.9756  0.1580  1.0651
   31MOL   H52722187   5.632   7.589   0.507  1.3421 -1.0950 -2.9334
   31MOL   H52822188   5.680   7.482   0.628 -2.1238 -1.6148 -2.9526
   31MOL   H52922189   5.759   7.778   0.638 -1.0186 -0.1937 -0.5148
   31MOL   H53022190   5.816   7.660   0.747 -2.4188 -2.2841  0.6664
   31MOL   H53122191   5.551   7.613   0.795  0.9033 -0.9598 -2.8729
   31MOL   H53222192   5.646   7.733   0.871 -0.7943  1.8572  0.3098
   31MOL   H53322193   5.409   7.793   0.776 -0.3790  3.0794 -0.5871
   31MOL   H53422194   5.460   7.769   0.617  0.7203 -0.9487 -0.2832
   31MOL   H53522195   5.648   0.071   0.681  0.3794 -0.3394  0.4272
   31MOL   H53622196   5.548   0.086   0.814 -0.1584 -0.8691  0.6121
   31MOL   H53722197   5.440   0.097   0.517 -0.1692 -2.5626  1.0498
   31MOL   H53822198   5.348   0.141   0.662  0.1142  0.5862  0.3199
   31MOL   H53922199   5.528   0.299   0.514 -2.3715 -1.8301 -0.6363
   31MOL   H54022200   5.869   7.382   0.124  1.6652 -2.1744  2.4281
   31MOL   H54122201   6.086   7.394   7.879 -2.0288 -0.0791 -0.8370
   31MOL   C54222202   5.478   0.369   0.704 -0.6692  0.9892 -0.1587
   31MOL   O54322203   5.438   0.334   0.818 -0.3079  0.3827  0.3350
   31MOL   C54422204   5.510   0.510   0.669  0.3554 -0.5935  0.0335
   31MOL   C54522205   5.585   0.542   0.551 -0.5505  0.2710  0.1233
   31MOL   C54622206   5.620   0.675   0.526 -0.5250  0.4281  0.4108
   31MOL   C54722207   5.588   0.774   0.621  0.5881 -0.6082 -0.4345
   31MOL   C54822208   5.636   0.918   0.607 -0.8447 -0.2995 -0.5490
   31MOL   O54922209   5.611   0.997   0.701  0.0316  0.6642 -0.4101
   31MOL   N55022210   5.714   0.956   0.503 -0.2893  0.0846 -0.0659
   31MOL   C55122211   5.791   1.086   0.495  0.0294  1.0416 -0.2648
   31MOL   C55222212   5.891   1.094   0.381  0.2859  0.3749  0.8943
   31MOL   C55322213   6.017   1.004   0.388  0.9111 -0.5274  0.2095
   31MOL   C55422214   6.138   1.054   0.307  0.2892  0.5122  0.8682
   31MOL   C55522215   6.264   0.968   0.336 -0.0653 -1.1121  0.0019
   31MOL   C55622216   6.406   1.011   0.304 -0.1872  0.3378 -0.6115
   31MOL   N55722217   6.417   1.070   0.167  0.1385  0.7061  0.2632
   31MOL   C55822218   5.507   0.743   0.735  0.1499  0.3421 -0.1434
   31MOL   C55922219   5.458   0.609   0.753 -0.5678 -0.1958 -0.5622
   31MOL   H56022220   5.627   0.476   0.477 -3.3224 -0.3048 -1.0117
   31MOL   H56122221   5.674   0.701   0.436 -0.2028  0.4230  0.6013
   31MOL   H56222222   5.735   0.890   0.429 -1.3693 -0.9706  0.5503
   31MOL   H56322223   5.728   1.175   0.501  0.5502  1.2756  2.0396
   31MOL   H56422224   5.842   1.102   0.590 -1.7604 -0.1238  0.9054
   31MOL   H56522225   5.918   1.199   0.386 -1.0459  0.7016  1.3372
   31MOL   H56622226   5.836   1.061   0.292  1.3944 -0.3563  0.4573
   31MOL   H56722227   6.034   0.976   0.491  3.6089 -1.9033 -0.5489
   31MOL   H56822228   5.985   0.907   0.351 -1.2125  0.4019 -0.4820
   31MOL   H56922229   6.149   1.159   0.335  2.8656  0.3777  0.4688
   31MOL   H57022230   6.124   1.049   0.199  0.0159  0.0615  0.9251
   31MOL   H57122231   6.254   0.868   0.293  2.8424 -0.1085 -3.2216
   31MOL   H57222232   6.268   0.964   0.445  1.4391  2.1893  0.1383
   31MOL   H57322233   6.449   1.074   0.381  0.8509 -0.8304 -0.2007
   31MOL   H57422234   6.464   0.919   0.294  0.4388  0.8060 -1.3570
   31MOL   H57522235   6.432   1.170   0.164 -1.3642  0.9016 -2.6067
   31MOL   H57622236   5.491   0.821   0.808 -0.2065  0.8381 -0.7441
   31MOL   H57722237   5.412   0.590   0.848 -0.3386  0.9322 -0.2126
   31MOL   C57822238   6.435   1.009   0.050 -0.0337 -0.0177 -0.5556
   31MOL   O57922239   6.431   0.888   0.030  0.3612  0.3123 -0.4377
   31MOL   C58022240   6.436   1.106   7.817  0.1138 -0.1990  0.2182
   31MOL   C58122241   6.390   1.064   7.690  0.3319  0.0666  0.1651
   31MOL   C58222242   6.391   1.149   7.576 -0.0701  0.2887  0.0984
   31MOL   C58322243   6.451   1.276   7.587  0.3542  0.3460 -0.1271
   31MOL   C58422244   6.451   1.352   7.460 -0.4893 -0.1482 -0.2397
   31MOL   O58522245   6.347   1.401   7.420  0.6854  0.1504  0.4446
   31MOL   N58622246   6.566   1.369   7.388  0.4732  0.3692 -0.7348
   31MOL   C58722247   6.576   1.432   7.262  0.1478  0.8270 -0.3759
   31MOL   C58822248   6.699   1.524   7.246 -0.1714 -0.1761 -0.0256
   31MOL   C58922249   6.723   1.564   7.098  0.0816  1.0222 -0.2375
   31MOL   C59022250   6.862   1.623   7.085  0.2500  0.1454 -0.1176
   31MOL   C59122251   6.868   1.763   7.139 -0.2999  0.0228  0.0671
   31MOL   C59222252   6.995   1.846   7.120 -0.7530 -0.4667  0.1271
   31MOL   N59322253   6.971   1.982   7.163  0.5125 -0.7069  0.2952
   31MOL   C59422254   6.494   1.330   7.714  0.2681  0.1553  0.2821
   31MOL   C59522255   6.486   1.242   7.827 -0.0109 -0.7581  0.2916
   31MOL   H59622256   6.364   0.960   7.675  1.3003 -0.0542 -0.7235
   31MOL   H59722257   6.348   1.109   7.486 -0.7231 -1.4043  1.1399
   31MOL   H59822258   6.644   1.322   7.431 -0.2055 -2.0896 -2.0314
   31MOL   H59922259   6.574   1.348   7.192  0.0768 -0.9605  1.7256
   31MOL   H60022260   6.490   1.493   7.234 -1.2694 -0.5931  0.8189
   31MOL   H60122261   6.778   1.467   7.294  0.0543 -0.4542 -0.7267
   31MOL   H60222262   6.676   1.609   7.311 -1.6476 -0.5950  0.0395
   31MOL   H60322263   6.706   1.474   7.039 -0.0862  0.4070  0.7310
   31MOL   H60422264   6.643   1.625   7.055 -0.1377  0.8216 -0.1202
   31MOL   H60522265   6.876   1.634   6.978 -0.9160 -1.7306 -0.4823
   31MOL   H60622266   6.935   1.560   7.135 -1.4242 -2.4182 -0.7944
   31MOL   H60722267   6.838   1.757   7.244 -1.9085  1.7489 -0.2811
   31MOL   H60822268   6.787   1.823   7.100 -0.6595 -0.7518 -0.3945
   31MOL   H60922269   7.086   1.815   7.172  2.1091  3.4629 -2.2760
   31MOL   H61022270   7.025   1.852   7.015  0.2698  2.5212  0.5342
   31MOL   H61122271   6.984   1.996   7.262 -1.8598  2.2748  0.2730
   31MOL   H61222272   6.543   1.426   7.715  2.0356 -0.7208  2.4778
   31MOL   H61322273   6.520   1.276   0.037 -0.6284 -1.3644  0.7240
   31MOL   C61422274   6.919   2.088   7.098 -0.8880 -0.0810  0.0998
   31MOL   O61522275   6.884   2.083   6.978  0.6931  0.1826  0.3198
   31MOL   C61622276   6.928   2.222   7.169  1.0868 -0.4741 -0.2899
   31MOL   C61722277   6.903   2.340   7.095  0.3395 -0.8805 -0.4507
   31MOL   C61822278   6.926   2.464   7.159 -0.0199 -0.0649  0.0116
   31MOL   C61922279   6.969   2.478   7.299 -0.1477 -0.3643 -0.6189
   31MOL   C62022280   6.997   2.614   7.348  0.4035 -0.6136 -0.1606
   31MOL   O62122281   6.997   2.708   7.270 -0.3369 -0.3284 -0.1246
   31MOL   N62222282   7.025   2.627   7.479 -0.1173 -0.8834 -0.2477
   31MOL   C62322283   7.029   2.759   7.548 -0.2046  0.0151  0.3365
   31MOL   C62422284   6.890   2.826   7.552  0.0803  0.6643  0.2556
   31MOL   C62522285   6.903   2.960   7.627 -0.8708 -0.9212 -0.7720
   31MOL   C62622286   6.780   3.052   7.616  0.2014  0.1925 -0.4709
   31MOL   C62722287   6.662   3.021   7.718 -0.1431  0.5969 -0.0695
   31MOL   C62822288   6.565   3.139   7.718 -0.1558  0.1841  0.4847
   31MOL   N62922289   6.446   3.110   7.788  0.1174 -0.2692 -0.1861
   31MOL   C63022290   6.991   2.358   7.371 -0.0327 -0.1822  1.2089
   31MOL   C63122291   6.968   2.230   7.312  0.3625  0.1711  0.7698
   31MOL   H63222292   6.868   2.339   6.993  0.0325 -1.8524 -0.3434
   31MOL   H63322293   6.891   2.547   7.099 -0.0284 -1.1363 -1.4776
   31MOL   H63422294   7.026   2.547   7.541 -1.6466  0.2681  1.3130
   31MOL   H63522295   7.071   2.761   7.648 -1.0687  1.4546  0.6980
   31MOL   H63622296   7.090   2.828   7.489 -0.9421  0.7093  0.3636
   31MOL   H63722297   6.814   2.769   7.607  1.2092 -0.7902  0.3164
   31MOL   H63822298   6.849   2.848   7.453  1.7925  0.5929 -0.4771
   31MOL   H63922299   6.917   2.926   7.730  1.0721  2.9249  0.3276
   31MOL   H64022300   6.992   3.011   7.589  0.6507 -3.2679 -0.4779
   31MOL   H64122301   6.743   3.075   7.517  1.0331 -1.8031 -1.2825
   31MOL   H64222302   6.801   3.152   7.653  0.5502 -0.2124  0.4649
   31MOL   H64322303   6.700   3.012   7.820  1.4934 -2.9691 -0.9260
   31MOL   H64422304   6.626   2.921   7.695  3.4698 -0.7705 -0.1547
   31MOL   H64522305   6.605   3.234   7.752 -2.4008  0.4314  2.5322
   31MOL   H64622306   6.540   3.165   7.615  0.6532  1.0966  0.5126
   31MOL   H64722307   6.376   3.064   7.731 -1.4436  3.4830 -1.4079
   31MOL   H64822308   7.020   2.357   7.475  1.5443  1.5590  0.8061
   31MOL   H64922309   6.981   2.136   7.364  3.4316 -0.2792 -0.6981
   31MOL   C65022310   6.426   3.143   0.035  0.1809  0.3518  0.3006
   31MOL   O65122311   6.502   3.223   0.095  0.4393  0.5266  1.1843
   31MOL   C65222312   6.300   3.077   0.099  0.3798 -0.7665  0.4017
   31MOL   C65322313   6.242   2.960   0.050 -0.3433 -0.4457 -0.0345
   31MOL   C65422314   6.127   2.905   0.105  0.7660 -0.8882 -0.1094
   31MOL   C65522315   6.070   2.962   0.219  0.4568 -0.1170 -0.1817
   31MOL   C65622316   5.956   2.891   0.285 -0.3059 -0.3900 -0.7116
   31MOL   O65722317   5.859   2.947   0.335  0.1993 -0.2413  0.0573
   31MOL   N65822318   5.969   2.757   0.295  0.2975 -0.2432 -0.3542
   31MOL   C65922319   5.880   2.683   0.381 -0.1877 -0.3315 -0.2146
   31MOL   C66022320   5.927   2.679   0.524 -1.0277  0.0039 -0.4321
   31MOL   C66122321   5.901   2.554   0.603 -0.2627 -0.0225 -0.3510
   31MOL   C66222322   5.964   2.577   0.735  0.3897  0.2115  0.0893
   31MOL   C66322323   5.921   2.475   0.839 -0.8173 -0.2493 -0.1930
   31MOL   C66422324   5.778   2.500   0.891 -0.2565 -0.0613 -0.2788
   31MOL   N66522325   5.735   2.414   1.003  0.2112  0.1261  0.6161
   31MOL   C66622326   6.127   3.080   0.271  0.4050  0.3337  0.9496
   31MOL   C66722327   6.239   3.139   0.209  0.0995 -0.9608  0.0589
   31MOL   H66822328   6.278   2.909   7.847  2.0795 -3.0728  2.3750
   31MOL   H66922329   6.070   2.824   0.062  0.8500 -0.3955 -1.1586
   31MOL   H67022330   6.052   2.705   0.269  0.8017 -1.2757  3.0925
   31MOL   H67122331   5.777   2.718   0.378  0.0193  0.2870 -0.2085
   31MOL   H67222332   5.871   2.580   0.345  0.3098 -0.2228 -0.6623
   31MOL   H67322333   5.880   2.763   0.576 -1.2830 -1.5551  1.9234
   31MOL   H67422334   6.033   2.704   0.528 -1.3526  1.2168  1.3496
   31MOL   H67522335   5.793   2.549   0.616 -0.5502  3.1249 -1.0475
   31MOL   H67622336   5.947   2.467   0.557 -2.0488 -1.5691  0.7244
   31MOL   H67722337   5.946   2.678   0.772  0.7140  1.2638 -2.5321
   31MOL   H67822338   6.073   2.581   0.735  0.3511  2.6392 -2.1863
   31MOL   H67922339   5.991   2.504   0.916  1.0619 -0.8186 -1.6507
   31MOL   H68022340   5.945   2.374   0.807  0.0367  0.0848 -0.6021
   31MOL   H68122341   5.768   2.603   0.924  2.0807  0.4003 -0.9538
   31MOL   H68222342   5.707   2.475   0.812  2.1034 -1.5432 -1.9981
   31MOL   H68322343   5.646   2.368   0.990  0.3061  0.1772 -0.2223
   31MOL   H68422344   6.084   3.124   0.359 -0.0238  1.5065  0.1582
   31MOL   H68522345   6.281   3.230   0.249 -0.0597 -0.9924  0.2982
   31MOL   C68622346   5.776   2.431   1.132  0.1920  0.0719  0.8037
   31MOL   O68722347   5.862   2.510   1.170 -0.5034  0.6072 -0.3916
   31MOL   C68822348   5.699   2.338   1.224 -0.0643 -0.5813 -0.1480
   31MOL   C68922349   5.603   2.393   1.311 -0.1544 -0.6929  0.2598
   31MOL   C69022350   5.529   2.318   1.402 -0.0245  0.4152 -0.4015
   31MOL   C69122351   5.564   2.179   1.424 -0.1985 -0.4312 -0.5901
   31MOL   C69222352   5.473   2.100   1.524  0.5146  0.0150  0.2365
   31MOL   O69322353   5.397   2.158   1.600 -0.1532 -0.7809  0.7278
   31MOL   N69422354   5.481   1.970   1.516 -0.4656  0.0849 -0.0004
   31MOL   C69522355   5.396   1.877   1.590  0.0429 -0.1979  0.3888
   31MOL   C69622356   5.479   1.801   1.694 -1.0350  0.1209  0.5382
   31MOL   C69722357   5.408   1.687   1.761 -0.9508  0.2445 -0.2183
   31MOL   C69822358   5.490   1.651   1.885  0.0819 -0.2623 -0.5881
   31MOL   C69922359   5.444   1.728   2.013  0.7371 -0.2123  1.1766
   31MOL   C70022360   5.482   1.662   2.140  0.1600  0.0087  0.4554
   31MOL   N70122361   5.434   1.739   2.250  0.6088  0.4781 -0.1012
   31MOL   C70222362   5.666   2.123   1.349 -0.7913 -0.4830  0.6904
   31MOL   C70322363   5.730   2.202   1.249 -0.1260  0.7770 -0.6297
   31MOL   H70422364   5.582   2.499   1.307  0.6862 -0.5721 -3.2729
   31MOL   H70522365   5.441   2.362   1.445 -0.5816  0.0999 -1.2038
   31MOL   H70622366   5.543   1.932   1.446 -2.1054  0.2150 -1.5391
   31MOL   H70722367   5.306   1.932   1.618 -0.4511 -0.2140 -1.1238
   31MOL   H70822368   5.355   1.804   1.521 -0.1189 -1.0345  1.3630
   31MOL   H70922369   5.504   1.879   1.766 -2.5979  2.5578 -1.4775
   31MOL   H71022370   5.576   1.780   1.650 -0.7890  2.2176  0.0247
   31MOL   H71122371   5.301   1.707   1.775 -1.2791 -0.6228 -1.3833
   31MOL   H71222372   5.398   1.602   1.693 -2.4355  0.9417 -0.9009
   31MOL   H71322373   5.594   1.672   1.864 -0.0428  1.0603  0.0556
   31MOL   H71422374   5.469   1.547   1.910  1.1764  0.3610  3.3492
   31MOL   H71522375   5.335   1.734   2.008  0.8473  0.8827 -0.0588
   31MOL   H71622376   5.483   1.830   2.013 -0.7229  0.3693 -0.2635
   31MOL   H71722377   5.437   1.563   2.146  0.9116 -0.4017 -0.4889
   31MOL   H71822378   5.590   1.649   2.155  0.3256  1.5983  0.6906
   31MOL   H71922379   5.433   1.679   2.331 -0.5209 -0.1043 -0.5308
   31MOL   H72022380   5.688   2.017   1.356 -1.8483 -0.8790 -1.3660
   31MOL   H72122381   5.793   2.151   1.178 -1.3408 -0.8385 -0.5606
   31MOL   H72222382   5.489   1.822   2.269  1.6993 -0.7747  2.4230
   32MOL     C122383   0.301   5.670   0.606 -0.5196  0.1983  0.0284
   32MOL     O222384   0.254   5.583   0.539  0.1171  0.4592 -0.3933
   32MOL     C322385   0.287   5.818   0.578 -0.4803  0.7320 -0.0682
   32MOL     C422386   0.341   5.911   0.669 -0.3929  0.8712 -0.3684
   32MOL     C522387   0.314   6.046   0.652  0.5428 -0.0864 -0.0382
   32MOL     C622388   0.227   6.092   0.545  0.1408  0.0092 -1.1006
   32MOL     C722389   0.173   6.233   0.546  0.4265  0.1309  0.5992
   32MOL     O822390   0.184   6.302   0.440  0.1725 -1.1140 -0.3547
   32MOL     N922391   0.127   6.279   0.659 -0.5004 -0.0856 -0.0744
   32MOL    C1022392   0.039   6.395   0.684  0.2027 -0.0275  0.2658
   32MOL    C1122393   7.845   6.366   0.812 -0.0519  0.1591  1.2899
   32MOL    C1222394   7.752   6.485   0.843  0.7585  0.4379  0.8628
   32MOL    C1322395   7.721   6.486   0.998  0.1584  0.8507 -0.0354
   32MOL    C1422396   7.616   6.597   1.032 -0.2555 -0.1768 -0.0779
   32MOL    C1522397   7.550   6.583   1.171 -0.5519 -0.3628  0.3014
   32MOL    N1622398   7.420   6.518   1.174 -0.2372 -0.2282 -0.2135
   32MOL    C1722399   0.199   6.002   0.441 -0.5583 -0.1724  0.0224
   32MOL    C1822400   0.222   5.864   0.462  0.3469  0.5629  1.2493
   32MOL    H1922401   0.391   5.905   0.764  0.8809  2.5574 -0.9137
   32MOL    H2022402   0.345   6.117   0.727  1.1899  1.2528 -1.5221
   32MOL    H2122403   0.141   6.227   0.745 -1.5869  0.2679  0.3275
   32MOL    H2222404   0.111   6.474   0.705  1.4329 -1.2920  0.8671
   32MOL    H2322405   7.862   6.424   0.599  0.5114  2.2576  0.7961
   32MOL    H2422406   0.018   6.349   0.901  1.7053 -3.3516 -0.4376
   32MOL    H2522407   7.777   6.282   0.794  0.0111  0.4472 -0.4347
   32MOL    H2622408   7.804   6.580   0.835 -1.8759  1.6077 -3.8032
   32MOL    H2722409   7.663   6.497   0.781  0.4153 -1.1356  1.0244
   32MOL    H2822410   7.815   6.506   1.049 -0.1527 -2.6757  2.1108
   32MOL    H2922411   7.676   6.396   1.040 -0.6924  1.3230  0.0841
   32MOL    H3022412   7.537   6.598   0.957  0.3723  1.2238 -0.7326
   32MOL    H3122413   7.663   6.695   1.033 -2.2583  0.8059 -1.0395
   32MOL    H3222414   7.605   6.519   1.239  0.0584  0.7925  0.8982
   32MOL    H3322415   7.540   6.680   1.219 -1.1739 -0.8233  1.1199
   32MOL    H3422416   7.417   6.417   1.168 -0.9719 -0.1999 -0.4668
   32MOL    H3522417   0.135   6.026   0.358 -1.2430 -1.5953  0.1315
   32MOL    H3622418   0.181   5.795   0.391  1.3891  1.5568 -0.3598
   32MOL    H3722419   0.360   5.639   0.692 -0.6426 -0.7905 -0.2422
   32MOL    C3822420   7.302   6.580   1.152  0.0309 -0.5127  0.1067
   32MOL    O3922421   7.294   6.702   1.127  0.0197  0.4939 -0.3669
   32MOL    C4022422   7.181   6.491   1.174 -0.0597  0.9899 -0.1957
   32MOL    C4122423   7.053   6.546   1.191  1.0302 -0.1766  0.2245
   32MOL    C4222424   6.944   6.458   1.196  0.0474 -0.6878 -0.6378
   32MOL    C4322425   6.956   6.322   1.220 -0.2758  0.0913 -0.0148
   32MOL    C4422426   6.838   6.229   1.236 -0.5742 -0.2910 -0.0019
   32MOL    O4522427   6.859   6.111   1.264 -0.5445  0.3590 -0.3665
   32MOL    N4622428   6.721   6.281   1.196  0.2116  0.5932 -0.3763
   32MOL    C4722429   6.599   6.203   1.203 -0.0844 -0.7957  0.1056
   32MOL    C4822430   6.483   6.283   1.137  0.1277 -0.6802  0.1934
   32MOL    C4922431   6.351   6.195   1.140 -0.0259  0.0341 -0.2061
   32MOL    C5022432   6.282   6.177   1.277 -0.4613 -0.0700 -0.1715
   32MOL    C5122433   6.159   6.080   1.275  0.3848 -0.3191 -0.7902
   32MOL    C5222434   6.111   6.049   1.418 -0.6709 -0.1443 -0.4751
   32MOL    N5322435   6.215   5.969   1.491  0.9060 -0.0734 -0.3265
   32MOL    C5422436   7.090   6.268   1.232  0.2781 -0.0201 -0.0336
   32MOL    C5522437   7.199   6.352   1.203  0.3101 -0.1609 -0.4370
   32MOL    H5622438   7.022   6.647   1.173 -1.5571 -1.1497 -0.9599
   32MOL    H5722439   6.847   6.501   1.174 -0.5386 -1.3950  0.5244
   32MOL    H5822440   6.720   6.373   1.153 -0.3170  1.0037  0.5125
   32MOL    H5922441   6.613   6.100   1.168  1.1909 -1.2837  1.9831
   32MOL    H6022442   6.584   6.194   1.311  2.0375  0.0099  0.4756
   32MOL    H6122443   6.515   6.307   1.036 -0.8653  1.4681  0.3529
   32MOL    H6222444   6.463   6.381   1.180 -1.0050 -1.1099  0.6501
   32MOL    H6322445   6.274   6.225   1.069  0.7027 -0.7833 -1.3574
   32MOL    H6422446   6.382   6.096   1.106 -1.1241  0.0117 -1.1592
   32MOL    H6522447   6.248   6.271   1.320  1.3574  0.2858  0.5561
   32MOL    H6622448   6.368   6.157   1.342  0.3226 -2.4560 -1.8448
   32MOL    H6722449   6.174   5.989   1.216 -1.3076 -1.3381  0.3168
   32MOL    H6822450   6.069   6.125   1.234  0.4815  0.8780  0.2774
   32MOL    H6922451   6.088   6.135   1.480 -0.2565  1.0129 -1.8823
   32MOL    H7022452   6.022   5.987   1.408 -0.8777  0.5094 -2.9844
   32MOL    H7122453   6.307   5.955   1.453  0.6234 -0.7631 -0.7579
   32MOL    H7222454   7.103   6.162   1.250  0.5904 -0.4366 -2.5882
   32MOL    H7322455   7.294   6.303   1.205  2.0695  3.1090  1.8055
   32MOL    C7422456   6.196   5.922   1.614 -0.1543 -0.3752  0.2723
   32MOL    O7522457   6.088   5.942   1.672  0.2824 -0.0221  0.5013
   32MOL    C7622458   6.304   5.839   1.681 -0.2075 -0.0796 -0.0191
   32MOL    C7722459   6.316   5.835   1.820  0.5029 -0.3189  0.3379
   32MOL    C7822460   6.432   5.779   1.877  0.3116  0.3111  0.1428
   32MOL    C7922461   6.528   5.708   1.800  0.2291 -0.7679 -0.1059
   32MOL    C8022462   6.646   5.643   1.868  0.3094  0.1598 -0.0823
   32MOL    O8122463   6.643   5.616   1.989 -0.0090  0.4512  0.3159
   32MOL    N8222464   6.749   5.637   1.788 -0.1254  0.0461  0.1059
   32MOL    C8322465   6.876   5.574   1.827 -0.6106 -0.3248  0.5596
   32MOL    C8422466   6.882   5.427   1.790 -0.1240  0.6160  0.0025
   32MOL    C8522467   7.020   5.362   1.800  0.0644 -0.2020 -0.0763
   32MOL    C8622468   7.015   5.219   1.736 -0.3494  0.3611 -0.1746
   32MOL    C8722469   7.154   5.147   1.740 -0.2997  0.6137 -0.0326
   32MOL    C8822470   7.146   4.994   1.742 -0.1311 -0.5513  0.2085
   32MOL    N8922471   7.281   4.941   1.729 -0.1136 -0.0667 -0.2623
   32MOL    C9022472   6.508   5.704   1.659  0.0578 -0.1566  0.0533
   32MOL    C9122473   6.402   5.775   1.601  0.3469  0.3593 -0.4162
   32MOL    H9222474   6.254   5.893   1.887 -0.9262 -0.2678 -1.0123
   32MOL    H9322475   6.447   5.788   1.983  0.6444 -0.4022  0.1610
   32MOL    H9422476   6.732   5.671   1.695  0.1187  0.6520  0.2849
   32MOL    H9522477   6.946   5.621   1.758 -0.4765  0.6667  1.3671
   32MOL    H9622478   6.897   5.592   1.932  1.1963 -0.5286  0.2350
   32MOL    H9722479   6.867   5.425   1.681 -0.1932  0.2286  0.0180
   32MOL    H9822480   6.802   5.366   1.832  2.2336 -0.7906  2.5811
   32MOL    H9922481   7.103   5.413   1.751  0.9372 -1.4930  0.0387
   32MOL   H10022482   7.045   5.350   1.905 -0.0895  0.0630 -0.0074
   32MOL   H10122483   6.965   5.221   1.640 -0.7325 -0.2822  0.0059
   32MOL   H10222484   6.949   5.160   1.800 -0.4868  1.1274  0.4028
   32MOL   H10322485   7.206   5.171   1.833 -1.5326 -1.1375  1.1465
   32MOL   H10422486   7.216   5.177   1.656 -1.6948  1.1567 -0.8958
   32MOL   H10522487   7.106   4.953   1.835 -0.7620 -1.8801 -0.6419
   32MOL   H10622488   7.082   4.967   1.658  1.2711  0.2350 -1.1511
   32MOL   H10722489   7.355   5.010   1.733  0.3521 -0.6314  1.2662
   32MOL   H10822490   6.576   5.669   1.582  0.0257  1.4119 -0.7074
   32MOL   H10922491   6.397   5.771   1.493  0.7557  0.1090 -0.4273
   32MOL   C11022492   7.321   4.815   1.744  0.1112 -0.2011  0.2326
   32MOL   O11122493   7.249   4.728   1.779 -0.1654 -0.1789 -0.3292
   32MOL   C11222494   7.469   4.804   1.734 -1.1055  0.0471  0.6432
   32MOL   C11322495   7.536   4.703   1.805  0.7840  0.2584  0.8105
   32MOL   C11422496   7.674   4.684   1.785 -0.8361 -0.9032  0.7264
   32MOL   C11522497   7.749   4.765   1.694  0.0963 -0.5437 -0.2640
   32MOL   C11622498   0.014   4.751   1.675 -0.1264  0.1474 -0.6138
   32MOL   O11722499   0.084   4.848   1.681 -0.3102 -0.0708 -0.1509
   32MOL   N11822500   0.056   4.628   1.661  0.0691 -0.2491  0.4886
   32MOL   C11922501   0.198   4.593   1.639 -0.3905  0.4945  0.0531
   32MOL   C12022502   0.240   4.600   1.486 -0.6114 -0.3449 -0.5321
   32MOL   C12122503   0.123   4.589   1.388 -0.1265 -0.2197 -0.1898
   32MOL   C12222504   0.167   4.571   1.245 -0.0404  0.5010 -0.3498
   32MOL   C12322505   0.052   4.606   1.149 -0.5137  0.2523 -0.1028
   32MOL   C12422506   7.820   4.506   1.152  0.7009 -0.1985  0.1629
   32MOL   N12522507   7.711   4.538   1.061  0.8395 -0.4781  0.0780
   32MOL   C12622508   7.679   4.862   1.620 -0.9233  0.0327  0.1643
   32MOL   C12722509   7.544   4.884   1.647  0.8076 -0.0193 -0.3262
   32MOL   H12822510   7.483   4.636   1.871  1.2411 -1.0605 -0.1417
   32MOL   H12922511   7.725   4.611   1.845  0.0335 -0.9921 -0.1171
   32MOL   H13022512   7.874   4.553   1.661 -1.4797  1.1343 -0.2471
   32MOL   H13122513   0.272   4.638   1.707 -0.0833  2.1143 -1.3200
   32MOL   H13222514   0.186   4.494   1.683 -0.6405  0.3896 -0.2550
   32MOL   H13322515   0.315   4.522   1.475  0.6621  0.5012  1.8543
   32MOL   H13422516   0.283   4.700   1.476  2.3786 -1.5227  0.0380
   32MOL   H13522517   0.064   4.500   1.408 -0.5548 -0.1520 -1.1149
   32MOL   H13622518   0.059   4.676   1.406 -1.8596 -1.6004  0.4578
   32MOL   H13722519   0.209   4.473   1.224  0.3623  0.8583 -1.2169
   32MOL   H13822520   0.252   4.636   1.222 -0.2416 -0.2064 -3.3518
   32MOL   H13922521   0.091   4.630   1.050 -2.9758  1.8016 -0.7500
   32MOL   H14022522   0.005   4.699   1.181 -0.3883  0.2934 -0.0414
   32MOL   H14122523   7.866   4.407   1.145 -0.2660 -0.6097 -0.5314
   32MOL   H14222524   7.782   4.504   1.254  0.5470  0.7817  0.1273
   32MOL   H14322525   7.698   4.633   1.028  3.0925 -0.1430  0.0438
   32MOL   H14422526   7.729   4.921   1.544  1.3674 -1.4073  0.5186
   32MOL   H14522527   7.502   4.966   1.591  0.5962  0.1305  0.0527
   32MOL   C14622528   7.608   4.451   1.042  0.3897 -0.6794  0.3768
   32MOL   O14722529   7.598   4.337   1.083 -0.4878 -1.0076  0.2371
   32MOL   C14822530   7.493   4.507   0.958  0.3210 -0.6768 -0.3772
   32MOL   C14922531   7.482   4.647   0.932  0.4358  0.1297  0.0952
   32MOL   C15022532   7.379   4.706   0.855  0.0861 -0.2627  0.9331
   32MOL   C15122533   7.279   4.622   0.802  0.3639  0.2292 -0.3345
   32MOL   C15222534   7.166   4.681   0.729 -0.5666  0.6062 -0.5126
   32MOL   O15322535   7.130   4.646   0.618 -0.1667  0.5437 -0.1826
   32MOL   N15422536   7.093   4.771   0.799 -0.0614 -0.4910 -0.2811
   32MOL   C15522537   6.977   4.844   0.750  0.4524 -0.2631  0.4000
   32MOL   C15622538   6.965   4.976   0.826 -0.6659 -0.3265 -0.0149
   32MOL   C15722539   6.867   4.965   0.948 -0.8788  0.0872  0.5301
   32MOL   C15822540   6.761   5.083   0.964  0.5185 -0.3003 -0.3214
   32MOL   C15922541   6.649   5.072   0.860 -1.4917  0.0345  0.1116
   32MOL   C16022542   6.543   5.189   0.853  0.0393 -0.3161 -0.3354
   32MOL   N16122543   6.423   5.163   0.776 -0.0657 -0.3174 -0.3322
   32MOL   C16222544   7.280   4.480   0.827  0.1054 -0.1536 -0.4729
   32MOL   C16322545   7.383   4.432   0.916 -0.2147  0.2078 -0.7479
   32MOL   H16422546   7.548   4.716   0.983  0.9706  0.6588 -1.2826
   32MOL   H16522547   7.370   4.812   0.839  0.6556 -0.5389 -1.4557
   32MOL   H16622548   7.119   4.784   0.895 -0.7063  0.6871 -0.2627
   32MOL   H16722549   6.999   4.866   0.645  0.8934  1.2699  0.8032
   32MOL   H16822550   6.889   4.781   0.743 -1.8527  3.0274 -1.6739
   32MOL   H16922551   6.920   5.050   0.760 -0.2733 -0.7380 -0.7578
   32MOL   H17022552   7.059   5.020   0.861 -0.7978 -0.7790  0.9110
   32MOL   H17122553   6.818   4.868   0.952  0.7429 -0.8142 -1.1112
   32MOL   H17222554   6.941   4.963   1.028  0.7294 -0.2386 -0.9303
   32MOL   H17322555   6.803   5.183   0.967  1.5950 -0.6936 -1.8933
   32MOL   H17422556   6.717   5.084   1.064  2.4305 -0.5316  0.5445
   32MOL   H17522557   6.600   4.977   0.883 -0.6287 -0.5783 -0.5504
   32MOL   H17622558   6.698   5.080   0.763  3.8334 -0.7426  2.5654
   32MOL   H17722559   6.506   5.202   0.955  0.6600  2.3116 -0.3981
   32MOL   H17822560   6.588   5.286   0.832  1.1734 -1.0228 -1.2762
   32MOL   H17922561   6.386   5.071   0.793 -0.3966  0.1695  1.6789
   32MOL   H18022562   7.208   4.415   0.781  0.4244  0.7162 -2.2414
   32MOL   H18122563   7.383   4.326   0.941 -0.0302  0.4357  0.2372
   32MOL   C18222564   6.352   5.259   0.716 -0.1255  0.1709  0.8322
   32MOL   O18322565   6.392   5.367   0.682  0.5842  0.1617 -0.1373
   32MOL   C18422566   6.212   5.222   0.678 -1.0351  0.3709 -0.0869
   32MOL   C18522567   6.181   5.088   0.644  0.5356  0.1316 -0.3798
   32MOL   C18622568   6.056   5.049   0.597  0.3674  0.4256  0.2144
   32MOL   C18722569   5.960   5.153   0.575 -0.2882  0.6609 -0.9397
   32MOL   C18822570   5.826   5.130   0.517 -0.2280  1.1509 -0.1115
   32MOL   O18922571   5.731   5.200   0.547 -0.3647 -0.1675 -0.1374
   32MOL   N19022572   5.827   5.032   0.425 -0.2922  0.3863 -0.1302
   32MOL   C19122573   5.722   4.990   0.342 -0.1907  0.1755 -0.3060
   32MOL   C19222574   5.703   5.097   0.244 -0.5921 -0.1090  0.2278
   32MOL   C19322575   5.597   5.055   0.134 -0.1304 -0.8705  0.4086
   32MOL   C19422576   5.454   5.056   0.192 -0.3108  0.1579  0.2766
   32MOL   C19522577   5.341   5.013   0.099  0.1320 -0.6213 -0.3742
   32MOL   C19622578   5.198   5.008   0.148 -0.0075 -1.1946  0.0578
   32MOL   N19722579   5.196   4.909   0.249  0.4550  0.5065 -0.1165
   32MOL   C19822580   5.990   5.282   0.619  0.3673 -0.1577 -0.5197
   32MOL   C19922581   6.113   5.321   0.665 -0.8523  0.0328 -0.4283
   32MOL   H20022582   6.266   5.024   0.664  0.1188 -0.0480  0.8642
   32MOL   H20122583   6.043   4.946   0.568  1.6652  0.5784 -0.9555
   32MOL   H20222584   5.918   4.992   0.405 -0.0149  0.7648  0.3764
   32MOL   H20322585   5.753   4.894   0.299 -0.2753  0.8811 -1.9772
   32MOL   H20422586   5.632   4.974   0.402 -0.4134  2.3768 -0.0222
   32MOL   H20522587   5.792   5.126   0.189  0.6254  0.3493  2.3899
   32MOL   H20622588   5.657   5.183   0.292 -1.5744 -0.3873 -0.1944
   32MOL   H20722589   5.588   5.135   0.061  1.7629 -2.3243 -1.5189
   32MOL   H20822590   5.613   4.963   0.077 -1.7646 -1.2130  0.4930
   32MOL   H20922591   5.434   5.160   0.220  0.2628  0.4990 -0.5365
   32MOL   H21022592   5.446   4.987   0.275  0.8981  1.4771  1.5261
   32MOL   H21122593   5.375   4.915   0.064  1.5104  0.4232 -2.0118
   32MOL   H21222594   5.346   5.082   0.015  1.3883 -0.0691  0.1394
   32MOL   H21322595   5.162   5.101   0.193 -0.8055 -0.3449 -2.2840
   32MOL   H21422596   5.122   4.975   0.078 -0.0917 -3.5117  1.2017
   32MOL   H21522597   5.278   4.851   0.261  0.2801  0.6595  1.9609
   32MOL   H21622598   5.910   5.354   0.608 -1.4099 -2.0661 -0.6688
   32MOL   H21722599   6.131   5.425   0.687 -1.1745 -0.0401  0.1936
   32MOL   C21822600   5.100   4.900   0.344 -0.3335  0.7052  0.2527
   32MOL   O21922601   5.002   4.975   0.348 -0.2111  0.6880  0.1825
   32MOL   C22022602   5.114   4.804   0.456 -0.2054 -0.6375 -0.2405
   32MOL   C22122603   5.183   4.683   0.442 -0.1533  0.0936 -1.2055
   32MOL   C22222604   5.181   4.592   0.549 -0.2503  0.4753 -1.1200
   32MOL   C22322605   5.120   4.618   0.672 -0.0733  0.4316 -0.2814
   32MOL   C22422606   5.127   4.522   0.781  0.0048  0.8227  0.0835
   32MOL   O22522607   5.176   4.416   0.756 -0.4779  0.4129 -0.1280
   32MOL   N22622608   5.082   4.556   0.902  0.1016  0.1742 -0.7899
   32MOL   C22722609   5.071   4.463   1.013  0.1075  0.5151 -0.5062
   32MOL   C22822610   5.203   4.449   1.089 -0.3916 -0.7363  0.0158
   32MOL   C22922611   5.247   4.584   1.147  0.3886  0.1191 -0.2451
   32MOL   C23022612   5.381   4.595   1.226  0.2398  0.0512 -0.5035
   32MOL   C23122613   5.493   4.616   1.119 -0.2653 -0.0366 -0.0117
   32MOL   C23222614   5.626   4.589   1.187 -0.3939 -0.1822 -0.7270
   32MOL   N23322615   5.742   4.616   1.101  0.1344 -0.6065 -0.4496
   32MOL   C23422616   5.054   4.745   0.686  0.0582  0.5438 -0.4397
   32MOL   C23522617   5.054   4.833   0.577  0.3483  0.0916  0.7392
   32MOL   H23622618   5.255   4.660   0.365  1.3801  2.0714 -0.4002
   32MOL   H23722619   5.236   4.501   0.529 -0.9211 -0.6884  1.9974
   32MOL   H23822620   5.067   4.651   0.930 -2.4259  0.4780 -2.9609
   32MOL   H23922621   5.002   4.503   1.087 -1.6921 -1.7752 -0.8976
   32MOL   H24022622   5.041   4.369   0.966 -0.5825  0.2800  0.3909
   32MOL   H24122623   5.285   4.414   1.028 -0.3317  0.0154 -0.3282
   32MOL   H24222624   5.199   4.369   1.163  2.8682 -0.8639  0.1114
   32MOL   H24322625   5.258   4.656   1.066 -1.9007  0.5773 -0.1620
   32MOL   H24422626   5.165   4.616   1.211  0.0901 -1.5533  0.2543
   32MOL   H24522627   5.396   4.501   1.278 -1.6930  0.2169  0.4039
   32MOL   H24622628   5.363   4.675   1.297 -1.6686 -1.0511  0.3037
   32MOL   H24722629   5.483   4.719   1.084  0.5615 -0.5083 -1.7203
   32MOL   H24822630   5.484   4.540   1.041 -0.0192 -1.6573  1.4925
   32MOL   H24922631   5.641   4.636   1.285  2.7935 -0.1987 -1.1499
   32MOL   H25022632   5.632   4.485   1.216 -1.1376  0.3548  1.4589
   32MOL   H25122633   5.799   4.543   1.062  0.6978 -0.4028 -0.0270
   32MOL   H25222634   5.003   4.764   0.779  1.2786 -1.8101  0.7580
   32MOL   H25322635   4.998   4.926   0.582  0.7901  0.3290  1.2816
   32MOL   C25422636   5.811   4.733   1.089  0.5617  0.0839  0.1043
   32MOL   O25522637   5.757   4.842   1.111  0.5962  0.3427 -0.1239
   32MOL   C25622638   5.951   4.737   1.032  0.1230 -0.5771 -0.2031
   32MOL   C25722639   6.029   4.853   1.049 -1.0971 -0.2991  0.0312
   32MOL   C25822640   6.145   4.869   0.978 -0.1534  0.0572  0.5504
   32MOL   C25922641   6.186   4.769   0.885 -0.4077  0.6539 -0.1549
   32MOL   C26022642   6.316   4.787   0.821 -0.6636  0.4377  0.0175
   32MOL   O26122643   6.388   4.887   0.851 -0.2410 -0.3297  0.0057
   32MOL   N26222644   6.360   4.697   0.733  0.2824  0.3701 -0.0140
   32MOL   C26322645   6.481   4.706   0.653 -0.3931  0.2246 -0.7305
   32MOL   C26422646   6.604   4.679   0.748 -0.3875 -0.2422 -0.0831
   32MOL   C26522647   6.635   4.532   0.778 -0.0211  0.2448  0.2175
   32MOL   C26622648   6.527   4.427   0.808 -0.0854 -0.4279 -0.4500
   32MOL   C26722649   6.574   4.310   0.891  0.0092  0.2643 -0.2992
   32MOL   C26822650   6.460   4.225   0.940  0.1211 -0.4614  0.0599
   32MOL   N26922651   6.353   4.296   1.007  0.0229 -0.2034 -0.2880
   32MOL   C27022652   6.113   4.643   0.879  0.2066  0.5852 -0.1238
   32MOL   C27122653   5.995   4.636   0.950 -0.1180 -0.3961  0.2014
   32MOL   H27222654   5.996   4.931   1.116  0.5484  0.6222 -0.2283
   32MOL   H27322655   6.208   4.955   0.997  1.7439 -1.0422 -0.5596
   32MOL   H27422656   6.313   4.610   0.713 -0.6635  1.0862 -0.9344
   32MOL   H27522657   6.488   4.625   0.580  0.4824  0.2323 -0.6626
   32MOL   H27622658   6.487   4.805   0.608  2.1820  1.7682  2.7386
   32MOL   H27722659   6.599   4.731   0.843 -1.0410 -0.1001 -0.1946
   32MOL   H27822660   6.695   4.717   0.700  0.1514  0.8858  1.7880
   32MOL   H27922661   6.691   4.495   0.692  1.6152  2.8319  0.1396
   32MOL   H28022662   6.702   4.534   0.864  0.1292 -0.3110  0.1170
   32MOL   H28122663   6.485   4.388   0.715 -2.1985  0.4848  0.0819
   32MOL   H28222664   6.441   4.476   0.853  0.2315 -1.3685  1.2249
   32MOL   H28322665   6.615   4.354   0.982 -2.8352 -0.8647  1.6264
   32MOL   H28422666   6.648   4.256   0.832  0.5797  2.5707 -1.7614
   32MOL   H28522667   6.423   4.170   0.854 -0.0442 -1.7659  0.9503
   32MOL   H28622668   6.498   4.152   1.012 -0.2733 -0.8140 -0.0823
   32MOL   H28722669   6.374   4.394   1.015 -2.2830  0.3180 -0.1465
   32MOL   H28822670   6.155   4.572   0.810  2.2493  0.9763  0.6841
   32MOL   H28922671   5.935   4.546   0.956  0.2633 -0.7615 -1.2151
   32MOL   C29022672   6.243   4.248   1.072 -0.4954 -0.2118 -0.3841
   32MOL   O29122673   6.213   4.126   1.061 -0.1452  0.3946 -0.3112
   32MOL   C29222674   6.154   4.332   1.161 -0.3822  0.2128  0.2430
   32MOL   C29322675   6.033   4.281   1.213  1.3375 -0.4780  0.1776
   32MOL   C29422676   5.957   4.364   1.300 -0.2682 -0.5694  0.4857
   32MOL   C29522677   5.995   4.494   1.339  0.2742  0.2158 -0.4918
   32MOL   C29622678   5.915   4.568   1.448 -0.2298 -0.2568  0.3477
   32MOL   O29722679   5.817   4.512   1.496  0.0537 -0.6814 -0.3291
   32MOL   N29822680   5.959   4.685   1.490 -0.1655 -0.2212 -0.2095
   32MOL   C29922681   5.910   4.763   1.598  0.1799  0.3025  0.7013
   32MOL   C30022682   5.964   4.720   1.734  0.6884  0.3882 -0.0255
   32MOL   C30122683   6.114   4.672   1.728  0.3356  0.4139  0.1501
   32MOL   C30222684   6.163   4.631   1.859  0.0685  0.4126 -0.1365
   32MOL   C30322685   6.116   4.490   1.893  0.3788 -0.4550 -0.0700
   32MOL   C30422686   6.185   4.422   2.016 -0.1719 -0.4741  0.2447
   32MOL   N30522687   6.295   4.328   1.986  0.5014 -0.2291  0.0497
   32MOL   C30622688   6.122   4.541   1.289  0.8835  0.2042  0.3930
   32MOL   C30722689   6.193   4.464   1.198 -0.4824  0.4690 -0.1116
   32MOL   H30822690   6.005   4.180   1.190  1.3092 -0.8389  1.7288
   32MOL   H30922691   5.881   4.313   1.357  0.2810 -2.1401 -0.1726
   32MOL   H31022692   6.032   4.732   1.438 -0.1808 -1.9612 -1.8456
   32MOL   H31122693   5.945   4.864   1.576 -0.3327 -0.2432 -3.0170
   32MOL   H31222694   5.801   4.773   1.599  0.1928  0.4417  3.4554
   32MOL   H31322695   5.901   4.648   1.787  1.5282  0.3951  0.9992
   32MOL   H31422696   5.960   4.806   1.801  1.6706  0.7232 -0.3944
   32MOL   H31522697   6.129   4.591   1.656  0.3086  1.5847 -1.1985
   32MOL   H31622698   6.177   4.747   1.680  0.5414 -0.6924 -1.3378
   32MOL   H31722699   6.132   4.702   1.936 -0.3979 -0.2153  0.2642
   32MOL   H31822700   6.271   4.627   1.846  0.3958  0.7875  2.1379
   32MOL   H31922701   6.136   4.434   1.801 -2.0951  2.8770 -2.7656
   32MOL   H32022702   6.009   4.490   1.910 -0.2916  1.0027 -3.7949
   32MOL   H32122703   6.214   4.482   2.102  0.5314 -1.7102  0.8911
   32MOL   H32222704   6.111   4.358   2.063  0.0426 -0.6066  0.4026
   32MOL   H32322705   6.273   4.248   1.930 -0.5626 -0.7317  1.1552
   32MOL   H32422706   6.157   4.636   1.326 -1.1198  1.3312 -0.4629
   32MOL   H32522707   6.287   4.508   1.170 -0.1263 -0.3804 -0.2881
   32MOL   C32622708   6.429   4.354   2.007  0.1777 -0.5235 -0.1167
   32MOL   O32722709   6.480   4.442   2.078 -0.2649 -0.4980  0.2123
   32MOL   C32822710   6.523   4.269   1.924  0.0302  0.9252 -0.0244
   32MOL   C32922711   6.649   4.321   1.884  0.4621  0.2927 -0.8714
   32MOL   C33022712   6.744   4.238   1.812  0.9101 -0.0599  0.8187
   32MOL   C33122713   6.721   4.105   1.787  0.9331 -0.5920  0.3732
   32MOL   C33222714   6.809   4.021   1.707  0.0308 -0.6909  0.0438
   32MOL   O33322715   6.801   3.902   1.708  0.3562 -0.4324  0.2842
   32MOL   N33422716   6.888   4.085   1.631 -0.8776  0.2348  0.1732
   32MOL   C33522717   6.997   4.030   1.555  0.4521  0.0671 -0.5628
   32MOL   C33622718   7.016   4.125   1.436 -0.1545 -0.1624 -0.3104
   32MOL   C33722719   7.159   4.155   1.396  0.3461 -0.0680 -0.4415
   32MOL   C33822720   7.247   4.038   1.364 -0.1541 -0.0582 -0.4379
   32MOL   C33922721   7.386   4.085   1.309  0.1537 -0.1388  0.5267
   32MOL   C34022722   7.454   3.974   1.221  0.5753 -0.0010  0.5752
   32MOL   N34122723   7.596   3.988   1.210  0.1921 -0.8177 -0.8424
   32MOL   C34222724   6.598   4.048   1.837 -0.1571  0.1122 -0.5572
   32MOL   C34322725   6.500   4.126   1.903  0.2255  0.2194 -0.6817
   32MOL   H34422726   6.693   4.416   1.909 -0.6250 -0.0941  2.8052
   32MOL   H34522727   6.840   4.284   1.791 -0.7965  3.4079  0.2418
   32MOL   H34622728   6.894   4.186   1.624 -0.3826  0.2288  0.4994
   32MOL   H34722729   7.083   4.025   1.622  0.5685  2.0733 -0.5370
   32MOL   H34822730   6.977   3.926   1.527  2.5615 -0.2119 -1.1105
   32MOL   H34922731   6.964   4.220   1.447  0.2005  0.5372 -4.0138
   32MOL   H35022732   6.966   4.088   1.347  0.3736 -1.6661 -0.0097
   32MOL   H35122733   7.165   4.240   1.328  3.1796 -0.0250 -0.2090
   32MOL   H35222734   7.193   4.200   1.489 -2.3590  0.6112  0.2510
   32MOL   H35322735   7.195   3.968   1.297  1.9719 -0.9669 -1.1719
   32MOL   H35422736   7.279   3.984   1.453 -0.5960 -0.0428 -0.2660
   32MOL   H35522737   7.451   4.104   1.394  0.1545 -0.1048  0.5183
   32MOL   H35622738   7.371   4.176   1.252 -1.4115 -0.8001 -0.1617
   32MOL   H35722739   7.440   3.889   1.288  0.0022 -0.5153 -0.1932
   32MOL   H35822740   7.397   3.960   1.129  1.0092  0.9516  0.1579
   32MOL   H35922741   7.621   4.086   1.202 -1.5616 -0.4895 -2.7704
   32MOL   H36022742   6.585   3.941   1.830 -2.2079  0.2289  0.8001
   32MOL   H36122743   6.415   4.078   1.949 -0.4546  0.7667 -1.3602
   32MOL   C36222744   7.684   3.891   1.174  0.0829 -0.4708 -0.2509
   32MOL   O36322745   7.650   3.773   1.163 -0.2728  0.0868  0.1339
   32MOL   C36422746   7.822   3.936   1.147 -0.5437  0.7028 -0.3679
   32MOL   C36522747   7.854   4.069   1.111  0.2287 -0.4074  0.1612
   32MOL   C36622748   0.101   4.107   1.100 -0.4880  0.1098 -0.7386
   32MOL   C36722749   0.208   4.010   1.107  0.1314  0.2460  0.8842
   32MOL   C36822750   0.354   4.049   1.093 -0.3432  0.3520  0.6322
   32MOL   O36922751   0.447   3.974   1.126  0.5298 -0.3160 -0.2770
   32MOL   N37022752   0.372   4.176   1.065 -0.0601  0.0221 -0.1174
   32MOL   C37122753   0.505   4.236   1.051 -0.5983 -0.1110 -1.0137
   32MOL   C37222754   0.559   4.280   1.189 -0.5855 -0.4138 -0.0495
   32MOL   C37322755   0.681   4.375   1.171  0.6851  0.6108  1.1156
   32MOL   C37422756   0.746   4.419   1.301  0.5123  0.0882 -0.0716
   32MOL   C37522757   0.661   4.528   1.361  0.6813 -0.4559 -0.9892
   32MOL   C37622758   0.728   4.594   1.480  1.0485 -0.5311  0.3798
   32MOL   N37722759   0.651   4.703   1.536 -0.1786 -0.2269  0.9168
   32MOL   C37822760   0.174   3.874   1.123 -0.3044  0.4853 -0.0899
   32MOL   C37922761   0.033   3.837   1.145 -0.7228  0.1425 -0.5645
   32MOL   H38022762   7.778   4.145   1.098  1.1017  0.3804 -0.3426
   32MOL   H38122763   0.118   4.214   1.095  0.0109 -0.0169 -2.0593
   32MOL   H38222764   0.287   4.225   1.042 -1.9646 -2.6098  1.1548
   32MOL   H38322765   0.577   4.169   1.003 -0.6654  0.0158 -1.2953
   32MOL   H38422766   0.497   4.328   0.992  1.5837  0.8939  0.1802
   32MOL   H38522767   0.588   4.195   1.251  1.9479  1.9430  2.1150
   32MOL   H38622768   0.475   4.333   1.233 -1.1664 -2.0669  0.9030
   32MOL   H38722769   0.758   4.315   1.124  0.3676 -0.2858  1.7304
   32MOL   H38822770   0.646   4.454   1.105 -1.8293 -1.5366 -0.2018
   32MOL   H38922771   0.843   4.465   1.282 -0.5012  2.3093 -0.0153
   32MOL   H39022772   0.753   4.336   1.371 -0.2490  1.3501  1.5411
   32MOL   H39122773   0.564   4.491   1.394  2.1385 -1.1139  2.7602
   32MOL   H39222774   0.643   4.600   1.281 -1.9651 -1.0338 -0.9702
   32MOL   H39322775   0.747   4.523   1.560 -1.2660 -1.8634 -0.2021
   32MOL   H39422776   0.824   4.632   1.445  0.8646 -0.4819 -0.0816
   32MOL   H39522777   0.571   4.683   1.594 -0.1878 -1.6157  0.4537
   32MOL   H39622778   0.246   3.794   1.117 -2.3317 -1.4049  0.1589
   32MOL   H39722779   0.006   3.735   1.168  0.8106 -0.5754 -1.8840
   32MOL   C39822780   0.669   4.833   1.509 -0.1953  0.0525  0.4913
   32MOL   O39922781   0.768   4.877   1.449 -0.3337  0.7221  0.2915
   32MOL   C40022782   0.555   4.918   1.550 -0.3775 -0.1364 -0.1428
   32MOL   C40122783   0.513   5.029   1.467 -0.7869  0.2754 -0.2788
   32MOL   C40222784   0.412   5.121   1.510  0.5318  0.3765 -0.4360
   32MOL   C40322785   0.339   5.081   1.625  0.1697  0.4637 -0.6195
   32MOL   C40422786   0.238   5.173   1.689  0.7834  0.6525 -0.3117
   32MOL   O40522787   0.260   5.291   1.689  0.1460  0.4974 -0.7068
   32MOL   N40622788   0.140   5.116   1.755 -0.2904  0.0577 -0.6383
   32MOL   C40722789   0.061   5.183   1.856 -0.2939  0.2185 -0.4241
   32MOL   C40822790   7.830   5.104   1.904 -0.1687  0.0458 -0.1633
   32MOL   C40922791   7.865   4.985   1.989 -0.2116 -0.4399 -0.3839
   32MOL   C41022792   7.728   4.940   2.034 -0.2387  0.5889  0.0093
   32MOL   C41122793   7.734   4.810   2.114 -0.3671 -0.0347  0.1174
   32MOL   C41222794   7.599   4.765   2.168 -0.5859 -0.2634 -0.2953
   32MOL   N41322795   7.619   4.634   2.227 -0.7104  0.2885 -0.0192
   32MOL   C41422796   0.376   4.965   1.700 -0.4075 -0.7673 -0.0572
   32MOL   C41522797   0.483   4.890   1.674 -0.0671 -0.5722 -0.5428
   32MOL   H41622798   0.565   5.046   1.374 -0.6087 -0.2483 -0.2766
   32MOL   H41722799   0.395   5.210   1.451 -1.7000 -1.0012 -1.9544
   32MOL   H41822800   0.145   5.015   1.754 -0.8410  0.0364 -2.2426
   32MOL   H41922801   0.124   5.218   1.938  0.0296 -0.0621 -0.5488
   32MOL   H42022802   0.033   5.272   1.799 -3.3336 -0.0407  0.5758
   32MOL   H42122803   7.764   5.078   1.821 -2.3623 -1.2486  1.9094
   32MOL   H42222804   7.762   5.170   1.958 -1.1123 -2.1061  1.4082
   32MOL   H42322805   0.018   4.899   1.934  1.1958 -0.5843  0.8096
   32MOL   H42422806   0.041   5.004   2.076  1.2284  1.5083 -1.8092
   32MOL   H42522807   7.672   4.933   1.940  1.1347 -0.6744 -0.7303
   32MOL   H42622808   7.685   5.028   2.082 -0.4985  0.2145  0.4662
   32MOL   H42722809   7.792   4.829   2.204  2.5593 -0.7202 -1.5337
   32MOL   H42822810   7.779   4.724   2.064 -1.6592  0.2852 -1.6435
   32MOL   H42922811   7.567   4.827   2.252 -0.7157 -0.6567 -0.0509
   32MOL   H43022812   7.526   4.777   2.088  1.1794 -0.9986 -2.0539
   32MOL   H43122813   7.703   4.629   2.283  1.4431  2.3276 -2.9030
   32MOL   H43222814   0.324   4.940   1.791  0.2913  1.8639  1.1031
   32MOL   H43322815   0.511   4.811   1.742 -2.0177  0.3548  1.4274
   32MOL   C43422816   7.573   4.515   2.180 -0.5686 -0.3798 -0.3456
   32MOL   O43522817   7.484   4.511   2.096 -0.2964  0.0928  0.4794
   32MOL   C43622818   7.620   4.389   2.250  0.2212 -0.7574  0.5038
   32MOL   C43722819   7.644   4.389   2.387  0.0569 -0.5199  0.1103
   32MOL   C43822820   7.709   4.279   2.446 -0.0979 -0.4370  0.4282
   32MOL   C43922821   7.733   4.158   2.370 -0.5676  0.1713  0.6847
   32MOL   C44022822   7.779   4.031   2.434 -0.1492 -1.0224  0.0007
   32MOL   O44122823   7.839   3.942   2.367 -0.1721 -0.0382  0.5845
   32MOL   N44222824   7.753   4.014   2.566  0.0496 -0.7414  0.2515
   32MOL   C44322825   7.814   3.907   2.647 -0.2427 -0.4422 -0.9619
   32MOL   C44422826   7.767   3.934   2.794 -0.3367 -0.7035  0.4969
   32MOL   C44522827   7.817   4.066   2.859 -0.7498 -0.1929  0.3235
   32MOL   C44622828   7.741   4.094   2.984  0.1078 -0.0180 -0.2872
   32MOL   C44722829   7.761   4.007   3.114  0.3705  0.0690  0.2734
   32MOL   C44822830   0.022   3.962   3.149 -0.7644 -0.1145 -0.4395
   32MOL   N44922831   0.088   3.873   3.050  0.1701  0.1221  0.0174
   32MOL   C45022832   7.701   4.159   2.230 -0.3963  0.4560  0.1839
   32MOL   C45122833   7.648   4.274   2.172  0.7913 -0.1632 -0.2887
   32MOL   H45222834   7.632   4.478   2.448 -0.8619 -1.1723  0.8817
   32MOL   H45322835   7.740   4.280   2.550  1.6107 -2.2096 -0.0433
   32MOL   H45422836   7.689   4.081   2.606 -0.2155  0.5776 -2.3027
   32MOL   H45522837   7.782   3.808   2.615  0.2666 -0.3955 -1.6227
   32MOL   H45622838   0.036   3.907   2.638 -0.0750 -2.4568  0.7238
   32MOL   H45722839   7.789   3.846   2.854 -0.1221 -0.6380  0.5129
   32MOL   H45822840   7.658   3.936   2.789 -0.2545 -0.3058 -2.3438
   32MOL   H45922841   0.039   4.061   2.875 -0.6568  1.1007  0.1187
   32MOL   H46022842   7.806   4.151   2.792 -0.0835  1.2609  2.0414
   32MOL   H46122843   7.635   4.108   2.964 -0.0504  0.3060  0.7992
   32MOL   H46222844   7.762   4.200   2.998 -2.9969  0.4912  0.7538
   32MOL   H46322845   7.700   3.917   3.112 -0.0654  0.3011  2.4978
   32MOL   H46422846   7.728   4.071   3.196  0.1486 -0.5068  0.6310
   32MOL   H46522847   0.082   4.052   3.159  0.0422 -0.7012  0.0955
   32MOL   H46622848   0.014   3.913   3.246 -0.0083  0.5684 -0.0288
   32MOL   H46722849   0.063   3.886   2.953  1.2782  1.5891 -0.0947
   32MOL   H46822850   7.716   4.062   2.185 -0.9916  0.4283  0.0394
   32MOL   H46922851   7.623   4.270   2.067 -0.0714 -1.2778 -0.0466
   32MOL   C47022852   0.191   3.792   3.079 -0.5006 -0.7011 -0.4221
   32MOL   O47122853   0.230   3.771   3.194 -0.1752 -0.3954  0.3017
   32MOL   C47222854   0.260   3.727   2.966 -0.9160  0.5743 -0.5133
   32MOL   C47322855   0.352   3.626   2.985  0.0634  0.4502  0.5991
   32MOL   C47422856   0.413   3.551   2.877 -0.0561 -0.1460 -0.5826
   32MOL   C47522857   0.383   3.590   2.745 -0.3101  0.5678  0.2490
   32MOL   C47622858   0.438   3.510   2.635 -0.3219 -0.2695 -0.3527
   32MOL   O47722859   0.507   3.411   2.666 -0.2270  0.0014  0.5709
   32MOL   N47822860   0.394   3.543   2.513 -0.4226  0.0619  0.6274
   32MOL   C47922861   0.439   3.475   2.390 -0.3156  0.1220 -0.3766
   32MOL   C48022862   0.310   3.440   2.308  0.9721 -0.0588  0.0040
   32MOL   C48122863   0.227   3.559   2.274  0.1034  0.0360 -0.2796
   32MOL   C48222864   0.122   3.541   2.162  0.3496 -0.0757  0.2474
   32MOL   C48322865   0.058   3.680   2.126  0.3404 -0.2829 -0.5424
   32MOL   C48422866   7.850   3.661   2.003 -0.1329 -0.2658 -0.5675
   32MOL   N48522867   7.810   3.796   1.954  0.0023 -0.0174 -0.1880
   32MOL   C48622868   0.293   3.701   2.727  0.3914 -0.1025 -0.1133
   32MOL   C48722869   0.229   3.764   2.835  0.7959 -0.5509  0.4699
   32MOL   H48822870   0.367   3.584   3.083  1.7281 -0.4914 -0.0353
   32MOL   H48922871   0.476   3.467   2.900  0.2508  0.7012  1.8538
   32MOL   H49022872   0.342   3.627   2.491 -0.4414  0.1973  1.1727
   32MOL   H49122873   0.503   3.549   2.341  0.8610  0.1103  1.1070
   32MOL   H49222874   0.497   3.384   2.406 -2.1687 -0.3803  4.0290
   32MOL   H49322875   0.263   3.362   2.369 -0.3393 -0.0924 -1.0319
   32MOL   H49422876   0.341   3.392   2.215  0.3615  1.4595 -1.0026
   32MOL   H49522877   0.175   3.604   2.358  0.4452 -1.3382  0.6674
   32MOL   H49622878   0.302   3.635   2.249  2.3324 -2.0209 -0.0231
   32MOL   H49722879   0.049   3.468   2.196  2.0972 -1.6158  0.7836
   32MOL   H49822880   0.171   3.512   2.069  0.1657 -0.5877  0.3067
   32MOL   H49922881   0.132   3.756   2.099  0.4430 -0.5176 -0.9211
   32MOL   H50022882   7.881   3.714   2.208  1.1201 -3.0696  1.2731
   32MOL   H50122883   0.021   3.608   1.926  0.7445  1.0186 -0.8061
   32MOL   H50222884   7.760   3.607   2.033  0.4856 -1.0215 -0.0467
   32MOL   H50322885   0.000   3.823   1.893  0.5052 -3.1572 -1.0446
   32MOL   H50422886   0.262   3.726   2.627 -1.0915  0.6440  0.5195
   32MOL   H50522887   0.156   3.842   2.820  2.2390  0.5059 -1.1613
   32MOL   C50622888   7.689   3.848   1.946 -1.1900  1.2475 -0.7270
   32MOL   O50722889   7.596   3.793   2.004  0.1213  0.5694  0.0293
   32MOL   C50822890   7.686   3.969   1.868  0.2385 -1.2246  0.8706
   32MOL   C50922891   7.564   4.029   1.822 -0.4566 -0.5421  0.3939
   32MOL   C51022892   7.568   4.148   1.741  0.3218 -1.0318 -0.2877
   32MOL   C51122893   7.695   4.200   1.704 -0.2643 -0.7484 -0.5491
   32MOL   C51222894   7.700   4.308   1.605  0.1220 -0.6421  0.0855
   32MOL   O51322895   7.789   4.392   1.606  0.1383  0.0848 -0.0221
   32MOL   N51422896   7.586   4.319   1.530 -0.0524  0.4752 -0.2450
   32MOL   C51522897   7.555   4.428   1.444 -0.2961 -0.2443 -0.2546
   32MOL   C51622898   7.408   4.472   1.461 -0.1631 -0.2840 -0.3127
   32MOL   C51722899   7.360   4.573   1.359 -0.1126 -0.6233 -0.2199
   32MOL   C51822900   7.215   4.615   1.402  0.3116  0.2605 -0.1004
   32MOL   C51922901   7.172   4.742   1.336 -0.2693 -0.3104 -0.0988
   32MOL   C52022902   7.026   4.775   1.377  0.3688 -0.9441  0.3489
   32MOL   N52122903   6.998   4.916   1.348  0.5463  0.1810  0.4998
   32MOL   C52222904   7.811   4.147   1.754 -0.3179 -0.1862 -0.1560
   32MOL   C52322905   7.809   4.036   1.836 -0.3694 -1.4239  0.8386
   32MOL   H52422906   7.467   3.987   1.843 -0.8259  0.2710  0.3307
   32MOL   H52522907   7.476   4.194   1.710 -0.6449 -2.6773  0.0660
   32MOL   H52622908   7.524   4.239   1.532  0.9312 -0.4161 -2.6325
   32MOL   H52722909   7.619   4.516   1.452  0.1823 -0.6401  0.2575
   32MOL   H52822910   7.559   4.401   1.338 -0.4498  2.1292 -0.9106
   32MOL   H52922911   7.391   4.515   1.559  0.4468 -0.4352 -0.1406
   32MOL   H53022912   7.338   4.389   1.445 -0.2116 -0.5670  1.2689
   32MOL   H53122913   7.431   4.654   1.345  0.4250 -1.0933 -0.2273
   32MOL   H53222914   7.355   4.527   1.260 -1.3525 -0.2124 -0.3580
   32MOL   H53322915   7.222   4.637   1.508  0.6379 -1.9374  0.3675
   32MOL   H53422916   7.137   4.539   1.402 -1.0226  1.5556 -3.1534
   32MOL   H53522917   7.171   4.722   1.228  0.3385 -1.0136  0.0208
   32MOL   H53622918   7.250   4.816   1.348  0.5082 -1.3601  1.5424
   32MOL   H53722919   6.952   4.716   1.322  0.2079 -0.4293  0.0094
   32MOL   H53822920   7.004   4.746   1.479 -1.4576 -0.2768  0.1565
   32MOL   H53922921   7.072   4.983   1.342 -0.1306  0.9181  0.3425
   32MOL   H54022922   0.023   4.183   1.726 -0.1849 -0.0125  0.5426
   32MOL   H54122923   0.015   3.996   1.874 -0.5900 -3.3135 -0.5210
   32MOL   C54222924   6.869   4.964   1.355 -0.0248 -0.3414  0.3512
   32MOL   O54322925   6.771   4.894   1.390 -0.3728 -0.7884 -0.1661
   32MOL   C54422926   6.849   5.108   1.319 -0.2106 -0.2546  0.1481
   32MOL   C54522927   6.728   5.172   1.348 -0.1547 -0.1992  0.1854
   32MOL   C54622928   6.716   5.316   1.333  0.2073  0.0631 -0.4015
   32MOL   C54722929   6.821   5.386   1.279  0.1691 -0.4847 -0.1314
   32MOL   C54822930   6.800   5.534   1.272 -0.4187 -0.6473  0.3481
   32MOL   O54922931   6.725   5.591   1.349  0.1968 -0.4808  0.2342
   32MOL   N55022932   6.870   5.595   1.175  0.5265  0.3859  0.1376
   32MOL   C55122933   6.872   5.735   1.135 -0.2131 -0.1909 -0.2835
   32MOL   C55222934   7.006   5.782   1.089 -0.0490 -0.1023  0.1327
   32MOL   C55322935   7.049   5.714   0.957 -0.0895 -0.0246 -0.5635
   32MOL   C55422936   7.186   5.755   0.900 -0.0889 -0.1474  0.2445
   32MOL   C55522937   7.309   5.764   0.993  0.3421  0.2056  0.3716
   32MOL   C55622938   7.347   5.635   1.063 -0.3543 -0.0546  0.1803
   32MOL   N55722939   7.357   5.522   0.968  0.0349  0.7685  0.7625
   32MOL   C55822940   6.937   5.319   1.239  0.1498  0.0136 -0.3460
   32MOL   C55922941   6.951   5.182   1.259 -0.3404  0.1757 -0.2783
   32MOL   H56022942   6.650   5.119   1.401  0.9673 -0.7999  1.2693
   32MOL   H56122943   6.621   5.363   1.357 -0.0418  0.5226 -2.1981
   32MOL   H56222944   6.917   5.525   1.120 -1.1808 -0.9203  0.2941
   32MOL   H56322945   6.788   5.751   1.068 -1.2880 -0.0056  1.0939
   32MOL   H56422946   6.838   5.800   1.215  0.1148 -0.1226 -0.1996
   32MOL   H56522947   7.088   5.761   1.158 -0.1607 -1.3900 -0.1086
   32MOL   H56622948   7.000   5.886   1.055  1.2179  0.3802  1.3240
   32MOL   H56722949   7.042   5.605   0.951  0.7763  0.0068 -2.6149
   32MOL   H56822950   6.973   5.743   0.885 -1.3084  0.5779  0.9562
   32MOL   H56922951   7.172   5.855   0.858  0.8715 -0.8338 -1.7843
   32MOL   H57022952   7.217   5.697   0.812 -0.6904 -1.0777  0.6412
   32MOL   H57122953   7.288   5.825   1.080  1.6095  0.3300  0.6010
   32MOL   H57222954   7.403   5.803   0.954  0.7276  1.5749  2.5766
   32MOL   H57322955   7.438   5.637   1.122  0.5673 -0.2127 -1.2151
   32MOL   H57422956   7.262   5.612   1.128 -1.3083  0.4773 -0.8662
   32MOL   H57522957   7.423   5.531   0.891 -1.6944  2.9005 -0.5379
   32MOL   H57622958   7.021   5.379   1.208 -0.4220  0.0797 -1.7985
   32MOL   H57722959   7.045   5.132   1.238 -1.2209 -1.0487 -1.4289
   32MOL   C57822960   7.289   5.404   0.978 -0.4656 -0.1375 -0.2373
   32MOL   O57922961   7.213   5.384   1.072 -0.1220 -0.0470 -0.1155
   32MOL   C58022962   7.319   5.303   0.876 -0.1839 -0.2333  0.6318
   32MOL   C58122963   7.212   5.249   0.791 -0.1108  0.0268 -0.5085
   32MOL   C58222964   7.247   5.141   0.702  0.4495 -0.8030  0.1889
   32MOL   C58322965   7.380   5.095   0.705 -0.5818 -0.4023 -0.5142
   32MOL   C58422966   7.421   4.980   0.621  0.3387 -0.0574 -0.6463
   32MOL   O58522967   7.528   4.918   0.640 -0.0521 -0.0768  0.0194
   32MOL   N58622968   7.340   4.946   0.523  0.2051  0.1147  0.1900
   32MOL   C58722969   7.352   4.841   0.420 -0.1001 -0.2564  0.0624
   32MOL   C58822970   7.327   4.888   0.279 -0.9639  0.9685 -0.4484
   32MOL   C58922971   7.208   4.993   0.272 -0.5263 -0.0905 -0.0437
   32MOL   C59022972   7.173   5.038   0.133 -0.3298  0.3158 -0.1091
   32MOL   C59122973   7.041   5.113   0.136  0.2568 -0.3445  0.4933
   32MOL   C59222974   7.024   5.249   0.212 -0.5886 -0.2789  0.2897
   32MOL   N59322975   6.903   5.320   0.176 -0.0416  0.0898  0.8632
   32MOL   C59422976   7.480   5.145   0.791  0.2020  0.4369  0.3417
   32MOL   C59522977   7.449   5.250   0.871 -0.4712 -0.6204  0.2488
   32MOL   H59622978   7.120   5.302   0.778 -0.5368 -0.3556  0.8104
   32MOL   H59722979   7.171   5.102   0.637  1.0162 -0.7255 -0.5232
   32MOL   H59822980   7.262   5.008   0.509 -2.3571 -2.7120  1.3265
   32MOL   H59922981   7.449   4.791   0.418 -0.4812 -0.9810 -0.4089
   32MOL   H60022982   7.287   4.760   0.452 -0.6495 -0.2188 -0.9598
   32MOL   H60122983   7.300   4.811   0.207 -2.1329 -0.4870  1.4786
   32MOL   H60222984   7.416   4.936   0.240 -1.2378  3.2640  1.5794
   32MOL   H60322985   7.113   4.964   0.317 -1.4065 -1.9830 -2.9553
   32MOL   H60422986   7.232   5.083   0.328  3.4277  0.8695 -3.0632
   32MOL   H60522987   7.169   4.949   0.070  1.4310  0.8336 -0.9652
   32MOL   H60622988   7.249   5.104   0.091  1.7827 -0.4315  2.4169
   32MOL   H60722989   6.973   5.051   0.196  0.8681  0.4763  2.0541
   32MOL   H60822990   6.994   5.127   0.039  1.2384  2.4090  0.4006
   32MOL   H60922991   7.028   5.218   0.316  0.5227  0.2737  0.4201
   32MOL   H61022992   7.115   5.307   0.193  0.3534 -1.6106  0.6839
   32MOL   H61122993   6.854   5.289   0.093 -2.0238  2.6196  1.0089
   32MOL   H61222994   7.574   5.092   0.799  0.2357  0.4571  0.0738
   32MOL   H61322995   7.532   5.282   0.933 -0.6994 -1.7644  1.1810
   32MOL   C61422996   6.842   5.422   0.239  0.3787 -0.1584  0.4957
   32MOL   O61522997   6.871   5.469   0.349 -0.0152 -0.1970  0.1038
   32MOL   C61622998   6.728   5.475   0.159  0.1920  0.3446  0.5283
   32MOL   C61722999   6.743   5.520   0.030  0.1092 -0.1030 -0.0760
   32MOL   C61823000   6.630   5.575   7.849  0.9549 -0.3599 -1.0309
   32MOL   C61923001   6.497   5.580   0.023 -0.5099  0.1010 -0.0900
   32MOL   C62023002   6.371   5.632   7.841 -0.2141  0.3475  0.1630
   32MOL   O62123003   6.264   5.659   0.011  0.0462 -0.1774  0.5293
   32MOL   N62223004   6.379   5.634   7.709  0.0429 -0.4710  0.4263
   32MOL   C62323005   6.272   5.680   7.624  0.3217 -0.3585  0.1187
   32MOL   C62423006   6.243   5.826   7.648 -0.0407 -0.0442 -0.6808
   32MOL   C62523007   6.357   5.914   7.596  0.4194 -0.0132  0.4876
   32MOL   C62623008   6.417   6.020   7.684  0.5168  0.6637 -0.2325
   32MOL   C62723009   6.499   5.943   7.787 -0.5082 -0.0588 -0.3123
   32MOL   C62823010   6.586   6.039   7.869 -0.1081 -0.1979 -0.1699
   32MOL   N62923011   6.659   5.973   0.094 -0.5544 -0.0667  0.1558
   32MOL   C63023012   6.492   5.536   0.154  0.0060 -0.5822  0.1648
   32MOL   C63123013   6.602   5.486   0.221 -0.1097  0.4111  0.1860
   32MOL   H63223014   6.836   5.527   7.861 -0.2054  0.4075 -0.5506
   32MOL   H63323015   6.642   5.612   7.748  2.0618  0.4158 -0.6279
   32MOL   H63423016   6.456   5.582   7.669 -0.9892 -0.4241 -1.6544
   32MOL   H63523017   6.294   5.670   7.518  1.7112  1.9699  0.1435
   32MOL   H63623018   6.182   5.625   7.652  0.2193 -0.2758 -0.0432
   32MOL   H63723019   6.205   5.852   7.747 -1.1644  1.0296 -1.3857
   32MOL   H63823020   6.152   5.847   7.592 -0.5063  0.7857  0.3642
   32MOL   H63923021   6.433   5.873   7.530  0.6817 -1.1486  1.4641
   32MOL   H64023022   6.299   5.975   7.528  0.7403  1.8974  1.8788
   32MOL   H64123023   6.340   6.080   7.734 -0.3598  0.9903 -1.9277
   32MOL   H64223024   6.486   6.089   7.636  2.4773 -0.0996  1.4426
   32MOL   H64323025   6.562   5.868   7.739 -0.9613  0.5426 -1.8485
   32MOL   H64423026   6.426   5.901   7.856 -0.4865 -0.2148 -0.3841
   32MOL   H64523027   6.662   6.091   7.812  0.7345  0.5422  1.5800
   32MOL   H64623028   6.518   6.112   0.028 -0.9660 -1.2679  0.2935
   32MOL   H64723029   6.751   5.944   0.064 -0.3047 -1.6472  2.3126
   32MOL   H64823030   6.401   5.530   0.212 -0.4452 -1.3948 -0.6136
   32MOL   H64923031   6.587   5.467   0.326  1.5849  0.8033  0.5050
   32MOL   C65023032   6.625   5.944   0.222 -0.2240 -0.3651 -0.1958
   32MOL   O65123033   6.520   5.972   0.272 -0.1829 -0.4015 -0.8807
   32MOL   C65223034   6.753   5.899   0.295 -0.4522 -0.3512  0.8539
   32MOL   C65323035   6.772   5.948   0.425 -1.3500  0.4931 -0.1811
   32MOL   C65423036   6.893   5.900   0.487 -0.3121  0.4870 -0.2239
   32MOL   C65523037   6.980   5.810   0.420 -0.4177  0.3322  0.2056
   32MOL   C65623038   7.097   5.759   0.493 -0.1973  0.5520  0.0511
   32MOL   O65723039   7.171   5.829   0.554 -0.2917 -0.1852 -0.9108
   32MOL   N65823040   7.101   5.622   0.502  0.5537  0.1985 -0.2182
   32MOL   C65923041   7.218   5.545   0.553  0.4861 -0.1770  0.0355
   32MOL   C66023042   7.280   5.461   0.437 -0.2760 -0.1225 -0.2932
   32MOL   C66123043   7.328   5.561   0.327 -0.9661  0.2843  0.6890
   32MOL   C66223044   7.407   5.494   0.212 -0.4433  0.1071  0.1009
   32MOL   C66323045   7.449   5.607   0.103 -0.3606  0.2727  0.8224
   32MOL   C66423046   7.533   5.561   7.864 -0.3903 -0.0220 -0.3451
   32MOL   N66523047   7.570   5.674   7.780  0.7748 -0.3792  0.4977
   32MOL   C66623048   6.957   5.758   0.292 -0.6530 -0.8095  0.4570
   32MOL   C66723049   6.840   5.805   0.228 -0.7562 -0.2624 -0.1905
   32MOL   H66823050   6.721   6.026   0.479  0.3663  1.2374  0.3961
   32MOL   H66923051   6.910   5.931   0.589 -0.4963 -1.0724  0.2978
   32MOL   H67023052   7.023   5.571   0.464  1.5873 -0.0273 -2.1181
   32MOL   H67123053   7.295   5.605   0.601 -1.1325  1.1085  1.0958
   32MOL   H67223054   7.181   5.485   0.637  1.9770 -0.3847  0.5571
   32MOL   H67323055   7.200   5.399   0.397  0.0918 -1.0236  0.3621
   32MOL   H67423056   7.360   5.397   0.472  0.3650  0.8852  0.1004
   32MOL   H67523057   7.236   5.599   0.283 -1.7597 -0.7763  1.4041
   32MOL   H67623058   7.389   5.637   0.376  0.7745  0.0554 -1.0767
   32MOL   H67723059   7.360   5.404   0.174 -0.8025  0.1130  0.5155
   32MOL   H67823060   7.500   5.456   0.254  0.3391  0.8482 -0.9473
   32MOL   H67923061   7.503   5.682   0.162  2.0691  0.7630 -1.8936
   32MOL   H68023062   7.363   5.657   0.059  0.7200 -0.0714 -1.7313
   32MOL   H68123063   7.620   5.505   0.014  0.2671  0.5639 -0.9807
   32MOL   H68223064   7.489   5.484   7.801  1.2816 -2.3887  1.2922
   32MOL   H68323065   7.514   5.758   7.788  2.8560  0.8490  2.4721
   32MOL   H68423066   7.028   5.688   0.252  1.1202  0.7040  0.8977
   32MOL   H68523067   6.809   5.774   0.129  0.3958 -0.5043 -0.4867
   32MOL   C68623068   7.690   5.711   7.733 -0.6222 -0.4651 -0.9694
   32MOL   O68723069   7.790   5.648   7.764  0.1347  0.1168 -0.4155
   32MOL   C68823070   7.686   5.846   7.661  0.0603 -0.5981 -0.8117
   32MOL   C68923071   7.602   5.868   7.551 -0.8223  0.6924 -0.3769
   32MOL   C69023072   7.589   6.004   7.498 -0.4019  0.2906  0.1480
   32MOL   C69123073   7.669   6.110   7.542 -0.2822  0.1553 -0.2561
   32MOL   C69223074   7.662   6.244   7.482  0.1488  0.0300 -0.0602
   32MOL   O69323075   7.605   6.257   7.375 -0.4191 -0.2014 -0.0296
   32MOL   N69423076   7.705   6.345   7.564 -0.4531 -0.0075 -0.5345
   32MOL   C69523077   7.711   6.485   7.522  0.2508  0.0970 -0.1499
   32MOL   C69623078   7.810   6.525   7.419 -0.4931 -0.0247 -0.4613
   32MOL   C69723079   7.806   6.675   7.381  0.0708  0.6827  0.2017
   32MOL   C69823080   0.036   6.705   7.291 -0.0171 -0.2933  0.1411
   32MOL   C69923081   0.174   6.724   7.361  0.4960  0.1252 -0.3662
   32MOL   C70023082   0.286   6.762   7.265 -0.2050 -0.8508  0.4342
   32MOL   N70123083   0.406   6.788   7.343  0.1145 -0.1053 -0.1435
   32MOL   C70223084   7.754   6.081   7.651  0.2391  0.9027  0.4964
   32MOL   C70323085   7.767   5.954   7.711 -0.3693 -0.1281 -0.1598
   32MOL   H70423086   7.539   5.786   7.521 -1.2682  0.1362  1.9439
   32MOL   H70523087   7.516   6.021   7.420  2.0986 -1.2431 -2.6330
   32MOL   H70623088   7.729   6.315   7.658  1.4259 -1.8466 -1.5664
   32MOL   H70723089   7.613   6.524   7.493  0.7758  2.2969  0.9632
   32MOL   H70823090   7.725   6.543   7.613  1.7142 -0.4027 -0.0513
   32MOL   H70923091   7.793   6.462   7.331 -0.1214  0.5161 -0.9241
   32MOL   H71023092   0.025   6.498   7.448 -0.5736 -0.0643 -0.2153
   32MOL   H71123093   7.711   6.711   7.343  1.5294  1.2927 -2.9935
   32MOL   H71223094   7.818   6.733   7.473 -0.1151  1.7335 -0.4398
   32MOL   H71323095   0.018   6.793   7.229 -0.4050 -0.4324  0.0557
   32MOL   H71423096   0.041   6.617   7.228  0.2927 -0.0574 -0.1676
   32MOL   H71523097   0.205   6.632   7.412 -0.9424 -0.1851 -0.0327
   32MOL   H71623098   0.157   6.804   7.432 -2.0293 -0.0272 -0.7838
   32MOL   H71723099   0.292   6.687   7.186  2.3895 -0.9117  0.6587
   32MOL   H71823100   0.257   6.851   7.210  2.8867 -0.2857 -0.3638
   32MOL   H71923101   0.444   6.702   7.380 -0.4104 -0.2001  0.1704
   32MOL   H72023102   7.806   6.161   7.701 -1.7165  1.6993  1.2878
   32MOL   H72123103   7.828   5.948   7.799 -1.2710 -0.9990  0.4090
   32MOL   H72223104   0.478   6.820   7.279  0.7606 -1.8656 -0.3457
   33MOL     C123105   0.581   3.015   4.670 -0.5574 -0.2649 -0.2040
   33MOL     O223106   0.549   3.010   4.550  0.3506 -0.4963  0.0949
   33MOL     C323107   0.686   2.936   4.740  0.4800 -0.4318 -0.1710
   33MOL     C423108   0.775   2.849   4.671  0.1018  0.7898  0.1020
   33MOL     C523109   0.876   2.775   4.741 -0.4019  0.6942  0.1969
   33MOL     C623110   0.889   2.792   4.881 -0.3603  0.1237  0.0812
   33MOL     C723111   0.986   2.711   4.958  1.1550 -0.2366 -0.5432
   33MOL     O823112   1.057   2.761   5.047  0.2613 -0.3247 -0.2041
   33MOL     N923113   0.975   2.580   4.928  0.5915 -0.7392 -0.1581
   33MOL    C1023114   1.056   2.475   4.991  0.6812 -0.1362 -0.1170
   33MOL    C1123115   0.989   2.420   5.121 -0.2044 -0.0312 -0.4636
   33MOL    C1223116   0.859   2.336   5.104  0.3960 -0.1597 -0.3688
   33MOL    C1323117   0.793   2.305   5.241 -0.0471 -0.2175  0.0151
   33MOL    C1423118   0.842   2.191   5.314  0.0940  0.3483  0.2322
   33MOL    C1523119   0.951   2.219   5.416  0.0105  0.8786  0.7920
   33MOL    N1623120   0.984   2.097   5.488  0.1502 -0.0020  0.6796
   33MOL    C1723121   0.814   2.886   4.942  0.0572  0.2412  0.2271
   33MOL    C1823122   0.702   2.950   4.883 -0.2122 -0.1768 -0.6767
   33MOL    H1923123   0.770   2.847   4.564  1.8780 -0.6467  0.0310
   33MOL    H2023124   0.952   2.719   4.689  1.5177  1.2532  2.3091
   33MOL    H2123125   0.908   2.559   4.855 -0.7083  2.4114  0.0505
   33MOL    H2223126   1.065   2.393   4.920 -3.5094  0.3273 -1.3238
   33MOL    H2323127   1.155   2.514   5.014  0.5512  0.9749 -1.4119
   33MOL    H2423128   0.974   2.504   5.189  1.7278 -0.3707  0.3968
   33MOL    H2523129   1.066   2.357   5.166  0.9704  0.0365 -2.3269
   33MOL    H2623130   0.783   2.396   5.054  0.4330  2.4858  2.5699
   33MOL    H2723131   0.866   2.244   5.046 -0.6381 -1.6131  1.7509
   33MOL    H2823132   0.688   2.288   5.220 -0.5016  1.0783  1.2188
   33MOL    H2923133   0.794   2.393   5.305  0.4205  0.3298 -0.7263
   33MOL    H3023134   0.877   2.128   5.232 -0.3479  0.9928 -0.4566
   33MOL    H3123135   0.759   2.138   5.361 -0.6808  0.8507 -0.5639
   33MOL    H3223136   1.042   2.263   5.375 -0.0394  1.5351  1.3678
   33MOL    H3323137   0.926   2.297   5.488 -1.9557 -0.0754  1.1769
   33MOL    H3423138   0.931   2.015   5.463  1.3692  0.1815 -2.6597
   33MOL    H3523139   0.834   2.907   5.045  0.0853 -0.6767  0.4103
   33MOL    H3623140   0.638   3.021   4.934 -0.2176 -0.1894 -0.6663
   33MOL    H3723141   0.542   3.085   4.744  2.7549 -0.1610  1.4934
   33MOL    C3823142   1.089   2.076   5.564 -0.3856  0.1430 -0.5854
   33MOL    O3923143   1.174   2.158   5.583  0.1985 -0.9096  1.0406
   33MOL    C4023144   1.107   1.939   5.623  0.4241 -0.7071  0.6921
   33MOL    C4123145   0.997   1.863   5.651  0.8276 -0.0877  0.0437
   33MOL    C4223146   1.000   1.737   5.709  0.6382  0.0749 -0.7506
   33MOL    C4323147   1.128   1.676   5.728 -0.0158 -0.3748  0.1810
   33MOL    C4423148   1.136   1.527   5.763 -0.1966  0.9986 -0.0087
   33MOL    O4523149   1.242   1.475   5.795  0.0198  0.2432  0.0727
   33MOL    N4623150   1.029   1.452   5.730 -0.1372 -0.0369 -0.5669
   33MOL    C4723151   1.024   1.305   5.727 -0.0415 -0.0666 -0.1623
   33MOL    C4823152   0.895   1.254   5.805  0.1578  0.6773 -0.0855
   33MOL    C4923153   0.893   1.100   5.822  0.2103 -0.7184  0.5781
   33MOL    C5023154   0.754   1.054   5.872 -0.4473  0.8919 -0.4595
   33MOL    C5123155   0.746   0.903   5.898 -0.3834  0.4764 -0.6595
   33MOL    C5223156   0.604   0.849   5.924  0.3947 -0.7352 -0.1116
   33MOL    N5323157   0.601   0.707   5.964  0.2095  0.4170  0.2349
   33MOL    C5423158   1.243   1.756   5.714  0.8534  0.6738 -0.7293
   33MOL    C5523159   1.232   1.885   5.655  0.3509  0.1432  0.4930
   33MOL    H5623160   0.898   1.904   5.637  1.5111  2.1009  1.3136
   33MOL    H5723161   0.906   1.685   5.723  0.6988 -0.5624 -2.5829
   33MOL    H5823162   0.947   1.498   5.695 -0.0927  0.4747 -0.0047
   33MOL    H5923163   1.028   1.268   5.625 -0.4123  0.8788 -0.5288
   33MOL    H6023164   1.109   1.263   5.780 -0.3279 -1.9242 -1.1394
   33MOL    H6123165   0.804   1.287   5.754 -0.7998 -0.0537  1.1384
   33MOL    H6223166   0.890   1.303   5.902  1.5232 -1.2096  0.9716
   33MOL    H6323167   0.918   1.065   5.722 -2.1884  2.3125 -1.1632
   33MOL    H6423168   0.973   1.072   5.892  0.8949  1.1872  0.5961
   33MOL    H6523169   0.691   1.093   5.792 -0.7330 -0.0481 -0.6946
   33MOL    H6623170   0.722   1.117   5.955 -3.9635 -0.5797 -0.6228
   33MOL    H6723171   0.818   0.893   5.979 -0.0705  0.2876 -0.9597
   33MOL    H6823172   0.791   0.854   5.812  1.3789  0.8455  0.0354
   33MOL    H6923173   0.574   0.896   6.018  0.7868  1.6640 -1.1522
   33MOL    H7023174   0.529   0.867   5.847 -0.5258 -2.1378  0.4272
   33MOL    H7123175   0.668   0.668   6.030  1.0993 -1.3415 -1.6572
   33MOL    H7223176   1.343   1.718   5.727 -0.0099 -1.4632 -0.1018
   33MOL    H7323177   1.319   1.944   5.633  0.2625 -0.1807 -0.7263
   33MOL    C7423178   0.504   0.622   5.938 -0.8041 -0.9193  0.6797
   33MOL    O7523179   0.404   0.653   5.875  0.3608  0.1182  0.2965
   33MOL    C7623180   0.518   0.474   5.995 -0.7688  0.0354 -0.4450
   33MOL    C7723181   0.633   0.397   5.972 -0.3989 -0.0326  0.4282
   33MOL    C7823182   0.633   0.261   6.011  0.4188 -0.2430 -0.2851
   33MOL    C7923183   0.525   0.203   6.079  0.0715 -0.0368 -0.9723
   33MOL    C8023184   0.529   0.057   6.118 -1.2338 -0.2067 -0.1733
   33MOL    O8123185   0.458   0.002   6.206 -0.8789 -0.3122  0.1750
   33MOL    N8223186   0.620   7.872   6.051 -0.2480 -0.2651 -0.5862
   33MOL    C8323187   0.658   7.734   6.069 -0.0935  0.5489  0.3363
   33MOL    C8423188   0.722   7.664   5.950  0.0274  0.3777 -0.6164
   33MOL    C8523189   0.838   7.740   5.878  0.1313  0.0633  0.3526
   33MOL    C8623190   0.879   7.690   5.738 -0.3495  0.1308 -0.1593
   33MOL    C8723191   0.776   7.727   5.628 -1.0414  0.7475 -0.1752
   33MOL    C8823192   0.811   7.702   5.483  0.4327 -0.5980  0.6358
   33MOL    N8923193   0.893   7.805   5.426  0.5827 -1.0573 -0.4241
   33MOL    C9023194   0.410   0.280   6.104 -0.0059  0.8174 -1.1006
   33MOL    C9123195   0.411   0.417   6.060  0.1802 -0.3587  0.7449
   33MOL    H9223196   0.713   0.435   5.910 -0.5946  0.0162  0.2066
   33MOL    H9323197   0.720   0.196   6.013 -1.3516 -2.6410  0.6530
   33MOL    H9423198   0.670   0.049   5.990 -0.8002  1.3753  0.6176
   33MOL    H9523199   0.731   7.720   6.148  0.8363 -4.3961 -1.2335
   33MOL    H9623200   0.569   7.676   6.093  0.0611  0.5541  0.9158
   33MOL    H9723201   0.652   7.630   5.874 -1.0097  1.2982 -0.0981
   33MOL    H9823202   0.762   7.569   5.986  0.4561  0.4524 -0.8936
   33MOL    H9923203   0.815   7.845   5.864  1.8875  0.6204  1.4625
   33MOL   H10023204   0.924   7.748   5.945  0.9178 -1.6646 -0.4110
   33MOL   H10123205   0.896   7.583   5.721  4.0592  1.1342 -2.8323
   33MOL   H10223206   0.974   7.735   5.709 -0.6368  1.0537  0.3434
   33MOL   H10323207   0.740   7.829   5.641 -2.5378  0.0147  1.6992
   33MOL   H10423208   0.688   7.664   5.638  0.4687 -1.2638  0.8560
   33MOL   H10523209   0.867   7.609   5.472  0.2345 -0.5526 -0.9436
   33MOL   H10623210   0.720   7.693   5.423  0.8015 -1.6785  0.2286
   33MOL   H10723211   0.937   7.869   5.490 -0.2991 -0.3903 -0.4680
   33MOL   H10823212   0.318   0.248   6.151 -0.0708 -0.8256 -2.2811
   33MOL   H10923213   0.324   0.473   6.092  0.4051 -0.9220  2.3737
   33MOL   C11023214   0.924   7.833   5.299 -0.2750 -0.1901  0.1932
   33MOL   O11123215   0.893   7.756   5.212 -0.0502 -0.1268 -0.0058
   33MOL   C11223216   0.993   0.081   5.279  0.6012 -0.0817  0.1889
   33MOL   C11323217   0.961   0.193   5.364  0.1395  0.8570 -0.4358
   33MOL   C11423218   1.016   0.318   5.337 -0.4731  0.0026 -0.6572
   33MOL   C11523219   1.104   0.336   5.235  0.6282 -0.2517  0.0009
   33MOL   C11623220   1.174   0.466   5.216 -0.3953  0.0816 -0.2948
   33MOL   O11723221   1.284   0.469   5.162  0.3029  0.3878  0.3522
   33MOL   N11823222   1.107   0.571   5.271 -0.9644  0.4242  0.0304
   33MOL   C11923223   1.156   0.707   5.270  0.2549 -0.4023 -0.4081
   33MOL   C12023224   1.030   0.789   5.298 -1.0593  0.4928  0.2063
   33MOL   C12123225   0.957   0.783   5.431 -0.1853 -0.0147 -0.3049
   33MOL   C12223226   0.837   0.682   5.428  0.1663 -0.3917 -0.0635
   33MOL   C12323227   0.767   0.685   5.566  0.4047  0.1570  0.5796
   33MOL   C12423228   0.632   0.614   5.591  0.2093  0.1618 -0.3999
   33MOL   N12523229   0.608   0.506   5.506 -0.7261 -0.0951 -0.1117
   33MOL   C12623230   1.133   0.228   5.153 -0.3266 -0.4943  0.3129
   33MOL   C12723231   1.078   0.102   5.170 -0.0339  0.0732  0.3467
   33MOL   H12823232   0.892   0.195   5.448  3.0471 -0.3492  2.1012
   33MOL   H12923233   0.996   0.404   5.399  0.9066  1.1606 -1.7829
   33MOL   H13023234   1.011   0.551   5.296 -0.9725  1.0842  0.5206
   33MOL   H13123235   1.230   0.713   5.350  1.6917 -1.2512 -1.6564
   33MOL   H13223236   1.196   0.721   5.169  0.2825 -0.5565 -0.4186
   33MOL   H13323237   0.954   0.785   5.220 -0.1960  0.3213 -0.6260
   33MOL   H13423238   1.056   0.895   5.302  1.4306 -0.1090  0.4324
   33MOL   H13523239   1.033   0.774   5.508 -1.5553  0.1568  1.0919
   33MOL   H13623240   0.909   0.879   5.446 -2.7718 -1.5879  1.9791
   33MOL   H13723241   0.883   0.583   5.416  1.1952  0.3084 -2.0836
   33MOL   H13823242   0.766   0.688   5.345 -0.1111  0.8604  0.2535
   33MOL   H13923243   0.736   0.789   5.577 -1.6102 -0.3485 -0.0834
   33MOL   H14023244   0.840   0.675   5.646  1.7718 -2.2484 -0.9161
   33MOL   H14123245   0.626   0.600   5.699  0.9977  2.0813 -0.0896
   33MOL   H14223246   0.553   0.685   5.571 -1.2110 -1.8963 -2.3041
   33MOL   H14323247   0.542   0.523   5.432 -0.6735  1.7484  0.2294
   33MOL   H14423248   1.215   0.236   5.083  0.2521 -2.0695  0.7786
   33MOL   H14523249   1.113   0.021   5.107  0.0246  1.5997 -1.6422
   33MOL   C14623250   0.639   0.375   5.525 -0.0878  0.2767 -0.1280
   33MOL   O14723251   0.707   0.342   5.623  0.8806  0.6663  0.0904
   33MOL   C14823252   0.577   0.278   5.426 -0.2673 -0.2609 -0.4483
   33MOL   C14923253   0.620   0.146   5.417  0.3120 -0.0562 -0.0698
   33MOL   C15023254   0.541   0.056   5.337 -0.5693 -0.6665  0.0115
   33MOL   C15123255   0.426   0.101   5.263 -0.3252  0.0993  0.1311
   33MOL   C15223256   0.350   0.021   5.171  0.0744  0.1578  0.8707
   33MOL   O15323257   0.404   7.825   5.100 -0.0025  0.0925  0.0925
   33MOL   N15423258   0.215   0.040   5.164  0.2465  0.1839 -0.3619
   33MOL   C15523259   0.119   7.863   5.068  0.0865 -0.1552  0.5364
   33MOL   C15623260   0.068   0.087   4.971  0.8488 -0.6011  0.1304
   33MOL   C15723261   0.026   0.221   5.039 -0.2013 -0.2456 -0.6781
   33MOL   C15823262   7.867   0.327   4.940 -0.5382  0.5265 -0.0588
   33MOL   C15923263   7.746   0.303   4.848  0.4181 -0.3321 -0.3818
   33MOL   C16023264   7.694   0.433   4.784 -0.2410  0.1966  0.8635
   33MOL   N16123265   7.588   0.418   4.684 -0.2172  0.2134  0.1440
   33MOL   C16223266   0.394   0.236   5.271  0.3062  0.3699  0.4745
   33MOL   C16323267   0.465   0.325   5.359  0.1144  1.4851  0.1237
   33MOL   H16423268   0.706   0.111   5.472  2.0194  1.3818 -1.7360
   33MOL   H16523269   0.576   7.840   5.335 -0.2899 -0.5553 -0.9218
   33MOL   H16623270   0.168   0.102   5.228 -2.9769 -1.8142 -0.6403
   33MOL   H16723271   0.163   7.785   5.005 -1.1456  0.8100 -1.5887
   33MOL   H16823272   0.041   7.814   5.127  0.0609  0.0100  0.6390
   33MOL   H16923273   7.871   0.054   4.908  2.7363 -1.2215 -2.0922
   33MOL   H17023274   0.151   0.114   4.906  0.1822  1.1652 -0.0190
   33MOL   H17123275   7.829   0.206   5.109 -0.0031  1.3733 -0.0863
   33MOL   H17223276   0.108   0.268   5.092 -1.2848  0.6260  0.2486
   33MOL   H17323277   0.057   0.358   4.868 -1.0334 -0.6340 -1.1156
   33MOL   H17423278   7.843   0.409   5.007  1.1793  0.3034  0.8493
   33MOL   H17523279   7.659   0.275   4.907 -0.9890  3.5865 -0.4708
   33MOL   H17623280   7.758   0.224   4.773 -2.0526  0.0935 -1.2550
   33MOL   H17723281   7.661   0.503   4.861 -1.2402  0.6939 -0.0088
   33MOL   H17823282   7.776   0.483   4.732 -1.2557  0.3585 -0.6053
   33MOL   H17923283   7.571   0.329   4.638  3.4220 -0.7796  0.5375
   33MOL   H18023284   0.311   0.284   5.220  1.1484  0.0493 -1.2225
   33MOL   H18123285   0.429   0.426   5.368 -0.1197  1.3640  0.5396
   33MOL   C18223286   7.511   0.516   4.635 -0.3549  0.5244 -0.1635
   33MOL   O18323287   7.538   0.634   4.642  0.0768 -0.1178  0.3470
   33MOL   C18423288   7.390   0.466   4.558  0.4651  0.3934 -0.2485
   33MOL   C18523289   7.355   0.541   4.443  0.2471  0.4250  0.0097
   33MOL   C18623290   7.251   0.495   4.368  0.9614  0.4353  0.7662
   33MOL   C18723291   7.182   0.376   4.400 -0.1178 -0.1821 -0.7312
   33MOL   C18823292   7.065   0.327   4.325 -0.0434  0.0156 -0.1376
   33MOL   O18923293   7.024   0.210   4.341  0.0820 -0.1734  0.2545
   33MOL   N19023294   7.020   0.408   4.233  0.8611  0.1217  0.1719
   33MOL   C19123295   6.920   0.355   4.129 -0.0454 -0.3905  0.4507
   33MOL   C19223296   6.861   0.475   4.052 -0.4102  0.6819  0.5827
   33MOL   C19323297   6.956   0.591   4.018 -0.4852  0.2938  0.0171
   33MOL   C19423298   6.873   0.705   3.959  0.0029  0.3527 -0.3105
   33MOL   C19523299   6.953   0.800   3.868 -0.1305 -0.1071 -0.6698
   33MOL   C19623300   7.044   0.896   3.951  0.2086 -0.3960  0.1866
   33MOL   N19723301   7.120   0.984   3.860  0.0478  0.1941  0.5976
   33MOL   C19823302   7.226   0.298   4.506 -0.2304  0.0545  0.0416
   33MOL   C19923303   7.327   0.344   4.594  0.3168 -0.1488  0.0863
   33MOL   H20023304   7.402   0.631   4.408 -1.0398  0.9240 -0.4571
   33MOL   H20123305   7.221   0.555   4.283 -1.4258  0.8130  1.8424
   33MOL   H20223306   7.065   0.494   4.207  0.9315 -0.4243 -1.5705
   33MOL   H20323307   6.963   0.287   4.056  2.9084 -0.6198  2.3467
   33MOL   H20423308   6.829   0.308   4.164 -2.0657  1.3574 -2.1754
   33MOL   H20523309   6.774   0.506   4.109 -1.2714  0.7726 -0.7468
   33MOL   H20623310   6.814   0.440   3.960  3.7581 -0.6955 -1.1734
   33MOL   H20723311   7.007   0.619   4.110  1.2368  0.9627 -1.0933
   33MOL   H20823312   7.022   0.540   3.947 -2.7431 -0.9464 -1.2332
   33MOL   H20923313   6.821   0.757   4.039  1.7400  2.2531 -0.3686
   33MOL   H21023314   6.785   0.674   3.902  0.5153  1.2008 -1.5943
   33MOL   H21123315   6.878   0.853   3.810 -1.0248 -1.1230 -0.4455
   33MOL   H21223316   7.016   0.747   3.797  1.0226 -2.2335  1.8846
   33MOL   H21323317   6.981   0.961   4.011 -0.0117  1.1295 -1.6575
   33MOL   H21423318   7.106   0.846   4.025 -0.0085 -0.5729  0.2485
   33MOL   H21523319   7.077   1.068   3.827  0.9420 -0.1625 -1.5529
   33MOL   H21623320   7.186   0.200   4.529 -2.7418  1.0972  0.2654
   33MOL   H21723321   7.378   0.287   4.670  3.1027  1.0082 -0.8669
   33MOL   C21823322   7.245   0.948   3.816 -0.5786  0.1238 -0.1318
   33MOL   O21923323   7.294   0.842   3.860 -0.7454 -0.0673  0.0621
   33MOL   C22023324   7.324   1.040   3.725  0.5977  0.9914  1.2246
   33MOL   C22123325   7.451   1.004   3.668  0.5342 -0.1399  0.3586
   33MOL   C22223326   7.515   1.088   3.581 -0.6662  0.0966  0.3691
   33MOL   C22323327   7.457   1.209   3.549  0.0911  0.5500 -0.2857
   33MOL   C22423328   7.528   1.301   3.452 -0.3898  0.0599  0.0909
   33MOL   O22523329   7.462   1.350   3.359  0.5276  0.3449  0.2753
   33MOL   N22623330   7.661   1.324   3.471 -0.1655 -0.0489  0.3214
   33MOL   C22723331   7.749   1.369   3.370  0.1428  0.2765 -0.1670
   33MOL   C22823332   7.809   1.246   3.307 -0.4071 -0.5561  0.3179
   33MOL   C22923333   7.884   1.141   3.397 -0.0120 -0.3278  0.5888
   33MOL   C23023334   0.054   1.024   3.310 -0.2001 -0.4341  0.9927
   33MOL   C23123335   7.842   0.947   3.218  0.7301 -0.0379  0.4344
   33MOL   C23223336   0.026   0.884   3.102 -0.0114 -0.4004 -0.2238
   33MOL   N23323337   0.092   0.983   3.001  0.7067 -0.2624 -0.2051
   33MOL   C23423338   7.335   1.243   3.600  0.2534  0.1801  0.0414
   33MOL   C23523339   7.271   1.166   3.693 -0.6108 -0.1183 -0.8972
   33MOL   H23623340   7.498   0.907   3.679  1.9440  0.3727 -1.0267
   33MOL   H23723341   7.614   1.064   3.546 -1.0583 -1.0738  0.0142
   33MOL   H23823342   7.704   1.291   3.555 -1.0006 -0.3198  0.6530
   33MOL   H23923343   7.693   1.427   3.297  0.2843 -1.1907 -1.4765
   33MOL   H24023344   7.829   1.435   3.404  0.9117 -1.5459  1.6906
   33MOL   H24123345   7.866   1.280   3.221 -2.0924  0.5982 -0.3729
   33MOL   H24223346   7.726   1.189   3.265 -1.8688  1.8846 -0.1447
   33MOL   H24323347   0.082   1.195   3.441  1.4164 -1.2084 -0.9718
   33MOL   H24423348   7.824   1.111   3.483  0.8617  2.0587  2.0882
   33MOL   H24523349   0.110   0.961   3.379  1.4456 -0.9694 -0.8035
   33MOL   H24623350   0.127   1.079   3.252 -0.7823 -1.2028 -0.4886
   33MOL   H24723351   7.762   1.003   3.170  0.0754 -0.8717  0.5495
   33MOL   H24823352   7.786   0.875   3.278  1.9589 -2.1991 -0.9048
   33MOL   H24923353   0.108   0.822   3.138  1.3609  0.2267 -2.1962
   33MOL   H25023354   7.843   0.818   3.051  0.7862 -0.9824 -0.5559
   33MOL   H25123355   0.115   1.073   3.039  0.3668 -0.0667 -0.4578
   33MOL   H25223356   7.293   1.340   3.580  1.2489  0.9698  1.6478
   33MOL   H25323357   7.178   1.209   3.726 -1.3313 -1.1434 -1.5835
   33MOL   C25423358   0.117   0.958   2.869 -0.2131  0.0330 -0.8037
   33MOL   O25523359   0.106   0.852   2.808  0.3509 -0.2702 -0.1731
   33MOL   C25623360   0.153   1.080   2.791  0.5387 -0.3211  0.3283
   33MOL   C25723361   0.115   1.210   2.837  0.3887 -0.2853 -0.1874
   33MOL   C25823362   0.152   1.327   2.772  0.0243 -0.0752 -0.4380
   33MOL   C25923363   0.222   1.316   2.647  0.5586  1.5482  0.2313
   33MOL   C26023364   0.276   1.432   2.563  0.4325  0.7279  0.8837
   33MOL   O26123365   0.221   1.543   2.572 -0.0476  0.5015  0.1824
   33MOL   N26223366   0.393   1.410   2.497 -0.4502  0.2671  0.8927
   33MOL   C26323367   0.463   1.522   2.434  0.1649  0.0154 -0.7195
   33MOL   C26423368   0.544   1.595   2.541  0.3863 -0.1004 -0.0794
   33MOL   C26523369   0.610   1.734   2.513  0.6058  0.4097  0.3393
   33MOL   C26623370   0.527   1.841   2.582 -0.8711 -0.4075 -0.7063
   33MOL   C26723371   0.383   1.867   2.530 -0.1701 -0.1653  0.4649
   33MOL   C26823372   0.399   1.912   2.383  0.7637 -0.1639  0.1706
   33MOL   N26923373   0.259   1.947   2.330 -0.0715  0.2999 -0.7579
   33MOL   C27023374   0.252   1.188   2.598  0.2705  0.2608 -0.7437
   33MOL   C27123375   0.224   1.070   2.671 -0.3105  0.0868  0.2398
   33MOL   H27223376   0.040   1.226   2.913  1.3066  0.8299  0.5114
   33MOL   H27323377   0.124   1.428   2.795 -0.2218  0.2632 -2.1408
   33MOL   H27423378   0.421   1.314   2.480  2.0649  1.0901  0.0582
   33MOL   H27523379   0.535   1.489   2.360  0.1962  0.7841 -1.0395
   33MOL   H27623380   0.401   1.600   2.390  2.5999  1.7016 -1.2231
   33MOL   H27723381   0.630   1.528   2.552  0.1374 -0.3606  0.3064
   33MOL   H27823382   0.489   1.597   2.635  0.4618 -1.6798  0.0047
   33MOL   H27923383   0.706   1.743   2.564  0.9803  0.3930 -0.3622
   33MOL   H28023384   0.628   1.746   2.406 -0.4233 -2.4612 -0.1989
   33MOL   H28123385   0.576   1.938   2.586 -2.0281  0.1264  2.2433
   33MOL   H28223386   0.531   1.822   2.690 -0.2549 -0.9423 -0.8193
   33MOL   H28323387   0.338   1.936   2.601 -2.5869 -1.9308  0.7070
   33MOL   H28423388   0.330   1.772   2.525  1.2228 -0.9883  0.9494
   33MOL   H28523389   0.461   2.002   2.382 -1.1241  1.1861 -3.1789
   33MOL   H28623390   0.455   1.846   2.318  0.7850 -0.8111  0.8416
   33MOL   H28723391   0.211   2.034   2.350 -4.1515 -1.9435 -0.3455
   33MOL   H28823392   0.309   1.168   2.509 -0.2633  0.9117 -1.2351
   33MOL   H28923393   0.265   0.976   2.635  0.8099  0.6723 -0.0526
   33MOL   C29023394   0.190   1.849   2.266 -0.2617  0.7046  0.1183
   33MOL   O29123395   0.234   1.733   2.251  0.5834 -0.1017  0.0502
   33MOL   C29223396   0.059   1.872   2.196 -0.7865  0.5823 -0.1485
   33MOL   C29323397   7.857   1.762   2.170 -0.5131  0.0129  0.2337
   33MOL   C29423398   7.745   1.782   2.079 -0.3636 -0.0422 -0.4133
   33MOL   C29523399   7.714   1.909   2.018 -0.0612 -0.0936 -0.8410
   33MOL   C29623400   7.594   1.915   1.931 -0.3432  0.3688 -0.1189
   33MOL   O29723401   7.486   1.870   1.957  0.7477 -0.1841 -0.1952
   33MOL   N29823402   7.605   1.965   1.811  0.0755  0.1789 -0.1261
   33MOL   C29923403   7.498   1.983   1.709 -0.3222 -0.1798  0.3921
   33MOL   C30023404   7.373   2.055   1.770  0.8425 -0.0461 -0.0588
   33MOL   C30123405   7.307   2.136   1.663  0.2063  0.3483 -0.2604
   33MOL   C30223406   7.186   2.209   1.716 -0.2567 -0.1227 -0.6061
   33MOL   C30323407   7.124   2.309   1.614  0.1494  0.3066 -0.5428
   33MOL   C30423408   6.986   2.366   1.647  0.0288  0.1224 -0.0990
   33MOL   N30523409   6.942   2.464   1.546  0.3193 -0.4377  0.0793
   33MOL   C30623410   7.799   2.018   2.048 -0.1276  0.3859  0.7319
   33MOL   C30723411   0.027   2.000   2.132  0.2215 -0.3269  0.6001
   33MOL   H30823412   7.878   1.662   2.207  1.8438 -0.0588 -1.1731
   33MOL   H30923413   7.683   1.696   2.060 -0.1613  0.3338 -2.9652
   33MOL   H31023414   7.698   1.995   1.785 -0.6226  0.4780 -2.3399
   33MOL   H31123415   7.533   2.050   1.631 -1.1691 -0.8219 -0.5553
   33MOL   H31223416   7.470   1.884   1.674 -0.1291 -0.6589  1.5466
   33MOL   H31323417   7.407   2.123   1.848  2.1426  0.0697 -0.7102
   33MOL   H31423418   7.307   1.979   1.812  0.0210  0.9078  0.4146
   33MOL   H31523419   7.378   2.204   1.616 -0.8394  1.4109 -0.3267
   33MOL   H31623420   7.276   2.074   1.579 -1.6261  1.6952 -0.5968
   33MOL   H31723421   7.209   2.270   1.803  1.7750 -2.8278  0.8328
   33MOL   H31823422   7.115   2.131   1.743  2.2387 -2.2162  0.0421
   33MOL   H31923423   7.122   2.257   1.518  1.3946 -0.5288 -0.1259
   33MOL   H32023424   7.192   2.392   1.595  0.6432 -0.1038 -0.5812
   33MOL   H32123425   6.914   2.286   1.664  1.0644 -1.0573 -1.1617
   33MOL   H32223426   6.997   2.419   1.742 -0.6431 -2.8826  1.7005
   33MOL   H32323427   6.905   2.555   1.572  1.3910 -0.3161  1.2200
   33MOL   H32423428   7.772   2.118   2.019 -2.6499 -0.3688  0.3740
   33MOL   H32523429   0.099   2.079   2.147  2.0592 -1.7148 -0.7023
   33MOL   C32623430   6.908   2.422   1.425  1.1084 -0.6537 -0.3986
   33MOL   O32723431   6.915   2.301   1.390  0.4020 -0.1022  0.0613
   33MOL   C32823432   6.867   2.521   1.318  0.1941 -0.4483 -0.9775
   33MOL   C32923433   6.866   2.664   1.342  0.3437 -0.9208 -0.0469
   33MOL   C33023434   6.797   2.747   1.254  0.3560  0.2331  0.7440
   33MOL   C33123435   6.733   2.694   1.138  0.2302 -0.1173 -0.6414
   33MOL   C33223436   6.669   2.795   1.047  1.0171  0.0165  0.2120
   33MOL   O33323437   6.583   2.874   1.083 -0.3972  0.2331  0.3391
   33MOL   N33423438   6.721   2.788   0.928 -0.1679 -0.0111 -0.1331
   33MOL   C33523439   6.704   2.899   0.830 -0.3307  0.1328  0.0451
   33MOL   C33623440   6.775   2.871   0.698  0.0887  0.2305  0.6572
   33MOL   C33723441   6.726   2.975   0.596  0.6825  0.5946  0.0483
   33MOL   C33823442   6.798   2.968   0.462  0.8198  0.0562 -0.3998
   33MOL   C33923443   6.702   3.021   0.355 -0.6326 -0.1722 -0.2177
   33MOL   C34023444   6.777   3.034   0.217 -0.2731  0.3181  1.1091
   33MOL   N34123445   6.827   2.911   0.164  0.5458 -0.3223  0.2172
   33MOL   C34223446   6.732   2.557   1.113 -0.1543 -0.1383 -0.2203
   33MOL   C34323447   6.797   2.473   1.208  0.1811 -0.5841  0.3414
   33MOL   H34423448   6.904   2.704   1.435 -1.5951 -0.2910  0.5005
   33MOL   H34523449   6.781   2.851   1.281 -0.3293  0.4805 -0.5416
   33MOL   H34623450   6.792   2.717   0.923  0.5298  0.7771 -1.6589
   33MOL   H34723451   6.598   2.901   0.807 -1.1248 -3.4139  2.8241
   33MOL   H34823452   6.741   2.992   0.874  2.6848  0.3313 -2.7357
   33MOL   H34923453   6.755   2.767   0.673 -0.0806  0.2817  0.5741
   33MOL   H35023454   6.882   2.888   0.708 -0.3425  2.1137  2.6448
   33MOL   H35123455   6.619   2.963   0.580  0.5289  0.7446  0.9401
   33MOL   H35223456   6.736   3.073   0.641  3.0773  0.4342 -0.0812
   33MOL   H35323457   6.838   2.871   0.433  3.2619  0.6962  0.6653
   33MOL   H35423458   6.885   3.034   0.468  0.8353  0.3661 -3.1687
   33MOL   H35523459   6.652   3.108   0.396  1.7646  0.9429  0.4235
   33MOL   H35623460   6.628   2.943   0.336 -2.5387  1.7042 -0.6016
   33MOL   H35723461   6.712   3.086   0.147 -1.4140 -0.6919  1.3975
   33MOL   H35823462   6.856   3.108   0.230  0.5618 -0.2743 -0.4949
   33MOL   H35923463   6.772   2.828   0.179 -1.2041  1.1927  2.4929
   33MOL   H36023464   6.677   2.523   1.027 -0.4016 -0.0042 -0.1162
   33MOL   H36123465   6.780   2.367   1.200 -3.3064 -0.0380 -0.5301
   33MOL   C36223466   6.953   2.887   0.120  0.3212 -0.4227  0.0728
   33MOL   O36323467   7.045   2.968   0.144 -0.4857  0.5728 -0.4360
   33MOL   C36423468   6.986   2.758   0.060  0.7293 -0.3518  0.7677
   33MOL   C36523469   7.112   2.701   0.062  0.5542  0.2541  0.0644
   33MOL   C36623470   7.139   2.573   0.009  0.5619 -0.3578  0.5289
   33MOL   C36723471   7.042   2.501   7.832  0.3205  0.1167  0.0882
   33MOL   C36823472   7.077   2.375   7.765  0.0258 -0.1507  0.5683
   33MOL   O36923473   7.192   2.371   7.710  0.1631  0.2698 -0.1972
   33MOL   N37023474   6.992   2.273   7.784 -0.1991 -0.6680 -0.1936
   33MOL   C37123475   7.005   2.141   7.719  0.1366 -0.2003 -0.6497
   33MOL   C37223476   6.909   2.040   7.770  0.0538 -0.0245  0.2772
   33MOL   C37323477   6.922   1.902   7.706 -0.1287 -1.2416 -0.3477
   33MOL   C37423478   6.821   1.795   7.740  0.4585  0.4856 -0.0960
   33MOL   C37523479   6.868   1.656   7.686 -0.4696  0.0199 -0.4975
   33MOL   C37623480   6.871   1.621   7.533 -0.4364 -0.0033 -0.0309
   33MOL   N37723481   6.962   1.512   7.495  0.6536  0.7897 -0.0338
   33MOL   C37823482   6.918   2.557   7.831  0.3734 -0.2902 -0.1618
   33MOL   C37923483   6.887   2.684   7.879 -0.0744 -0.0366  0.4098
   33MOL   H38023484   7.188   2.762   0.109  1.0499 -1.8688  2.1414
   33MOL   H38123485   7.241   2.542   7.878  0.3340 -0.0566 -1.5574
   33MOL   H38223486   6.918   2.286   7.851 -0.6519  0.8686 -0.9766
   33MOL   H38323487   7.020   2.158   7.613  1.8516  1.5393 -0.1490
   33MOL   H38423488   7.097   2.099   7.759 -1.5815 -1.4752  2.1235
   33MOL   H38523489   6.804   2.069   7.774  0.1132  0.3814 -0.8555
   33MOL   H38623490   6.930   2.036   7.877  1.4658  2.0145  0.1163
   33MOL   H38723491   6.923   1.915   7.598 -1.4537 -1.1472 -0.3576
   33MOL   H38823492   7.019   1.858   7.728 -0.2610 -2.5287 -2.2326
   33MOL   H38923493   6.729   1.828   7.692 -0.6913  2.1377  3.0617
   33MOL   H39023494   6.795   1.779   7.845  1.0164  0.6237  0.0634
   33MOL   H39123495   6.798   1.586   7.732  0.2428  1.0806  2.2953
   33MOL   H39223496   6.970   1.638   7.721 -0.9734  0.8037  1.4441
   33MOL   H39323497   6.770   1.593   7.505 -0.4391 -1.0522  0.9804
   33MOL   H39423498   6.889   1.709   7.471 -0.4663 -0.0152 -0.0561
   33MOL   H39523499   7.044   1.535   7.440  1.0656  1.0382  0.6836
   33MOL   H39623500   6.844   2.493   7.785  1.9439 -1.8536 -0.5473
   33MOL   H39723501   6.785   2.719   7.873 -0.1818 -0.1244  1.5729
   33MOL   C39823502   6.930   1.385   7.522  0.4232  0.4612 -0.5053
   33MOL   O39923503   6.812   1.346   7.551  0.0174  0.2128  0.3786
   33MOL   C40023504   7.029   1.279   7.497  0.1389  0.1949 -0.3872
   33MOL   C40123505   7.164   1.311   7.528  0.0360  0.3150 -0.1496
   33MOL   C40223506   7.259   1.208   7.531  0.1356  0.3429  0.0798
   33MOL   C40323507   7.232   1.076   7.502  0.4932  0.5746  0.1120
   33MOL   C40423508   7.335   0.970   7.506 -0.3564  0.1839  0.3052
   33MOL   O40523509   7.440   0.984   7.565 -0.2414  0.0529  0.5043
   33MOL   N40623510   7.312   0.860   7.431  0.2853 -0.3714  0.3515
   33MOL   C40723511   7.395   0.735   7.420 -0.1510 -0.5690  1.1193
   33MOL   C40823512   7.326   0.620   7.495  0.4184 -0.0941  0.0064
   33MOL   C40923513   7.342   0.639   7.647 -0.0125 -0.6350  1.0406
   33MOL   C41023514   7.220   0.676   7.720  0.7487 -0.5356 -1.0132
   33MOL   C41123515   7.254   0.724   7.863  1.0369  0.0456 -0.4838
   33MOL   C41223516   7.307   0.609   0.066 -0.7933  0.1437 -0.1406
   33MOL   N41323517   7.201   0.515   0.102  0.2338  0.0942  0.3241
   33MOL   C41423518   7.095   1.043   7.464  0.3508  0.6402 -0.4360
   33MOL   C41523519   6.999   1.142   7.467 -0.2178 -0.6255 -0.4044
   33MOL   H41623520   7.199   1.412   7.542  1.9225 -0.1823 -1.1329
   33MOL   H41723521   7.359   1.241   7.555 -0.0107  1.0227 -0.2344
   33MOL   H41823522   7.216   0.867   7.399  0.7074  2.0397 -0.4768
   33MOL   H41923523   7.417   0.720   7.314 -2.8744 -1.5506  0.6491
   33MOL   H42023524   7.493   0.763   7.457 -0.1827 -2.1897  2.4671
   33MOL   H42123525   7.384   0.534   7.464  0.5497 -0.8155  2.1468
   33MOL   H42223526   7.221   0.613   7.469  0.2125  0.3396  0.7016
   33MOL   H42323527   7.385   0.545   7.681  0.6716 -1.9017 -3.0721
   33MOL   H42423528   7.412   0.721   7.662  0.0302 -0.5998  0.6365
   33MOL   H42523529   7.150   0.593   7.713  1.0381 -0.8616  0.0095
   33MOL   H42623530   7.164   0.765   7.690 -0.6679 -0.9304  0.4161
   33MOL   H42723531   7.161   0.742   0.031  0.4493  1.0457 -1.8099
   33MOL   H42823532   7.308   0.817   7.849 -0.3316  1.0209  0.6179
   33MOL   H42923533   7.388   0.554   0.019 -0.3102  1.3348 -0.7211
   33MOL   H43023534   7.326   0.658   0.161  1.0072  0.0815 -0.4556
   33MOL   H43123535   7.109   0.558   0.098  0.9004  1.3924 -1.1795
   33MOL   H43223536   7.058   0.948   7.430  1.9921  0.8069 -2.8657
   33MOL   H43323537   6.897   1.106   7.455 -1.1215  0.7597  2.5389
   33MOL   C43423538   7.211   0.406   0.179 -0.3978  0.1760  0.1974
   33MOL   O43523539   7.310   0.336   0.174  0.1853 -0.1264  0.1467
   33MOL   C43623540   7.085   0.346   0.235 -0.8508 -0.0036 -0.2844
   33MOL   C43723541   6.962   0.401   0.199 -0.3487 -0.0464  0.7606
   33MOL   C43823542   6.846   0.345   0.250  0.3487  0.4108 -0.3988
   33MOL   C43923543   6.849   0.231   0.335  0.1283  0.0869  0.2414
   33MOL   C44023544   6.728   0.161   0.379 -0.0766  0.6359 -0.3189
   33MOL   O44123545   6.625   0.226   0.414 -0.3589  0.5865  0.2078
   33MOL   N44223546   6.735   0.031   0.390  0.4508  0.0638 -0.3739
   33MOL   C44323547   6.640   7.824   0.456 -0.6477  0.0553  0.0437
   33MOL   C44423548   6.649   7.686   0.386 -0.0537  0.5354 -0.4192
   33MOL   C44523549   6.600   7.582   0.489  0.1473  0.5412 -0.0049
   33MOL   C44623550   6.453   7.603   0.517  0.1663 -0.5597  0.1395
   33MOL   C44723551   6.400   7.495   0.610  1.2054  0.5287  0.1347
   33MOL   C44823552   6.252   7.489   0.622  1.2988  0.1338 -0.1857
   33MOL   N44923553   6.194   7.619   0.659  0.3210  0.1942  0.5023
   33MOL   C45023554   6.971   0.192   0.388  0.3692  0.0764 -0.0231
   33MOL   C45123555   7.092   0.244   0.340  0.4745  0.3930  0.2990
   33MOL   H45223556   6.946   0.482   0.129 -1.4110 -1.4983 -0.7063
   33MOL   H45323557   6.752   0.387   0.219  0.4419 -0.1266 -1.4316
   33MOL   H45423558   6.827   0.001   0.361  0.2662  0.2555 -1.1682
   33MOL   H45523559   6.683   7.821   0.556  1.5173 -0.6980 -0.8833
   33MOL   H45623560   6.540   7.865   0.470 -0.9923 -0.0587 -1.8380
   33MOL   H45723561   6.754   7.680   0.360  0.1061  2.0043 -0.1936
   33MOL   H45823562   6.590   7.678   0.294  0.7549 -2.2303 -0.7238
   33MOL   H45923563   6.606   7.481   0.450 -0.6186  0.4347  0.1472
   33MOL   H46023564   6.657   7.578   0.582 -1.9051 -0.4482  1.2168
   33MOL   H46123565   6.390   7.611   0.429 -0.0318  0.5516  0.3782
   33MOL   H46223566   6.436   7.696   0.571  1.1470  1.0951 -2.2613
   33MOL   H46323567   6.438   7.526   0.708 -0.8366  1.0952  0.7667
   33MOL   H46423568   6.450   7.400   0.593 -0.5978 -0.1687 -1.3767
   33MOL   H46523569   6.219   7.448   0.526 -2.8998  0.4600  1.0069
   33MOL   H46623570   6.228   7.417   0.700 -0.0355  1.9917  1.1773
   33MOL   H46723571   6.176   7.694   0.594  0.1042 -0.2487  0.0528
   33MOL   H46823572   6.977   0.123   0.471 -0.6822  0.5838  0.4786
   33MOL   H46923573   7.182   0.207   0.387  0.3579  1.6589  1.5776
   33MOL   C47023574   6.158   7.650   0.786 -0.0891  0.1897 -0.4402
   33MOL   O47123575   6.171   7.578   0.889  0.2526 -0.2934  0.1326
   33MOL   C47223576   6.090   7.783   0.807 -0.5560  0.1086  0.1885
   33MOL   C47323577   6.066   7.825   0.937 -0.4356  0.3377  0.2399
   33MOL   C47423578   5.993   0.053   0.965  0.3802 -0.1499  0.2468
   33MOL   C47523579   5.949   0.132   0.860 -0.4651  0.0683 -0.0013
   33MOL   C47623580   5.889   0.270   0.883 -0.2021 -0.3064  0.0960
   33MOL   O47723581   5.932   0.367   0.820 -0.2595  0.2569  0.4798
   33MOL   N47823582   5.787   0.276   0.974 -0.1042  1.1084 -0.4767
   33MOL   C47923583   5.702   0.391   0.998 -0.3528  0.1050 -0.5271
   33MOL   C48023584   5.774   0.487   1.090 -0.0520  0.1370  0.1280
   33MOL   C48123585   5.698   0.624   1.093 -0.3285 -0.2435  0.2229
   33MOL   C48223586   5.769   0.722   1.186  0.0708 -0.8988 -0.1881
   33MOL   C48323587   5.688   0.850   1.208 -0.4828 -0.3788  0.5214
   33MOL   C48423588   5.755   0.940   1.311  0.2437  0.6297  0.1021
   33MOL   N48523589   5.698   1.072   1.307  0.0339 -0.4002  0.3359
   33MOL   C48623590   5.976   0.096   0.731 -0.4813  0.5129 -0.1008
   33MOL   C48723591   6.050   7.868   0.703  1.1219  0.0307  0.4181
   33MOL   H48823592   6.092   7.761   1.020  0.6041  2.2403  1.4077
   33MOL   H48923593   5.972   0.086   1.066 -1.8125  1.3045 -0.6453
   33MOL   H49023594   5.757   0.189   1.017  1.3155  1.3419  1.0525
   33MOL   H49123595   5.683   0.448   0.907 -0.0947  1.7440  0.4175
   33MOL   H49223596   5.608   0.356   1.041 -0.7606  0.9063 -0.7515
   33MOL   H49323597   5.882   0.484   1.078 -0.0155 -1.4729  0.7224
   33MOL   H49423598   5.760   0.445   1.190  1.4427  1.8186  1.0652
   33MOL   H49523599   5.694   0.676   0.998  1.7673  0.7622  0.6538
   33MOL   H49623600   5.596   0.601   1.125 -0.9539  0.3741 -1.2957
   33MOL   H49723601   5.869   0.752   1.154  0.6536 -1.5009  1.0468
   33MOL   H49823602   5.781   0.666   1.279  0.7465 -1.7768 -0.7889
   33MOL   H49923603   5.587   0.820   1.238 -0.7321 -0.9931 -0.9019
   33MOL   H50023604   5.683   0.898   1.110  2.1661 -2.1456 -0.5341
   33MOL   H50123605   5.736   0.900   1.410  1.6698  0.9092  0.4964
   33MOL   H50223606   5.861   0.948   1.286  0.0941  0.3826 -0.6352
   33MOL   H50323607   5.627   1.092   1.238  0.2242  3.7389  1.1833
   33MOL   H50423608   5.944   0.157   0.648  0.6165  1.8625  0.4683
   33MOL   H50523609   6.056   7.839   0.599 -0.4893 -1.8688  0.8146
   33MOL   C50623610   5.754   1.172   1.376 -0.0589 -0.0272  0.0771
   33MOL   O50723611   5.830   1.155   1.473 -0.1985 -0.4366  0.0961
   33MOL   C50823612   5.715   1.310   1.344 -0.4608  1.1098 -0.3641
   33MOL   C50923613   5.651   1.384   1.443  0.1119 -0.1042  0.4557
   33MOL   C51023614   5.596   1.516   1.414 -0.3953 -0.0849  0.1682
   33MOL   C51123615   5.608   1.566   1.284 -0.1849 -0.1629  0.7919
   33MOL   C51223616   5.550   1.696   1.235 -0.4517  0.4451  0.1693
   33MOL   O51323617   5.535   1.797   1.309 -0.3687  0.0995  0.3074
   33MOL   N51423618   5.491   1.693   1.112 -0.2026  0.2859 -0.0213
   33MOL   C51523619   5.429   1.813   1.051  0.2061 -0.1562  0.2018
   33MOL   C51623620   5.522   1.901   0.976  0.5850  0.3674  0.8712
   33MOL   C51723621   5.601   1.825   0.860  0.2216  0.1225  0.0915
   33MOL   C51823622   5.686   1.908   0.770 -0.8252  0.4598  0.0770
   33MOL   C51923623   5.821   1.944   0.827  0.3749 -0.0530 -0.2212
   33MOL   C52023624   5.919   1.832   0.805 -0.1014  0.1965  0.2130
   33MOL   N52123625   6.054   1.847   0.864  0.1175 -0.7237 -0.2935
   33MOL   C52223626   5.677   1.492   1.181  0.2613  0.3539  0.3980
   33MOL   C52323627   5.727   1.363   1.211 -0.5742 -0.4549 -0.1682
   33MOL   H52423628   5.651   1.345   1.544  1.6729 -1.9953 -0.2511
   33MOL   H52523629   5.543   1.566   1.493  1.5083 -0.5758  1.8041
   33MOL   H52623630   5.497   1.616   1.047  0.7837  1.6279 -1.5897
   33MOL   H52723631   5.347   1.780   0.987  1.5989 -0.5835 -1.4056
   33MOL   H52823632   5.384   1.878   1.126 -1.8359  0.9783 -1.9316
   33MOL   H52923633   5.602   1.940   1.039 -0.5255 -0.0030  2.5460
   33MOL   H53023634   5.465   1.984   0.935  0.1199 -0.3845 -0.0374
   33MOL   H53123635   5.653   1.743   0.910  0.4825  0.9722  1.2270
   33MOL   H53223636   5.526   1.774   0.800  0.4467 -1.7277  1.3215
   33MOL   H53323637   5.635   2.000   0.739 -1.1810  0.5368  0.8654
   33MOL   H53423638   5.689   1.849   0.679 -0.7759  0.0099  0.3695
   33MOL   H53523639   5.795   1.963   0.931 -1.6063 -1.7362 -0.3720
   33MOL   H53623640   5.855   2.035   0.778  1.8646 -0.4445  0.0557
   33MOL   H53723641   5.885   1.738   0.849 -1.8935  0.5483 -0.3921
   33MOL   H53823642   5.939   1.806   0.701  1.3514  0.1901  0.4716
   33MOL   H53923643   6.074   1.939   0.898  1.2997  0.0734 -2.9782
   33MOL   H54023644   5.692   1.537   1.084 -0.7759 -0.8845 -0.3374
   33MOL   H54123645   5.780   1.302   1.140  4.2693 -0.2526  3.0455
   33MOL   C54223646   6.156   1.760   0.873  0.1288 -0.4749  0.2453
   33MOL   O54323647   6.133   1.643   0.843 -0.1091  0.2928  0.1417
   33MOL   C54423648   6.285   1.797   0.933 -0.3926  0.8730 -0.3337
   33MOL   C54523649   6.401   1.730   0.890 -0.2523 -0.2339 -0.1221
   33MOL   C54623650   6.521   1.762   0.959  0.3786  0.0016  0.3720
   33MOL   C54723651   6.530   1.857   1.063  0.2378 -0.3733 -0.0342
   33MOL   C54823652   6.662   1.885   1.138 -0.5024  0.1181  0.7384
   33MOL   O54923653   6.767   1.851   1.081 -0.2641  0.5659  0.3078
   33MOL   N55023654   6.658   1.931   1.263 -0.0279  0.1690 -0.1397
   33MOL   C55123655   6.775   1.973   1.341  0.1148 -0.0150  0.3715
   33MOL   C55223656   6.841   1.863   1.415  0.1473  0.0800 -0.0021
   33MOL   C55323657   6.975   1.907   1.491  0.8148  0.3004  0.4125
   33MOL   C55423658   7.011   1.811   1.603  0.0805 -0.1868 -0.7627
   33MOL   C55523659   7.161   1.787   1.613 -0.4543 -0.7981 -0.3680
   33MOL   C55623660   7.193   1.695   1.731 -0.4865 -0.3508  0.1401
   33MOL   N55723661   7.341   1.661   1.746  0.2413 -0.2907  0.2756
   33MOL   C55823662   6.410   1.936   1.096 -0.3469 -0.0656 -0.3472
   33MOL   C55923663   6.289   1.904   1.028 -0.2065  0.2090 -0.0092
   33MOL   H56023664   6.396   1.657   0.811 -1.4957 -0.3987  0.0993
   33MOL   H56123665   6.610   1.708   0.928  0.5266  1.0304 -1.0508
   33MOL   H56223666   6.567   1.946   1.304  0.2813  1.6768 -0.0022
   33MOL   H56323667   6.846   2.027   1.278 -0.2450 -1.5269 -1.3606
   33MOL   H56423668   6.730   2.048   1.407 -2.3957 -0.7172 -0.4810
   33MOL   H56523669   6.877   1.775   1.362  1.4672  1.7520 -1.9813
   33MOL   H56623670   6.766   1.839   1.490  0.7188  0.0884  0.5893
   33MOL   H56723671   7.054   1.915   1.417 -0.7527 -0.2909 -1.3574
   33MOL   H56823672   6.971   2.008   1.532 -0.9252  1.1617 -1.7899
   33MOL   H56923673   6.967   1.714   1.582  0.1596 -0.0402 -1.6090
   33MOL   H57023674   6.973   1.841   1.700 -0.6659  0.2827 -1.2003
   33MOL   H57123675   7.221   1.877   1.626 -0.7560 -0.1389 -3.2965
   33MOL   H57223676   7.197   1.746   1.518  0.0495 -0.5307 -0.2964
   33MOL   H57323677   7.152   1.737   1.823  0.4048 -0.4774  0.6084
   33MOL   H57423678   7.136   1.604   1.717 -1.6349  0.4245 -0.2530
   33MOL   H57523679   7.405   1.727   1.787  0.8191 -0.3917 -0.4570
   33MOL   H57623680   6.403   2.014   1.171 -2.4912  0.5371 -1.1238
   33MOL   H57723681   6.196   1.953   1.053 -0.5185  0.2811 -1.2408
   33MOL   C57823682   7.384   1.531   1.734 -0.6400  0.3716  0.6772
   33MOL   O57923683   7.320   1.437   1.691 -0.2336 -0.9251 -0.1584
   33MOL   C58023684   7.528   1.512   1.788 -0.5100 -0.8351  0.3052
   33MOL   C58123685   7.628   1.610   1.764  0.0853  0.3077 -0.5138
   33MOL   C58223686   7.762   1.579   1.807  0.3377 -0.4975 -0.4544
   33MOL   C58323687   7.791   1.469   1.885  0.0072  0.5728 -0.8101
   33MOL   C58423688   0.046   1.457   1.944  0.0960 -0.4960  0.0174
   33MOL   O58523689   0.142   1.491   1.878 -0.0310 -0.0728  0.0785
   33MOL   N58623690   0.052   1.395   2.067 -0.1794 -0.1199  0.0971
   33MOL   C58723691   0.175   1.381   2.140 -1.1328  0.0510 -0.3825
   33MOL   C58823692   0.218   1.230   2.153 -0.3186 -0.5126 -0.2701
   33MOL   C58923693   0.127   1.142   2.242  0.0914 -0.5155 -0.4311
   33MOL   C59023694   0.177   0.998   2.266 -0.5476  0.0406 -0.3397
   33MOL   C59123695   0.105   0.909   2.374 -0.5521 -0.3724  0.2151
   33MOL   C59223696   0.155   0.762   2.387  0.5748  0.2478 -0.6993
   33MOL   N59323697   0.096   0.695   2.505 -0.7419  0.5483  0.1427
   33MOL   C59423698   7.691   1.371   1.905 -0.0259 -0.3440  0.7157
   33MOL   C59523699   7.561   1.392   1.849  0.2462  0.2571 -0.7656
   33MOL   H59623700   7.610   1.695   1.699  0.2956  0.2369 -0.6645
   33MOL   H59723701   7.843   1.645   1.780  0.0425  0.0964  0.1100
   33MOL   H59823702   7.851   1.376   2.115 -0.4735 -0.9279 -0.7274
   33MOL   H59923703   0.252   1.439   2.089 -2.6461 -1.4330 -4.5538
   33MOL   H60023704   0.163   1.437   2.233  1.4127  0.1217 -0.0513
   33MOL   H60123705   0.320   1.232   2.190 -0.2996 -0.4227 -0.3267
   33MOL   H60223706   0.234   1.183   2.056 -0.1769  0.0440 -0.5231
   33MOL   H60323707   0.130   1.202   2.334  0.5855 -0.9666 -0.1519
   33MOL   H60423708   0.025   1.154   2.207  0.3171 -0.1353 -0.9647
   33MOL   H60523709   0.284   0.997   2.290 -0.7287  3.4951  0.8706
   33MOL   H60623710   0.179   0.943   2.172  0.1381 -0.4068 -0.0662
   33MOL   H60723711   0.001   0.912   2.340 -0.8361  0.7050  1.1451
   33MOL   H60823712   0.096   0.967   2.466 -3.9201  3.8820 -2.5260
   33MOL   H60923713   0.146   0.707   2.293 -2.3616 -0.0218 -0.3160
   33MOL   H61023714   0.260   0.761   2.417  0.2847 -0.6852  0.3193
   33MOL   H61123715   0.071   0.748   2.588  0.5453  1.1061  0.1828
   33MOL   H61223716   7.709   1.284   1.968  0.5907  0.3382  1.4988
   33MOL   H61323717   7.477   1.325   1.857  1.4171 -1.4131 -1.9526
   33MOL   C61423718   0.065   0.560   2.516 -0.1241  0.2416  0.1428
   33MOL   O61523719   0.103   0.474   2.437  0.1673  0.0231 -0.0809
   33MOL   C61623720   7.870   0.524   2.638  0.6589 -0.5373 -0.4703
   33MOL   C61723721   7.804   0.627   2.713  0.1659 -0.6922 -0.0502
   33MOL   C61823722   7.732   0.596   2.833  0.1289  0.5136 -0.0643
   33MOL   C61923723   7.724   0.465   2.873  0.2331  0.1854 -0.3738
   33MOL   C62023724   7.649   0.437   3.003 -0.4443 -0.9062 -0.1372
   33MOL   O62123725   7.660   0.511   3.103  0.3091 -0.3890 -0.2241
   33MOL   N62223726   7.567   0.334   3.004 -0.0010 -0.1868 -0.8308
   33MOL   C62323727   7.530   0.263   3.124  0.9347  0.5455  0.1259
   33MOL   C62423728   7.394   0.283   3.189  0.1055  0.5525 -0.2589
   33MOL   C62523729   7.270   0.271   3.092 -0.0638 -0.5201 -0.1510
   33MOL   C62623730   7.137   0.281   3.159  0.2065 -0.3924 -0.1899
   33MOL   C62723731   7.098   0.159   3.250  0.4700  0.5946 -0.1100
   33MOL   C62823732   6.941   0.153   3.262 -0.4246 -0.1908  0.1079
   33MOL   N62923733   6.900   0.056   3.362 -0.3298 -0.3409  0.8099
   33MOL   C63023734   7.805   0.366   2.811  0.0474  0.3920  0.5284
   33MOL   C63123735   7.875   0.394   2.694  0.6034 -0.4035  0.5908
   33MOL   H63223736   7.807   0.733   2.693  0.6801 -0.5380  0.8199
   33MOL   H63323737   7.685   0.675   2.890 -1.2453 -0.0463 -0.3978
   33MOL   H63423738   7.540   0.293   2.916 -1.7040 -1.6047  0.3307
   33MOL   H63523739   7.553   0.159   3.099  0.9629  0.5080  0.3069
   33MOL   H63623740   7.605   0.288   3.199  0.2277 -1.0857  1.4056
   33MOL   H63723741   7.385   0.377   3.244 -0.1025 -0.6393  1.8275
   33MOL   H63823742   7.376   0.215   3.273  0.8306  0.0520 -0.5112
   33MOL   H63923743   7.276   0.350   3.017 -2.3942  0.4839  0.6821
   33MOL   H64023744   7.266   0.170   3.053 -1.6121 -0.4160 -0.2736
   33MOL   H64123745   7.071   0.289   3.073 -0.2339  0.4357  0.2183
   33MOL   H64223746   7.125   0.371   3.219 -1.2907 -1.1729  0.7158
   33MOL   H64323747   7.131   0.171   3.354 -1.7115 -1.4826  0.8785
   33MOL   H64423748   7.134   0.061   3.216  0.2969  0.6505 -0.4519
   33MOL   H64523749   6.919   0.251   3.305  1.3822 -0.0165  0.7078
   33MOL   H64623750   6.905   0.132   3.161  0.1628 -1.0065  0.0656
   33MOL   H64723751   6.901   0.087   3.458  0.8299  3.0963 -0.2573
   33MOL   H64823752   7.830   0.271   2.856 -0.0142 -0.9553 -2.2314
   33MOL   H64923753   0.044   0.314   2.648 -0.0514 -1.5885  1.8166
   33MOL   C65023754   6.843   7.824   3.335 -0.0584 -0.4529 -0.1925
   33MOL   O65123755   6.801   7.791   3.223 -0.3128  0.7898 -0.1075
   33MOL   C65223756   6.834   7.724   3.448  0.0731  0.0391 -0.6213
   33MOL   C65323757   6.870   7.753   3.584 -0.0313 -0.5693  0.2440
   33MOL   C65423758   6.885   7.658   3.676  0.4628  0.5475  0.2384
   33MOL   C65523759   6.849   7.524   3.648  0.2312 -0.3585 -0.1751
   33MOL   C65623760   6.888   7.411   3.734  0.3830  0.1238 -0.8163
   33MOL   O65723761   6.972   7.428   3.822 -0.3514 -0.3114  0.4517
   33MOL   N65823762   6.830   7.292   3.706 -0.1823 -0.7244 -0.4117
   33MOL   C65923763   6.854   7.163   3.779  0.1757  0.8318 -0.5414
   33MOL   C66023764   6.768   7.047   3.728 -0.1161  0.0285 -0.0088
   33MOL   C66123765   6.824   6.918   3.791  0.7375 -0.1229  0.2482
   33MOL   C66223766   6.716   6.805   3.810 -0.7798 -0.6264  0.5357
   33MOL   C66323767   6.766   6.696   3.900 -0.7024  0.2846 -0.3560
   33MOL   C66423768   6.674   6.573   3.897 -0.4387  0.5405 -0.1019
   33MOL   N66523769   6.716   6.468   3.998  0.1200 -0.6461  0.7637
   33MOL   C66623770   6.808   7.492   3.515  0.1551  0.0768 -0.7978
   33MOL   C66723771   6.796   7.593   3.418 -0.4595 -0.7036 -0.1744
   33MOL   H66823772   6.906   7.849   3.618  0.3661 -2.0596  4.3881
   33MOL   H66923773   6.926   7.683   3.773 -1.5355  2.8664  0.5432
   33MOL   H67023774   6.741   7.298   3.659 -1.9259  0.2095  2.8487
   33MOL   H67123775   6.958   7.132   3.767  0.4255  1.2642  0.4997
   33MOL   H67223776   6.844   7.173   3.887 -2.0805 -0.5602 -0.5771
   33MOL   H67323777   6.767   7.036   3.619  1.6600  0.3013 -0.0707
   33MOL   H67423778   6.675   7.075   3.777 -0.7351 -2.4685  0.3023
   33MOL   H67523779   6.907   6.892   3.726  1.4320 -1.7762  1.7424
   33MOL   H67623780   6.853   6.957   3.889  1.9261 -0.1832 -0.0690
   33MOL   H67723781   6.705   6.774   3.706 -1.1085  0.0875  0.3564
   33MOL   H67823782   6.619   6.832   3.850 -0.2977  1.0503  0.6210
   33MOL   H67923783   6.777   6.737   4.001  1.7282  0.6091 -0.7162
   33MOL   H68023784   6.866   6.673   3.864 -0.6572  0.3463 -0.2704
   33MOL   H68123785   6.576   6.609   3.929 -0.7216  2.0544 -2.6013
   33MOL   H68223786   6.662   6.527   3.799  2.2041 -0.0969 -0.1739
   33MOL   H68323787   6.770   6.394   3.955 -0.0688 -0.0877 -0.4586
   33MOL   H68423788   6.787   7.392   3.482  1.7708 -0.8653  0.8796
   33MOL   H68523789   6.759   7.566   3.320  1.8053 -1.2822 -0.9023
   33MOL   C68623790   6.662   6.450   4.116  0.3556  0.3796 -0.1895
   33MOL   O68723791   6.588   6.532   4.169 -0.1029 -0.0673 -0.7585
   33MOL   C68823792   6.712   6.328   4.192  0.3610  0.4051 -0.3693
   33MOL   C68923793   6.730   6.335   4.337  0.3836  0.5204  0.3780
   33MOL   C69023794   6.778   6.228   4.413 -0.0676 -0.1895  0.0371
   33MOL   C69123795   6.809   6.110   4.345  0.2290 -1.0370  0.1384
   33MOL   C69223796   6.865   5.993   4.416 -0.0818  0.2816  0.5750
   33MOL   O69323797   6.952   5.922   4.362  0.2912 -0.5480  0.3732
   33MOL   N69423798   6.810   5.965   4.542 -0.6548  0.4897  0.1184
   33MOL   C69523799   6.845   5.843   4.616  0.1729 -0.2858  0.0704
   33MOL   C69623800   6.762   5.815   4.742 -0.6168  0.3888  0.5836
   33MOL   C69723801   6.759   5.917   4.854 -0.5954  0.0928 -0.0178
   33MOL   C69823802   6.688   6.045   4.810  0.0770 -0.0349  0.4611
   33MOL   C69923803   6.672   6.147   4.925  0.1764 -0.0700  0.0658
   33MOL   C70023804   6.584   6.266   4.870  0.4967 -0.2990 -0.0477
   33MOL   N70123805   6.548   6.349   4.984 -0.4903 -0.9607 -0.7032
   33MOL   C70223806   6.779   6.100   4.206 -0.2383 -0.0153 -0.1384
   33MOL   C70323807   6.723   6.204   4.131  0.6273  0.0868  0.2593
   33MOL   H70423808   6.716   6.430   4.387 -0.0544  1.2532 -1.1088
   33MOL   H70523809   6.793   6.243   4.519  1.1363 -1.3938  0.0491
   33MOL   H70623810   6.741   6.035   4.564  1.1339  1.3211  3.3685
   33MOL   H70723811   6.846   5.749   4.562 -0.8272  0.6724 -1.6538
   33MOL   H70823812   6.944   5.853   4.660 -0.3229  0.5586  1.0390
   33MOL   H70923813   6.802   5.725   4.789  1.0239  0.2115 -1.1190
   33MOL   H71023814   6.663   5.787   4.707  0.5884 -1.0624 -1.7378
   33MOL   H71123815   6.696   5.872   4.931 -2.0175 -1.5583 -2.0985
   33MOL   H71223816   6.849   5.945   4.908 -1.2861 -0.6744  1.5492
   33MOL   H71323817   6.587   6.012   4.786 -0.2661  0.2160  1.5338
   33MOL   H71423818   6.725   6.102   4.725  2.0522 -1.4444  0.3301
   33MOL   H71523819   6.771   6.178   4.957 -0.0545 -0.2377  0.9502
   33MOL   H71623820   6.634   6.109   5.020 -0.1384  0.1400  0.0263
   33MOL   H71723821   6.632   6.333   4.799  0.4458  0.1434  0.3310
   33MOL   H71823822   6.497   6.213   4.832 -0.1761 -0.0015  1.0295
   33MOL   H71923823   6.627   6.404   5.016 -0.7160 -0.8805 -0.2688
   33MOL   H72023824   6.793   5.999   4.170 -1.1206 -1.3689  3.1613
   33MOL   H72123825   6.684   6.178   4.034 -0.2338  0.0634  0.6142
   33MOL   H72223826   6.481   6.416   4.950  0.9384  0.5603 -0.5893
   34MOL     C123827   3.259   5.900   4.965  0.3151 -0.1412 -0.4119
   34MOL     O223828   3.343   5.977   5.017  0.4341  0.7085 -0.3248
   34MOL     C323829   3.278   5.806   4.853  0.3558 -0.1470  0.5789
   34MOL     C423830   3.404   5.795   4.795 -1.3923 -0.3727 -0.4234
   34MOL     C523831   3.429   5.693   4.701 -0.2172  0.0494  0.2964
   34MOL     C623832   3.331   5.609   4.661  0.4806 -0.5816 -0.1183
   34MOL     C723833   3.357   5.496   4.571  0.3486  0.2918 -0.5397
   34MOL     O823834   3.289   5.483   4.470  0.4534  0.0409 -0.1788
   34MOL     N923835   3.467   5.428   4.594 -0.3059 -0.1683 -0.0512
   34MOL    C1023836   3.539   5.355   4.487 -0.3735 -0.7166  0.2970
   34MOL    C1123837   3.619   5.453   4.390 -0.6772  0.6984 -0.5409
   34MOL    C1223838   3.701   5.381   4.281  1.0431 -0.4517 -0.4350
   34MOL    C1323839   3.807   5.476   4.214  0.5462  0.1753 -0.3064
   34MOL    C1423840   3.921   5.530   4.298 -0.3785  0.6606  0.2281
   34MOL    C1523841   4.033   5.596   4.211  0.1636  0.1691  1.0762
   34MOL    N1623842   4.155   5.621   4.285 -0.1527 -0.2824 -0.2827
   34MOL    C1723843   3.202   5.631   4.710 -0.7659 -0.4237  0.0482
   34MOL    C1823844   3.179   5.723   4.810 -0.0733  0.0842  0.2742
   34MOL    H1923845   3.492   5.855   4.813  0.5107 -2.9115 -0.9805
   34MOL    H2023846   3.529   5.678   4.665 -0.8410  2.0171 -2.3843
   34MOL    H2123847   3.519   5.446   4.678  0.6485 -2.1779 -0.1864
   34MOL    H2223848   3.605   5.281   4.531  2.0383  2.1475  1.5968
   34MOL    H2323849   3.464   5.305   4.425 -1.4019  0.8213  0.2488
   34MOL    H2423850   3.681   5.509   4.461 -0.7007 -1.7070  1.4476
   34MOL    H2523851   3.553   5.526   4.344  0.1388 -0.2584 -3.3326
   34MOL    H2623852   3.753   5.296   4.325  3.6756  1.3056  0.0342
   34MOL    H2723853   3.630   5.344   4.208  1.5860  2.0845 -2.3456
   34MOL    H2823854   3.760   5.571   4.191 -0.5068  0.1333  1.5435
   34MOL    H2923855   3.838   5.435   4.118  0.0391 -0.4696 -0.2020
   34MOL    H3023856   3.977   5.445   4.337 -0.5548  0.3600 -0.1691
   34MOL    H3123857   3.882   5.589   4.381 -1.5159  0.9980 -0.5287
   34MOL    H3223858   4.051   5.521   4.134 -1.3165  1.3587 -0.4749
   34MOL    H3323859   4.004   5.691   4.164 -0.9172 -0.0345  1.3164
   34MOL    H3423860   4.244   5.598   4.243  0.4085  1.2963 -0.0152
   34MOL    H3523861   3.120   5.573   4.670 -2.0888  0.8157  0.8991
   34MOL    H3623862   3.080   5.741   4.851 -0.1604  0.6703 -0.1826
   34MOL    H3723863   3.153   5.902   4.990  0.2766 -1.8811 -0.4020
   34MOL    C3823864   4.165   5.711   4.385  0.1496  0.3038  0.1876
   34MOL    O3923865   4.073   5.785   4.419  0.2442 -0.4422 -0.0761
   34MOL    C4023866   4.296   5.728   4.459 -0.4396  0.2548 -0.2827
   34MOL    C4123867   4.291   5.750   4.597  0.6008  0.4357 -0.1976
   34MOL    C4223868   4.410   5.763   4.666  0.1228  0.0256 -0.3917
   34MOL    C4323869   4.537   5.769   4.607  0.5823 -0.0245 -0.4208
   34MOL    C4423870   4.661   5.770   4.685  0.6285 -0.5656 -0.4832
   34MOL    O4523871   4.666   5.722   4.797  0.3917  0.2523  0.1474
   34MOL    N4623872   4.762   5.833   4.628  0.1789  0.0718 -0.5733
   34MOL    C4723873   4.885   5.857   4.703  0.3507 -0.2058  0.1067
   34MOL    C4823874   4.918   6.015   4.686  0.0695  0.0111  0.1533
   34MOL    C4923875   4.955   6.059   4.543 -0.2796 -0.0178 -0.2957
   34MOL    C5023876   4.958   6.212   4.517 -0.5705  0.6952 -0.1663
   34MOL    C5123877   4.997   6.236   4.368  0.2465  0.0193 -0.7872
   34MOL    C5223878   5.008   6.385   4.332  0.2874  0.2984  0.3883
   34MOL    N5323879   5.054   6.401   4.201  0.5873  0.0033 -0.3203
   34MOL    C5423880   4.539   5.750   4.468  0.1675 -0.0718  0.8052
   34MOL    C5523881   4.421   5.728   4.391 -0.2095  0.2699 -0.4875
   34MOL    H5623882   4.194   5.755   4.645  1.5570 -3.5393  2.4367
   34MOL    H5723883   4.407   5.779   4.773 -2.9226 -1.0590 -0.2757
   34MOL    H5823884   4.751   5.870   4.535  1.1048 -1.5409 -1.3298
   34MOL    H5923885   4.876   5.837   4.810 -0.5018 -3.0901 -0.4633
   34MOL    H6023886   4.969   5.799   4.665 -0.2287  0.5599 -2.4527
   34MOL    H6123887   4.994   6.033   4.761 -0.9344  2.6562  0.5684
   34MOL    H6223888   4.823   6.058   4.719 -0.7321 -1.3803 -0.2637
   34MOL    H6323889   5.052   6.017   4.513 -0.1413  1.9727 -2.8502
   34MOL    H6423890   4.883   6.016   4.473  0.2707  1.3667 -1.7517
   34MOL    H6523891   5.031   6.257   4.584  1.0950  0.3824 -1.7151
   34MOL    H6623892   4.866   6.268   4.533  0.6414  3.1843 -1.6301
   34MOL    H6723893   4.919   6.180   4.316 -1.1747 -0.5907  1.8603
   34MOL    H6823894   5.098   6.198   4.353  0.5460  1.1207 -1.5666
   34MOL    H6923895   4.913   6.432   4.356 -0.3360 -1.0267  0.5581
   34MOL    H7023896   5.066   6.443   4.404 -1.0987  1.5851  0.4826
   34MOL    H7123897   5.137   6.346   4.185 -0.1143 -0.8502 -1.1041
   34MOL    H7223898   4.628   5.759   4.406 -1.0980 -0.8605 -1.1823
   34MOL    H7323899   4.423   5.713   4.285 -2.7724 -1.0961 -0.3741
   34MOL    C7423900   5.018   6.499   4.112 -0.4323 -1.6976  0.3656
   34MOL    O7523901   4.930   6.579   4.139  0.6123  0.4670 -0.3111
   34MOL    C7623902   5.114   6.508   3.987  0.6802  0.6865 -0.2051
   34MOL    C7723903   5.154   6.633   3.938  0.5982  0.6302  0.6603
   34MOL    C7823904   5.238   6.648   3.832 -0.4633  0.5822 -0.1387
   34MOL    C7923905   5.288   6.533   3.769 -0.1595  0.3286 -0.1765
   34MOL    C8023906   5.384   6.555   3.661 -0.4931  0.7482 -0.2848
   34MOL    O8123907   5.455   6.649   3.667  0.4804 -0.1847 -0.7540
   34MOL    N8223908   5.375   6.471   3.556  0.3433 -0.4358  0.2640
   34MOL    C8323909   5.461   6.478   3.439 -0.0972 -0.3474 -1.2143
   34MOL    C8423910   5.387   6.413   3.322 -0.1540 -0.2430  0.8431
   34MOL    C8523911   5.460   6.417   3.190  0.1573 -0.1323  0.0352
   34MOL    C8623912   5.372   6.385   3.070 -0.5321  0.0912 -0.2772
   34MOL    C8723913   5.302   6.248   3.068  0.0300  0.2089  0.5078
   34MOL    C8823914   5.228   6.223   2.936  0.1365 -0.2247  0.0646
   34MOL    N8923915   5.194   6.082   2.927 -0.6638 -0.0845 -0.2342
   34MOL    C9023916   5.251   6.402   3.814  0.3625 -0.6990  0.0159
   34MOL    C9123917   5.171   6.392   3.931  1.3989  0.3449  0.6561
   34MOL    H9223918   5.110   6.721   3.983  1.7785  1.0377  1.0285
   34MOL    H9323919   5.257   6.747   3.793 -0.3913  0.6504  0.0671
   34MOL    H9423920   5.294   6.412   3.570 -0.5916  0.6923 -0.2956
   34MOL    H9523921   5.467   6.578   3.394  1.0717 -0.0949 -0.5207
   34MOL    H9623922   5.560   6.441   3.466 -0.1460 -1.8510 -2.9385
   34MOL    H9723923   5.292   6.466   3.320  0.7167  1.3411  0.1991
   34MOL    H9823924   5.370   6.307   3.335  0.4193 -0.5755 -0.9844
   34MOL    H9923925   5.491   6.518   3.163 -0.1110 -0.4442 -1.5378
   34MOL   H10023926   5.552   6.361   3.203  0.7606  1.1473  1.4433
   34MOL   H10123927   5.435   6.391   2.981 -0.9190  1.7273 -0.4708
   34MOL   H10223928   5.301   6.464   3.043 -0.1956 -0.0661 -1.6832
   34MOL   H10323929   5.228   6.225   3.146  0.4029 -1.0138  0.5040
   34MOL   H10423930   5.381   6.173   3.076 -0.5830 -0.4570  0.4282
   34MOL   H10523931   5.135   6.279   2.923  1.0053  1.0122 -0.9840
   34MOL   H10623932   5.292   6.254   2.853 -0.1860  2.4619  0.7737
   34MOL   H10723933   5.273   6.018   2.920  0.0185  0.2729  3.1692
   34MOL   H10823934   5.274   6.308   3.765  1.0957 -1.3518  1.5506
   34MOL   H10923935   5.157   6.291   3.966 -1.2426  1.2496  2.2977
   34MOL   C11023936   5.084   6.017   2.956 -0.5084 -0.4285 -0.3000
   34MOL   O11123937   4.978   6.073   2.973  0.8084  0.2388  0.7126
   34MOL   C11223938   5.107   5.872   2.954 -0.8646  0.2343  0.8621
   34MOL   C11323939   5.125   5.794   2.835  0.5274  0.4522  0.1188
   34MOL   C11423940   5.142   5.659   2.842  0.1034 -0.2579  0.0123
   34MOL   C11523941   5.163   5.589   2.965 -0.1284 -0.4973 -0.1592
   34MOL   C11623942   5.195   5.440   2.965 -0.4102  0.0250 -0.7998
   34MOL   O11723943   5.172   5.373   3.066 -0.0875  0.0619  0.1184
   34MOL   N11823944   5.251   5.395   2.855 -0.4040  0.2249 -0.1652
   34MOL   C11923945   5.285   5.257   2.839  0.5236 -0.0120 -0.2423
   34MOL   C12023946   5.411   5.250   2.755  0.1077 -0.3253  0.3201
   34MOL   C12123947   5.541   5.272   2.832 -0.3149 -0.1770  0.1233
   34MOL   C12223948   5.671   5.258   2.754  0.2417 -0.6639  0.6063
   34MOL   C12323949   5.801   5.291   2.826  0.7652 -0.0717 -0.2583
   34MOL   C12423950   5.931   5.213   2.774  0.1527  1.0947 -0.7933
   34MOL   N12523951   6.041   5.205   2.873  0.0368 -0.0622  0.0307
   34MOL   C12623952   5.147   5.666   3.076  0.2227  0.1061  0.5022
   34MOL   C12723953   5.119   5.806   3.075  0.2514 -0.8280  0.0960
   34MOL   H12823954   5.125   5.846   2.740  3.1112 -0.4572 -0.4031
   34MOL   H12923955   5.153   5.619   2.742  3.7442  1.6781 -0.4266
   34MOL   H13023956   5.280   5.466   2.789  1.1868  1.3879  1.7224
   34MOL   H13123957   5.299   5.207   2.935  2.6975  4.6579  2.0264
   34MOL   H13223958   5.207   5.208   2.781  0.8591  0.3117 -0.9790
   34MOL   H13323959   5.411   5.325   2.676 -1.4337  0.8693  1.4192
   34MOL   H13423960   5.417   5.159   2.695 -0.3671 -2.0371  2.7671
   34MOL   H13523961   5.533   5.372   2.876  0.4395 -0.2980  0.5458
   34MOL   H13623962   5.546   5.207   2.919  0.4546 -0.5600 -0.2041
   34MOL   H13723963   5.663   5.326   2.669 -0.7689 -0.0796  1.1678
   34MOL   H13823964   5.674   5.158   2.709 -1.9851  0.2795 -1.7795
   34MOL   H13923965   5.789   5.263   2.931 -0.9825  2.4688  0.2348
   34MOL   H14023966   5.807   5.399   2.821 -1.2736  0.0152 -0.9079
   34MOL   H14123967   5.905   5.114   2.738 -2.9946  1.3530  0.6153
   34MOL   H14223968   5.962   5.272   2.687 -0.9254 -0.0617 -1.9807
   34MOL   H14323969   6.120   5.266   2.857  0.7758 -0.6057  1.5003
   34MOL   H14423970   5.183   5.621   3.167  0.5118 -1.0822 -0.1783
   34MOL   H14523971   5.117   5.869   3.162 -0.5481 -0.7667  0.0333
   34MOL   C14623972   6.058   5.098   2.948 -0.1167  0.3366 -0.6038
   34MOL   O14723973   5.964   5.028   2.985  0.0159  0.3131 -0.0184
   34MOL   C14823974   6.192   5.069   3.008  0.0746 -0.4122  0.5069
   34MOL   C14923975   6.315   5.133   2.957 -0.6110 -0.5080 -0.1932
   34MOL   C15023976   6.441   5.104   3.024  0.6109 -0.0316 -0.3438
   34MOL   C15123977   6.448   5.015   3.129 -0.1860 -0.4521  0.5243
   34MOL   C15223978   6.587   4.982   3.183 -0.6908 -0.2042  0.1614
   34MOL   O15323979   6.677   5.065   3.193 -0.2713 -0.2477 -0.5943
   34MOL   N15423980   6.605   4.852   3.209  0.1670  0.1111  0.4997
   34MOL   C15523981   6.725   4.801   3.271  0.0984  1.1701 -0.2202
   34MOL   C15623982   6.704   4.815   3.422 -0.7743  0.2197  0.1444
   34MOL   C15723983   6.831   4.778   3.498  0.4247  0.5682  0.5980
   34MOL   C15823984   6.827   4.839   3.639 -0.2213 -0.7938  0.1984
   34MOL   C15923985   6.951   4.826   3.731 -0.4379 -0.3111  0.1135
   34MOL   C16023986   7.087   4.887   3.682  0.9681 -0.0150  0.0576
   34MOL   N16123987   7.189   4.880   3.785  0.0665  0.1270 -0.1184
   34MOL   C16223988   6.326   4.967   3.180 -1.0237  0.6237 -0.4370
   34MOL   C16323989   6.199   4.991   3.124  0.1609  0.1354  0.9011
   34MOL   H16423990   6.325   5.183   2.862  1.6776 -1.5530 -0.5193
   34MOL   H16523991   6.535   5.143   2.986 -0.6146  1.4622 -1.9159
   34MOL   H16623992   6.528   4.788   3.203  1.2321 -1.1384 -0.2537
   34MOL   H16723993   6.741   4.696   3.245 -1.0730  0.9011  0.1055
   34MOL   H16823994   6.814   4.848   3.228  0.9161  0.0629  0.2476
   34MOL   H16923995   6.612   4.768   3.459 -0.3097  0.1935  1.2801
   34MOL   H17023996   6.690   4.922   3.435 -2.1143 -0.1205  1.6534
   34MOL   H17123997   6.823   4.669   3.506 -1.2495  0.7019  0.9672
   34MOL   H17223998   6.919   4.815   3.445 -1.2244  1.7212 -1.4011
   34MOL   H17323999   6.745   4.791   3.692 -0.0767  0.4949  1.6493
   34MOL   H17424000   6.814   4.947   3.627  0.5745 -0.7149  0.0160
   34MOL   H17524001   6.980   4.723   3.754  0.4914 -0.2946 -0.9445
   34MOL   H17624002   6.908   4.870   3.821 -1.4390  0.8075 -0.8970
   34MOL   H17724003   7.118   4.840   3.589  0.2736 -0.5088  0.0749
   34MOL   H17824004   7.067   4.993   3.671  0.0513 -0.2959 -1.0237
   34MOL   H17924005   7.263   4.813   3.765 -0.6691 -0.4072 -1.0642
   34MOL   H18024006   6.343   4.923   3.277  1.3103  2.3998  0.0297
   34MOL   H18124007   6.113   4.949   3.173 -0.0130  0.8606  1.2136
   34MOL   C18224008   7.195   4.960   3.889 -0.4329  0.0577 -0.4036
   34MOL   O18324009   7.106   5.047   3.912  0.0364  0.5992  0.1285
   34MOL   C18424010   7.324   4.971   3.964  0.2969 -0.9838  0.5984
   34MOL   C18524011   7.391   4.860   4.014 -0.4844 -0.4120 -0.3183
   34MOL   C18624012   7.518   4.874   4.075 -0.4324 -0.4378  0.4923
   34MOL   C18724013   7.573   5.001   4.092 -0.6475  0.3067  0.3119
   34MOL   C18824014   7.710   5.017   4.158 -0.4025  0.2989  0.6858
   34MOL   O18924015   7.800   4.935   4.143  0.1770 -0.1228  0.2268
   34MOL   N19024016   7.717   5.121   4.235 -0.2983 -0.7395 -0.5666
   34MOL   C19124017   7.840   5.164   4.295  0.1024  0.2947  0.7165
   34MOL   C19224018   7.816   5.227   4.438 -0.3529 -0.3976  0.3570
   34MOL   C19324019   0.064   5.271   4.492 -0.1123 -0.5944 -0.1018
   34MOL   C19424020   0.063   5.316   4.642 -0.2793  0.2000  0.7923
   34MOL   C19524021   0.130   5.457   4.662 -0.4775 -0.6601  0.6871
   34MOL   C19624022   0.114   5.514   4.804  0.1480 -0.2505 -0.0006
   34MOL   N19724023   0.185   5.426   4.897  0.2871 -0.1185  0.3145
   34MOL   C19824024   7.506   5.111   4.049 -0.5997 -0.7052 -0.1939
   34MOL   C19924025   7.380   5.095   3.982  0.2664 -0.4939  0.1571
   34MOL   H20024026   7.356   4.759   4.002  0.0115 -0.8143  1.4008
   34MOL   H20124027   7.576   4.790   4.110 -0.2740  0.2463  1.8660
   34MOL   H20224028   7.624   5.154   4.257 -0.0044  0.7002 -1.4146
   34MOL   H20324029   0.029   5.085   4.294 -0.4988 -0.2649  0.1615
   34MOL   H20424030   7.879   5.240   4.227  1.8431 -0.2721  1.0603
   34MOL   H20524031   7.764   5.156   4.502  0.7779 -0.4942  1.1879
   34MOL   H20624032   7.758   5.319   4.435  2.4449  1.4157  0.0856
   34MOL   H20724033   0.135   5.189   4.483  0.0243 -0.5620  0.6834
   34MOL   H20824034   0.099   5.353   4.429  1.6017 -0.8392  0.4951
   34MOL   H20924035   0.099   5.240   4.711 -0.4127 -2.1788 -1.6952
   34MOL   H21024036   7.842   5.324   4.659 -0.4798 -1.0019  0.1291
   34MOL   H21124037   0.086   5.529   4.593  1.0753  0.3104  0.6868
   34MOL   H21224038   0.237   5.461   4.640 -0.6898 -0.4866 -0.3657
   34MOL   H21324039   0.156   5.615   4.811 -0.4766 -0.0313  0.6290
   34MOL   H21424040   0.009   5.531   4.829 -0.2667  0.7951 -2.3432
   34MOL   H21524041   0.127   5.353   4.935  0.3804  0.3451  1.3612
   34MOL   H21624042   7.556   5.205   4.066 -0.8406 -0.3605 -1.3644
   34MOL   H21724043   7.325   5.186   3.962  0.2368 -0.2162  1.4244
   34MOL   C21824044   0.320   5.430   4.927  0.2001 -0.0939  0.2448
   34MOL   O21924045   0.398   5.519   4.899  0.6098 -0.6478  0.2299
   34MOL   C22024046   0.369   5.309   5.004  0.4349  0.8651  0.3812
   34MOL   C22124047   0.302   5.186   4.985  0.9785  0.2164 -0.6832
   34MOL   C22224048   0.328   5.074   5.065  0.3779  0.1277  0.4070
   34MOL   C22324049   0.420   5.083   5.176 -0.1157 -0.0384  0.6048
   34MOL   C22424050   0.447   4.965   5.261 -0.1078 -0.0788  0.2602
   34MOL   O22524051   0.359   4.916   5.337  0.2259  0.2755  0.6708
   34MOL   N22624052   0.567   4.905   5.247  0.5131  1.3539 -0.0592
   34MOL   C22724053   0.614   4.786   5.307 -0.7141  0.7053  0.7371
   34MOL   C22824054   0.665   4.813   5.445  0.4792 -0.6124 -0.2855
   34MOL   C22924055   0.716   4.683   5.512  0.3916  0.7221 -0.0328
   34MOL   C23024056   0.750   4.685   5.657  0.1103  0.6568  0.3312
   34MOL   C23124057   0.621   4.676   5.743  0.2501  0.4231  0.3770
   34MOL   C23224058   0.656   4.694   5.890 -0.4135 -0.2557  0.2882
   34MOL   N23324059   0.691   4.830   5.917  0.6672  0.5287  0.0211
   34MOL   C23424060   0.478   5.213   5.203  0.1439  0.0712 -0.2840
   34MOL   C23524061   0.457   5.321   5.112  0.4794 -0.1419  0.5619
   34MOL   H23624062   0.232   5.165   4.905  0.0972  0.1372  0.0986
   34MOL   H23724063   0.269   4.985   5.050 -1.8003  0.9430  3.6486
   34MOL   H23824064   0.617   4.935   5.165  1.4387 -1.5884 -0.6269
   34MOL   H23924065   0.530   4.718   5.301  2.4067 -3.1261 -1.9133
   34MOL   H24024066   0.693   4.736   5.252 -2.2918 -2.2116  1.0436
   34MOL   H24124067   0.586   4.853   5.509  2.2968  2.4279  0.1111
   34MOL   H24224068   0.740   4.891   5.446  0.3207 -0.4600  0.1655
   34MOL   H24324069   0.647   4.598   5.508  2.0141 -0.6784  1.0356
   34MOL   H24424070   0.795   4.635   5.455 -1.6468 -1.2803 -1.2845
   34MOL   H24524071   0.809   4.776   5.670 -0.1945  0.9913 -0.5793
   34MOL   H24624072   0.819   4.610   5.694  0.3943  0.5356 -0.4219
   34MOL   H24724073   0.587   4.574   5.725  1.3554 -0.7319  4.3036
   34MOL   H24824074   0.547   4.747   5.705  0.1324 -0.0436 -0.2734
   34MOL   H24924075   0.582   4.649   5.956 -1.7361 -0.1355 -1.0694
   34MOL   H25024076   0.741   4.630   5.912 -0.3952  0.7933  3.4458
   34MOL   H25124077   0.625   4.903   5.896 -3.8367 -3.1207  0.5321
   34MOL   H25224078   0.543   5.227   5.288 -1.4949  3.0239  0.5644
   34MOL   H25324079   0.479   5.424   5.136  0.3870  0.8439 -3.2560
   34MOL   C25424080   0.801   4.876   5.979  0.3974  0.0996 -0.5513
   34MOL   O25524081   0.873   4.807   6.047 -0.8116  0.5189 -0.0002
   34MOL   C25624082   0.840   5.015   5.942 -0.2714  0.3207  0.4882
   34MOL   C25724083   0.845   5.117   6.039 -0.3198 -0.5142 -0.3581
   34MOL   C25824084   0.880   5.248   5.992 -0.0618  0.2325  0.4736
   34MOL   C25924085   0.921   5.275   5.862  0.8102  0.5707 -0.2476
   34MOL   C26024086   0.963   5.409   5.819 -0.1431  0.0892 -0.5331
   34MOL   O26124087   0.935   5.507   5.889 -0.5040 -0.4009  0.2289
   34MOL   N26224088   1.041   5.420   5.713 -0.5484 -0.1826  0.0019
   34MOL   C26324089   1.117   5.535   5.678 -0.2139 -0.4546  1.1034
   34MOL   C26424090   1.205   5.509   5.554  0.4454 -0.1741  0.0630
   34MOL   C26524091   1.272   5.637   5.503 -0.3970  1.2378  0.0084
   34MOL   C26624092   1.353   5.608   5.381  0.7138  0.0835 -0.0131
   34MOL   C26724093   1.393   5.745   5.313 -0.0551 -0.2219  0.5115
   34MOL   C26824094   1.505   5.725   5.208  0.7663 -0.7200 -0.5169
   34MOL   N26924095   1.518   5.849   5.128 -0.4882 -0.1581 -0.1865
   34MOL   C27024096   0.913   5.168   5.770  0.1155 -0.0517  0.1248
   34MOL   C27124097   0.859   5.042   5.800 -0.7194  0.0111 -0.0624
   34MOL   H27224098   0.820   5.102   6.143 -0.8887  0.1372 -0.4015
   34MOL   H27324099   0.870   5.329   6.063  3.0692  0.8449  0.2582
   34MOL   H27424100   1.063   5.340   5.654 -0.3694  1.6520 -2.5241
   34MOL   H27524101   1.037   5.606   5.653  1.1013  0.0211 -1.9702
   34MOL   H27624102   1.173   5.576   5.762 -0.3658  2.5352 -0.1686
   34MOL   H27724103   1.146   5.475   5.470  0.3012 -0.8147  0.4230
   34MOL   H27824104   1.280   5.434   5.579 -0.0923 -0.4463  0.9066
   34MOL   H27924105   1.196   5.712   5.481 -0.2028  1.5808  0.5143
   34MOL   H28024106   1.340   5.682   5.575  0.6254 -0.7379  0.3069
   34MOL   H28124107   1.300   5.546   5.308 -1.6556  1.1213  0.7660
   34MOL   H28224108   1.447   5.559   5.407  1.1185 -0.3087 -2.0893
   34MOL   H28324109   1.440   5.810   5.387  1.5513 -1.3064  0.4546
   34MOL   H28424110   1.312   5.808   5.275  0.0692 -1.5481 -2.0618
   34MOL   H28524111   1.591   5.707   5.271  0.9194  2.0699  0.1241
   34MOL   H28624112   1.485   5.636   5.148  0.7937 -0.2219 -1.2708
   34MOL   H28724113   1.600   5.904   5.152 -1.1559  0.1908  1.4044
   34MOL   H28824114   0.940   5.195   5.669  0.7188  1.2207  0.6260
   34MOL   H28924115   0.824   4.983   5.717  1.4520 -1.1566 -0.1895
   34MOL   C29024116   1.435   5.884   5.031  0.2330 -0.0149 -0.2170
   34MOL   O29124117   1.343   5.806   4.991 -0.1077  0.2777  0.1312
   34MOL   C29224118   1.455   6.016   4.968 -0.2882  0.2438 -0.2868
   34MOL   C29324119   1.471   6.128   5.048 -0.5560 -0.0205  0.6739
   34MOL   C29424120   1.474   6.260   5.001  0.4601  0.4559 -0.1149
   34MOL   C29524121   1.469   6.277   4.858 -0.5252 -0.2633 -0.6408
   34MOL   C29624122   1.494   6.411   4.796 -0.3705  0.1785 -0.3457
   34MOL   O29724123   1.420   6.459   4.714 -0.7871  0.0462 -0.7298
   34MOL   N29824124   1.602   6.470   4.840  0.4313 -0.7131  0.1387
   34MOL   C29924125   1.647   6.600   4.802  0.1829 -0.1301  0.6354
   34MOL   C30024126   1.592   6.707   4.888 -0.2952 -1.0176 -0.5041
   34MOL   C30124127   1.536   6.837   4.824 -0.2233 -0.3509 -0.7427
   34MOL   C30224128   1.412   6.814   4.729  0.1178  0.1271 -0.7193
   34MOL   C30324129   1.287   6.775   4.804  0.0624 -0.5836  0.3164
   34MOL   C30424130   1.170   6.745   4.709  0.3630  0.5150 -0.8123
   34MOL   N30524131   1.195   6.626   4.625  0.2526 -0.5171  0.7624
   34MOL   C30624132   1.443   6.164   4.777 -0.1061  0.8966  0.1161
   34MOL   C30724133   1.443   6.035   4.831  0.3923 -0.1722  0.1597
   34MOL   H30824134   1.472   6.123   5.156 -0.0426 -0.4407  0.6496
   34MOL   H30924135   1.490   6.337   5.075  0.8158  0.8936 -0.6449
   34MOL   H31024136   1.660   6.420   4.906  2.1958  0.2488 -0.6519
   34MOL   H31124137   1.756   6.606   4.798  0.2284  3.2764  3.9436
   34MOL   H31224138   1.618   6.625   4.701  2.4294 -1.3138 -0.3415
   34MOL   H31324139   1.665   6.743   4.960 -0.9999  0.3803 -0.4724
   34MOL   H31424140   1.518   6.672   4.960 -0.9680 -0.9578 -1.1616
   34MOL   H31524141   1.503   6.911   4.898 -1.4228 -1.1123 -0.4993
   34MOL   H31624142   1.612   6.882   4.760 -0.2451  2.0682  0.8536
   34MOL   H31724143   1.427   6.750   4.642  2.0650 -0.8393  0.2886
   34MOL   H31824144   1.395   6.910   4.681 -0.7625  0.2039 -0.2716
   34MOL   H31924145   1.263   6.861   4.867  4.1301  3.0119 -2.7854
   34MOL   H32024146   1.305   6.686   4.865 -1.0584 -0.4272  0.8858
   34MOL   H32124147   1.072   6.736   4.756  0.5489  2.3482 -0.0256
   34MOL   H32224148   1.160   6.831   4.644 -1.7030  0.5600 -0.4545
   34MOL   H32324149   1.255   6.554   4.662 -0.2102 -1.3238 -0.0128
   34MOL   H32424150   1.443   6.188   4.672 -0.5800  0.6088  0.0514
   34MOL   H32524151   1.423   5.952   4.765 -0.2512 -1.0529  1.4435
   34MOL   C32624152   1.155   6.610   4.501  0.0006 -0.2728 -0.4860
   34MOL   O32724153   1.096   6.695   4.435 -0.0465  0.6835  0.2445
   34MOL   C32824154   1.196   6.476   4.442 -0.2534  0.2048 -0.1527
   34MOL   C32924155   1.228   6.461   4.306  0.3590 -0.1893 -0.3674
   34MOL   C33024156   1.277   6.333   4.271 -0.2946  0.0604  1.1250
   34MOL   C33124157   1.274   6.219   4.350 -0.1367  0.5861  0.1131
   34MOL   C33224158   1.348   6.093   4.305 -0.1065  0.0313 -0.6297
   34MOL   O33324159   1.362   6.064   4.184 -0.0154  0.2174  0.0880
   34MOL   N33424160   1.390   6.016   4.408  0.3153  0.1809  0.5426
   34MOL   C33524161   1.460   5.889   4.403 -0.6337 -0.0797 -0.3758
   34MOL   C33624162   1.593   5.886   4.488 -0.0386 -0.2162 -1.1556
   34MOL   C33724163   1.702   5.971   4.441 -0.7714  0.0716  0.0121
   34MOL   C33824164   1.831   5.960   4.517  0.0662 -0.1632 -0.3063
   34MOL   C33924165   1.804   6.013   4.651  0.7698 -0.4240  0.3860
   34MOL   C34024166   1.930   6.052   4.739  0.1808 -0.9880 -0.1449
   34MOL   N34124167   1.890   6.068   4.883 -0.0811 -0.2306  0.6381
   34MOL   C34224168   1.220   6.234   4.482 -0.0747 -0.2121 -0.2398
   34MOL   C34324169   1.178   6.360   4.523  0.4209 -0.3040  0.3863
   34MOL   H34424170   1.237   6.545   4.239  0.4258 -0.5230 -0.7764
   34MOL   H34524171   1.314   6.326   4.170 -2.1570 -0.5357  0.4470
   34MOL   H34624172   1.362   6.056   4.497 -1.6539 -2.0908  1.0066
   34MOL   H34724173   1.395   5.804   4.422  1.3870 -1.9622 -1.6426
   34MOL   H34824174   1.485   5.875   4.297  0.0031 -4.0023  0.2119
   34MOL   H34924175   1.617   5.780   4.497 -0.1026  0.0126  2.3494
   34MOL   H35024176   1.562   5.920   4.587  1.2977 -3.4002  0.4499
   34MOL   H35124177   1.737   5.940   4.343  3.0948  2.5491  0.4819
   34MOL   H35224178   1.675   6.076   4.437  0.2674  0.3533  0.2751
   34MOL   H35324179   1.911   6.020   4.474 -1.2743  2.0717  0.2407
   34MOL   H35424180   1.857   5.855   4.523  2.2899  0.1072 -3.6631
   34MOL   H35524181   1.747   5.938   4.706  0.6011  0.9864  2.1540
   34MOL   H35624182   1.750   6.107   4.648 -0.0720 -0.8751  1.2500
   34MOL   H35724183   2.007   5.975   4.729  2.3164  0.7224  2.4661
   34MOL   H35824184   1.978   6.141   4.698  0.0259 -2.6154 -4.1308
   34MOL   H35924185   1.928   6.001   4.949  5.0995  0.2575 -1.5718
   34MOL   H36024186   1.202   6.152   4.551 -0.2304  0.6095  0.6974
   34MOL   H36124187   1.132   6.369   4.620 -1.5640 -3.7982 -0.1524
   34MOL   C36224188   1.860   6.187   4.937 -0.2886  0.2838 -1.1612
   34MOL   O36324189   1.854   6.292   4.875 -0.1557  0.0444  0.3458
   34MOL   C36424190   1.821   6.186   5.089  0.6216  0.5456  0.2086
   34MOL   C36524191   1.788   6.305   5.148  0.2974 -0.0678  0.2225
   34MOL   C36624192   1.741   6.315   5.278  0.4412  0.3307  0.6526
   34MOL   C36724193   1.711   6.200   5.359 -0.9677 -0.1234  0.0848
   34MOL   C36824194   1.649   6.212   5.496  0.5020 -0.7158  0.3419
   34MOL   O36924195   1.625   6.323   5.548  0.3353 -0.6714  0.4603
   34MOL   N37024196   1.602   6.102   5.548  0.6123 -0.1917  0.0120
   34MOL   C37124197   1.507   6.088   5.657  0.0480  0.5780  1.0881
   34MOL   C37224198   1.374   6.168   5.634  0.4138 -0.4334 -0.0813
   34MOL   C37324199   1.271   6.156   5.750 -0.0285 -0.5325 -0.3189
   34MOL   C37424200   1.235   6.011   5.782 -0.4831  0.5024  0.0306
   34MOL   C37524201   1.140   5.994   5.909  0.6039 -0.6217  0.3234
   34MOL   C37624202   1.105   5.854   5.937  0.4420 -1.1019 -0.4286
   34MOL   N37724203   1.009   5.847   6.038 -0.1163 -0.1191 -0.5529
   34MOL   C37824204   1.740   6.072   5.299  0.2048 -0.5017 -0.8406
   34MOL   C37924205   1.793   6.067   5.165  0.3912  0.0398  0.1534
   34MOL   H38024206   1.813   6.394   5.093  1.6946 -0.4882  0.1594
   34MOL   H38124207   1.733   6.410   5.329  1.7981  0.2223  1.1033
   34MOL   H38224208   1.628   6.013   5.508 -0.0131 -1.5402  2.5487
   34MOL   H38324209   1.487   5.985   5.683  0.8144 -0.5364 -2.4341
   34MOL   H38424210   1.558   6.138   5.739 -0.5632  0.5657  1.4813
   34MOL   H38524211   1.324   6.126   5.547 -2.8369  1.1812  0.9069
   34MOL   H38624212   1.399   6.272   5.611  0.2074  0.1109  2.0478
   34MOL   H38724213   1.312   6.211   5.834  1.0643 -0.1624 -1.0777
   34MOL   H38824214   1.185   6.218   5.723 -0.8783 -0.7362  1.8823
   34MOL   H38924215   1.324   5.951   5.800 -0.9840 -0.5096 -0.8142
   34MOL   H39024216   1.193   5.952   5.701  0.6706 -1.6659  0.9572
   34MOL   H39124217   1.048   6.052   5.897  0.8627 -0.2515  0.1286
   34MOL   H39224218   1.188   6.042   5.994 -0.0596  2.7396 -1.1170
   34MOL   H39324219   1.056   5.802   5.854  1.0250 -2.6958  0.2148
   34MOL   H39424220   1.196   5.794   5.941  2.1930  1.5178  0.1621
   34MOL   H39524221   0.917   5.876   6.009 -0.0140 -0.7474 -1.5422
   34MOL   H39624222   1.717   5.979   5.348  1.5947 -0.7679 -0.6890
   34MOL   H39724223   1.818   5.969   5.126  4.6476  0.8175  0.6151
   34MOL   C39824224   1.014   5.815   6.170  0.1917 -0.1585  0.5774
   34MOL   O39924225   1.113   5.793   6.237  0.0082  0.1897  0.5856
   34MOL   C40024226   0.875   5.804   6.218  0.5102  0.0977  0.2989
   34MOL   C40124227   0.766   5.752   6.142 -0.1347  0.5532  0.5680
   34MOL   C40224228   0.632   5.744   6.187 -0.2865 -0.7874  0.1777
   34MOL   C40324229   0.603   5.797   6.309 -0.2871  0.3965  0.3365
   34MOL   C40424230   0.464   5.799   6.358  0.9766  0.5476  0.1267
   34MOL   O40524231   0.369   5.768   6.283 -0.0751  0.7272  0.0229
   34MOL   N40624232   0.455   5.827   6.486  1.0141  0.0763 -0.2688
   34MOL   C40724233   0.326   5.870   6.549  0.1243 -0.5263  0.3861
   34MOL   C40824234   0.308   6.021   6.544 -0.4326  0.4186  0.5897
   34MOL   C40924235   0.432   6.093   6.574  0.0339 -0.6187 -0.2838
   34MOL   C41024236   0.407   6.236   6.637 -0.8371 -0.2325 -0.6096
   34MOL   C41124237   0.535   6.316   6.617  0.4965 -0.8962  0.0343
   34MOL   C41224238   0.522   6.463   6.600 -0.4602 -0.0225 -0.2161
   34MOL   N41324239   0.479   6.517   6.474  0.5033 -0.3793 -0.2419
   34MOL   C41424240   0.707   5.852   6.385  0.3986  0.4585  0.2115
   34MOL   C41524241   0.840   5.851   6.347  0.2108 -0.4985 -0.6497
   34MOL   H41624242   0.790   5.714   6.044  1.4279 -1.1475  1.5791
   34MOL   H41724243   0.552   5.713   6.122  0.3772  0.2814 -1.1958
   34MOL   H41824244   0.540   5.836   6.540  1.4052 -0.1172 -0.8528
   34MOL   H41924245   0.237   5.822   6.507  1.0052 -3.2696  1.5382
   34MOL   H42024246   0.322   5.843   6.655  0.5510  0.0613  0.5520
   34MOL   H42124247   0.234   6.037   6.622 -0.0021  2.2265  0.6347
   34MOL   H42224248   0.271   6.058   6.448 -0.0995 -2.4572 -0.7145
   34MOL   H42324249   0.493   6.039   6.646  1.0170  1.0000  0.1062
   34MOL   H42424250   0.495   6.089   6.485  3.5221  0.5707  2.0591
   34MOL   H42524251   0.374   6.245   6.740 -0.6854  1.4469 -0.7019
   34MOL   H42624252   0.320   6.275   6.585 -2.0988 -2.2690 -0.1080
   34MOL   H42724253   0.598   6.278   6.537  2.8591 -0.3715  1.5843
   34MOL   H42824254   0.594   6.305   6.708  0.3254 -0.7521  0.1635
   34MOL   H42924255   0.484   6.509   6.691 -1.8408  0.4412 -1.0126
   34MOL   H43024256   0.622   6.505   6.607 -0.3203 -0.1394 -1.3898
   34MOL   H43124257   0.532   6.593   6.434  0.9023  0.4274  1.8110
   34MOL   H43224258   0.689   5.896   6.481  1.6172  0.3664  0.4847
   34MOL   H43324259   0.926   5.879   6.405 -0.0119  1.0006 -1.0211
   34MOL   C43424260   0.350   6.544   6.447  0.2803  0.2478 -0.0782
   34MOL   O43524261   0.257   6.498   6.509 -0.1344  0.3955  0.8374
   34MOL   C43624262   0.316   6.633   6.330 -0.7598 -0.7167  0.0328
   34MOL   C43724263   0.179   6.677   6.311  0.5042  0.0478 -0.3366
   34MOL   C43824264   0.150   6.764   6.201 -0.5942 -0.3882 -0.3149
   34MOL   C43924265   0.253   6.814   6.118 -0.1473 -0.6414  0.7207
   34MOL   C44024266   0.220   6.906   6.008  0.4008  0.1058 -0.2782
   34MOL   O44124267   0.117   6.968   6.008 -0.2949 -0.4300  0.4780
   34MOL   N44224268   0.313   6.927   5.914  0.3822 -0.4214 -0.3693
   34MOL   C44324269   0.303   7.000   5.789 -0.1837 -0.6642  0.2308
   34MOL   C44424270   0.280   6.909   5.666 -0.2958 -0.0993 -0.4126
   34MOL   C44524271   0.258   6.997   5.543  0.4314 -0.0764 -0.3345
   34MOL   C44624272   0.216   6.925   5.414 -0.5534 -0.7596  0.4277
   34MOL   C44724273   0.318   6.953   5.305 -0.7195  1.0006 -0.0909
   34MOL   C44824274   0.460   6.895   5.326  0.1925 -0.6722  0.7491
   34MOL   N44924275   0.544   6.918   5.208  0.0824 -0.1063 -0.3249
   34MOL   C45024276   0.383   6.764   6.138  0.2092  0.3553  0.0841
   34MOL   C45124277   0.411   6.666   6.233  0.7345 -0.3155 -0.0813
   34MOL   H45224278   0.107   6.655   6.389  2.0583  0.1519  1.1558
   34MOL   H45324279   0.053   6.804   6.175  0.2825  0.0174 -3.1639
   34MOL   H45424280   0.404   6.900   5.948 -0.6457 -3.5173  0.0850
   34MOL   H45524281   0.234   7.084   5.784 -0.2634 -0.8226 -2.7326
   34MOL   H45624282   0.402   7.041   5.770 -1.6248  2.2619 -1.2868
   34MOL   H45724283   0.199   6.839   5.685 -0.9647  0.3529 -1.5277
   34MOL   H45824284   0.367   6.852   5.634  1.1054  0.7041  1.8371
   34MOL   H45924285   0.172   7.060   5.566 -2.1457 -2.5438 -2.8628
   34MOL   H46024286   0.342   7.067   5.536  0.8576 -0.7076 -1.6093
   34MOL   H46124287   0.114   6.952   5.388 -0.1950  0.5041  0.2915
   34MOL   H46224288   0.209   6.817   5.425 -1.2682 -0.5729  1.9396
   34MOL   H46324289   0.327   7.061   5.292 -0.3550  0.9892  0.0494
   34MOL   H46424290   0.275   6.929   5.207 -1.9127  0.1138  0.6394
   34MOL   H46524291   0.503   6.939   5.416  3.2175 -2.2500  0.1520
   34MOL   H46624292   0.461   6.791   5.358 -0.0494 -0.5100  1.2989
   34MOL   H46724293   0.489   6.920   5.123  0.3523 -1.3616 -0.5284
   34MOL   H46824294   0.463   6.790   6.071  0.8148  1.1883  1.1117
   34MOL   H46924295   0.515   6.654   6.260  0.9401 -0.1024 -0.7808
   34MOL   C47024296   0.662   6.974   5.198 -0.0108  0.4202  0.0203
   34MOL   O47124297   0.727   6.997   5.295 -0.1844  0.1408  0.7467
   34MOL   C47224298   0.709   7.036   5.066  0.0791 -0.4919 -0.0462
   34MOL   C47324299   0.847   7.049   5.036  0.6790  0.1153 -0.2655
   34MOL   C47424300   0.885   7.113   4.917 -0.1554  0.5499  0.5688
   34MOL   C47524301   0.790   7.178   4.839  0.3081  0.2330  0.6389
   34MOL   C47624302   0.829   7.246   4.709  0.5953 -0.0656  0.0251
   34MOL   O47724303   0.747   7.279   4.624 -0.0446 -0.0536  0.3575
   34MOL   N47824304   0.958   7.262   4.702 -0.3029 -0.4990 -0.1518
   34MOL   C47924305   1.030   7.336   4.591 -0.3828 -0.4320 -0.3021
   34MOL   C48024306   1.168   7.385   4.627  0.1848 -0.3114 -0.0279
   34MOL   C48124307   1.205   7.504   4.547 -0.1755  0.2307  0.0465
   34MOL   C48224308   1.348   7.549   4.588 -0.1398  0.4312 -0.2541
   34MOL   C48324309   1.363   7.696   4.568 -0.7853 -0.0403  0.2086
   34MOL   C48424310   1.494   7.755   4.624  0.0845  0.3517  0.0256
   34MOL   N48524311   1.525   7.723   4.760 -0.1747 -0.2809 -0.2347
   34MOL   C48624312   0.652   7.169   4.870  0.8272  0.2023 -0.3939
   34MOL   C48724313   0.612   7.097   4.979 -0.2855  0.1453  0.4635
   34MOL   H48824314   0.927   7.002   5.091 -0.7801 -1.2000  0.7862
   34MOL   H48924315   0.988   7.111   4.885 -0.2522  3.2073 -0.0090
   34MOL   H49024316   1.019   7.231   4.776  2.4128  1.7204 -1.3257
   34MOL   H49124317   1.031   7.266   4.507 -0.6885  0.9184 -1.4574
   34MOL   H49224318   0.967   7.408   4.539 -0.3939  0.7135  1.2815
   34MOL   H49324319   1.251   7.317   4.607  0.8027  0.8397 -1.5055
   34MOL   H49424320   1.168   7.404   4.735 -0.2416 -1.1177  0.1136
   34MOL   H49524321   1.204   7.484   4.439 -1.4803  1.5409 -0.1933
   34MOL   H49624322   1.128   7.579   4.563  1.3084  1.7692  0.0557
   34MOL   H49724323   1.422   7.484   4.541 -0.2052 -0.8005  1.3081
   34MOL   H49824324   1.344   7.525   4.694 -1.8641 -1.1618 -0.6513
   34MOL   H49924325   1.275   7.743   4.611 -0.3532  0.2769  0.7423
   34MOL   H50024326   1.375   7.719   4.462 -0.8962 -1.2711 -0.0838
   34MOL   H50124327   1.576   7.717   4.563  0.8646  0.6210  0.8891
   34MOL   H50224328   1.492   7.863   4.613  0.2121  0.1453 -2.1609
   34MOL   H50324329   1.459   7.663   4.807 -0.1215 -1.1482 -1.2658
   34MOL   H50424330   0.576   7.219   4.812  0.1753 -0.1151  0.1764
   34MOL   H50524331   0.507   7.090   5.004 -0.4416  1.0218  0.0751
   34MOL   C50624332   1.642   7.747   4.828  0.2546  0.3935 -0.2905
   34MOL   O50724333   1.736   7.801   4.772 -0.2815  0.0951  0.1354
   34MOL   C50824334   1.667   7.690   4.966  0.7587  0.0782 -0.2968
   34MOL   C50924335   1.563   7.621   5.040  0.3893 -0.7618  0.0845
   34MOL   C51024336   1.591   7.550   5.161  0.4891 -0.5446 -0.1056
   34MOL   C51124337   1.722   7.545   5.209 -0.8201 -0.1155  0.5890
   34MOL   C51224338   1.756   7.475   5.338  0.1343 -0.5657  0.2658
   34MOL   O51324339   1.800   7.539   5.434 -0.6161  0.2809  0.2787
   34MOL   N51424340   1.752   7.341   5.336  0.4255  0.3751  0.5920
   34MOL   C51524341   1.803   7.247   5.441 -0.1393  0.1697  0.2659
   34MOL   C51624342   1.948   7.279   5.487  0.4517  0.3632  0.5488
   34MOL   C51724343   2.016   7.163   5.555 -0.1826 -0.8373 -0.1085
   34MOL   C51824344   2.131   7.197   5.644 -0.1910 -0.0771  0.0992
   34MOL   C51924345   2.274   7.207   5.578 -0.1611  0.3351 -0.2931
   34MOL   C52024346   2.379   7.276   5.663 -0.5538 -0.8153 -0.6580
   34MOL   N52124347   2.502   7.296   5.591 -0.7336 -0.6122 -0.0826
   34MOL   C52224348   1.830   7.610   5.140 -0.3117 -0.0741 -0.1255
   34MOL   C52324349   1.796   7.676   5.015 -0.2555  0.2191  0.0452
   34MOL   H52424350   1.462   7.616   5.004  0.1012 -2.0125  1.0318
   34MOL   H52524351   1.513   7.486   5.200  0.3655 -0.7067 -0.6147
   34MOL   H52624352   1.709   7.300   5.254  1.9765  0.9382 -0.5175
   34MOL   H52724353   1.734   7.244   5.526 -1.6875  1.4033 -0.9180
   34MOL   H52824354   1.807   7.143   5.408  2.9020 -0.1342  1.3805
   34MOL   H52924355   1.961   7.372   5.543 -1.4333 -0.0907  1.7730
   34MOL   H53024356   2.012   7.310   5.404  0.6005  0.3992  0.6789
   34MOL   H53124357   1.932   7.131   5.617 -0.9405  1.2387 -0.0280
   34MOL   H53224358   2.048   7.083   5.488  0.7432 -0.5481 -0.0230
   34MOL   H53324359   2.146   7.113   5.713 -0.5209  1.7286  2.4490
   34MOL   H53424360   2.105   7.276   5.715  2.0888 -0.0505  0.9546
   34MOL   H53524361   2.244   7.245   5.480 -1.4497  2.3837  0.8563
   34MOL   H53624362   2.305   7.103   5.565 -1.5707 -0.0070 -1.1216
   34MOL   H53724363   2.366   7.379   5.695 -0.4877 -1.0739  0.1962
   34MOL   H53824364   2.396   7.221   5.755 -0.4827  0.2275 -0.0406
   34MOL   H53924365   2.498   7.328   5.495  0.0951  3.4550  1.1274
   34MOL   H54024366   1.933   7.606   5.173 -0.6500 -0.2837  0.9105
   34MOL   H54124367   1.880   7.705   4.954 -0.1591  1.1652  0.6288
   34MOL   C54224368   2.617   7.260   5.630  0.2303  0.6761 -0.1661
   34MOL   O54324369   2.624   7.197   5.734  0.0031  0.9287  0.1462
   34MOL   C54424370   2.738   7.264   5.537  0.7404  0.3661 -0.3076
   34MOL   C54524371   2.730   7.307   5.407  0.5246  0.1433  0.4794
   34MOL   C54624372   2.843   7.294   5.319  0.2394  0.6550 -0.2734
   34MOL   C54724373   2.965   7.237   5.369 -0.4609 -0.1654 -0.3871
   34MOL   C54824374   3.079   7.216   5.277  0.1552 -0.2550  0.7396
   34MOL   O54924375   3.152   7.122   5.286  0.4175  0.2357 -0.5273
   34MOL   N55024376   3.097   7.318   5.189  0.6703 -0.5948 -0.0256
   34MOL   C55124377   3.191   7.327   5.075  0.7218  0.5684 -0.3510
   34MOL   C55224378   3.158   7.441   4.977  0.1349  0.2089  0.3070
   34MOL   C55324379   3.241   7.462   4.858  0.5301  0.5002  0.0679
   34MOL   C55424380   3.211   7.586   4.770 -0.6268 -0.5871  1.1248
   34MOL   C55524381   3.300   7.600   4.647  0.7353  0.0210 -0.0483
   34MOL   C55624382   3.247   7.688   4.538 -0.1755 -0.1941 -0.2280
   34MOL   N55724383   3.124   7.628   4.491 -1.2215  0.0224 -0.5498
   34MOL   C55824384   2.976   7.207   5.508 -0.6948 -0.5047  0.3582
   34MOL   C55924385   2.861   7.226   5.592  0.6991  0.8464 -0.0180
   34MOL   H56024386   2.632   7.331   5.368  0.1444 -0.0331  1.3272
   34MOL   H56124387   2.830   7.320   5.215  0.7421  0.7422 -0.3166
   34MOL   H56224388   3.045   7.401   5.212 -0.2183 -1.6009  1.7391
   34MOL   H56324389   3.292   7.339   5.115 -0.2488  0.3090  2.2599
   34MOL   H56424390   3.199   7.233   5.021  1.0411  2.0216 -2.9098
   34MOL   H56524391   3.161   7.539   5.025  2.4535 -0.3139  1.3017
   34MOL   H56624392   3.055   7.434   4.942  0.0196  1.6286  0.3618
   34MOL   H56724393   3.345   7.482   4.884  0.4260  1.1381  0.0190
   34MOL   H56824394   3.248   7.368   4.805  1.3606 -1.5958  3.7051
   34MOL   H56924395   3.223   7.678   4.827  0.5956 -1.2933  2.0420
   34MOL   H57024396   3.106   7.596   4.742 -0.2859  1.9166  0.6260
   34MOL   H57124397   3.325   7.500   4.611 -0.0279 -0.5643  0.9876
   34MOL   H57224398   3.399   7.634   4.677  0.9236 -0.0483 -0.5931
   34MOL   H57324399   3.219   7.784   4.581  0.3693  0.1260 -0.5857
   34MOL   H57424400   3.326   7.696   4.463  1.2489  2.1693  1.4330
   34MOL   H57524401   3.047   7.692   4.503 -0.3844  0.8988  0.2237
   34MOL   H57624402   3.071   7.175   5.549 -0.3733 -0.3375 -0.2533
   34MOL   H57724403   2.873   7.199   5.696  4.0889  0.6616 -0.3852
   34MOL   C57824404   3.107   7.523   4.405  0.2480  0.6391 -0.2056
   34MOL   O57924405   3.203   7.480   4.349  0.0343 -0.5021 -0.4280
   34MOL   C58024406   2.974   7.483   4.362 -0.5198 -0.0369  0.4342
   34MOL   C58124407   2.856   7.529   4.433 -0.2808  0.0355 -0.2553
   34MOL   C58224408   2.729   7.494   4.392 -0.6677 -0.0379 -0.7909
   34MOL   C58324409   2.711   7.411   4.280 -0.3767 -0.1526 -0.3212
   34MOL   C58424410   2.573   7.373   4.235  0.0269 -0.5890  0.0985
   34MOL   O58524411   2.489   7.465   4.227 -0.4656 -0.2675  0.1928
   34MOL   N58624412   2.546   7.251   4.191  0.4322  0.9254  0.5193
   34MOL   C58724413   2.410   7.198   4.167  0.9858  0.2781  0.5129
   34MOL   C58824414   2.374   7.073   4.246 -0.1632 -0.7459 -0.4700
   34MOL   C58924415   2.230   7.031   4.215 -0.1332 -0.4974  0.2501
   34MOL   C59024416   2.162   6.919   4.305  0.0915  0.0426 -0.1739
   34MOL   C59124417   2.007   6.935   4.315  0.3083  0.4511 -0.7419
   34MOL   C59224418   1.947   6.841   4.425  0.6599 -0.2541  0.1037
   34MOL   N59324419   1.800   6.852   4.419  0.1179 -0.8670  0.1996
   34MOL   C59424420   2.821   7.374   4.211 -0.3288  0.0723  0.4597
   34MOL   C59524421   2.953   7.399   4.248  0.0153  0.9890 -0.3523
   34MOL   H59624422   2.871   7.585   4.524 -0.2635  0.1077 -0.3026
   34MOL   H59724423   2.647   7.534   4.449  0.9008  1.4444  0.4848
   34MOL   H59824424   2.615   7.187   4.226  1.4448  2.1934  0.8628
   34MOL   H59924425   2.339   7.279   4.185  1.1605  0.6918 -0.6215
   34MOL   H60024426   2.387   7.177   4.062 -0.1387 -2.8492  1.3155
   34MOL   H60124427   2.392   7.095   4.351 -0.2431  1.1204 -0.8210
   34MOL   H60224428   2.436   6.988   4.218  0.2990 -0.5505 -0.0575
   34MOL   H60324429   2.172   7.123   4.225  0.6765  0.1193 -0.6844
   34MOL   H60424430   2.210   7.009   4.110  1.0006 -1.5430  0.2382
   34MOL   H60524431   2.195   6.926   4.409 -0.8596  0.2916  0.1107
   34MOL   H60624432   2.191   6.818   4.274  0.9163  0.4058 -0.6059
   34MOL   H60724433   1.972   6.903   4.217 -2.9785 -2.2502  1.1885
   34MOL   H60824434   1.986   7.038   4.343 -1.7905 -0.3122  0.5917
   34MOL   H60924435   1.969   6.734   4.414 -3.5309 -1.2820  0.6857
   34MOL   H61024436   1.989   6.861   4.523 -1.1013 -0.0994  0.8548
   34MOL   H61124437   1.743   6.808   4.348 -0.4023 -1.0076  0.7046
   34MOL   H61224438   2.809   7.308   4.127  1.1271  0.1380  0.1763
   34MOL   H61324439   3.029   7.355   4.184 -0.1576 -0.0198  0.1321
   34MOL   C61424440   1.740   6.950   4.480 -0.0058 -0.1686 -0.9108
   34MOL   O61524441   1.800   7.035   4.551 -0.0216  0.1535  0.3869
   34MOL   C61624442   1.589   6.965   4.451 -0.1364 -0.3120  0.6558
   34MOL   C61724443   1.545   7.100   4.441 -0.6495 -0.2063 -0.6979
   34MOL   C61824444   1.412   7.131   4.408  0.0842  0.5351  0.0500
   34MOL   C61924445   1.328   7.025   4.372 -0.0620 -0.0886  0.0380
   34MOL   C62024446   1.200   7.066   4.305  0.5838  0.2610  0.3169
   34MOL   O62124447   1.192   7.175   4.247  0.4528 -0.5028 -0.2007
   34MOL   N62224448   1.094   6.986   4.325 -0.1833  0.0625  0.5135
   34MOL   C62324449   0.965   6.998   4.267 -0.6385 -0.2874 -0.2414
   34MOL   C62424450   0.853   7.015   4.371 -0.4273 -0.3715  0.2386
   34MOL   C62524451   0.839   6.897   4.468  0.1253  0.3000  0.1819
   34MOL   C62624452   0.720   6.897   4.567 -0.2226 -0.8476 -0.4008
   34MOL   C62724453   0.706   6.760   4.632  0.0237  0.4631  0.0313
   34MOL   C62824454   0.627   6.754   4.763 -0.1707 -0.4798 -0.6752
   34MOL   N62924455   0.487   6.782   4.742 -0.7374  0.3753 -0.1157
   34MOL   C63024456   1.371   6.891   4.375  0.2114  0.1542 -0.1184
   34MOL   C63124457   1.505   6.859   4.415  0.0537  0.3451  0.7237
   34MOL   H63224458   1.601   7.187   4.473 -1.8550 -0.0775  1.1658
   34MOL   H63324459   1.373   7.229   4.389  0.1888  0.3021 -1.3612
   34MOL   H63424460   1.111   6.923   4.402  1.9510  0.3443  0.2965
   34MOL   H63524461   0.961   7.062   4.178 -1.1859 -0.5869 -0.4370
   34MOL   H63624462   0.949   6.901   4.220  1.8704 -1.2541  0.8161
   34MOL   H63724463   0.759   7.036   4.320  0.2769 -1.0206 -1.3616
   34MOL   H63824464   0.869   7.106   4.429 -0.6021 -0.5750  0.6039
   34MOL   H63924465   0.814   6.810   4.407 -2.3004  1.5322 -0.6802
   34MOL   H64024466   0.931   6.871   4.520 -0.3850 -1.2728  0.3112
   34MOL   H64124467   0.626   6.912   4.514  0.4189 -1.1955 -1.6566
   34MOL   H64224468   0.743   6.975   4.640 -0.8681 -0.9189 -0.1176
   34MOL   H64324469   0.804   6.719   4.655  0.0691  1.2826  1.3535
   34MOL   H64424470   0.658   6.687   4.567  1.8758 -2.5288  1.9215
   34MOL   H64524471   0.635   6.654   4.806  0.6867 -0.6508 -1.2197
   34MOL   H64624472   0.677   6.819   4.834 -0.0135 -0.3434 -0.9111
   34MOL   H64724473   0.459   6.793   4.645 -1.1234 -0.5124 -0.1092
   34MOL   H64824474   1.306   6.819   4.327  0.4951  0.7856 -1.4847
   34MOL   H64924475   1.534   6.755   4.404  0.7800  0.3658  2.3824
   34MOL   C65024476   0.399   6.814   4.834  0.1647  0.1817  0.0957
   34MOL   O65124477   0.430   6.829   4.950  0.4641  0.1057  0.2941
   34MOL   C65224478   0.267   6.874   4.777  0.1084  0.9642 -0.2241
   34MOL   C65324479   0.220   6.834   4.649 -0.0967 -0.7786  0.6363
   34MOL   C65424480   0.098   6.889   4.600 -0.3356  0.2378 -0.1809
   34MOL   C65524481   0.018   6.984   4.673 -0.7853  0.0563 -0.5686
   34MOL   C65624482   7.778   7.042   4.619 -0.9934 -0.0276  0.5253
   34MOL   O65724483   7.754   7.158   4.637  0.5830  0.6821  0.3022
   34MOL   N65824484   7.703   6.966   4.551  0.2736 -0.5653  0.2040
   34MOL   C65924485   7.575   7.000   4.486 -0.1835 -0.2726  0.1641
   34MOL   C66024486   7.586   7.003   4.331 -0.2217  0.3512 -0.5172
   34MOL   C66124487   7.689   7.105   4.277 -0.1013 -0.7259  0.4827
   34MOL   C66224488   7.715   7.068   4.128 -0.6825 -0.4091 -0.4945
   34MOL   C66324489   7.818   7.161   4.059  0.4706  0.0443 -0.5787
   34MOL   C66424490   7.861   7.123   3.913 -0.3552 -0.6065  0.2074
   34MOL   N66524491   0.044   6.996   3.911 -0.1723  0.3362 -0.2723
   34MOL   C66624492   0.072   7.027   4.796  0.6734 -0.2490 -0.6624
   34MOL   C66724493   0.191   6.973   4.850 -0.3375 -0.1973 -0.5670
   34MOL   H66824494   0.276   6.771   4.582  0.9886  0.8674 -0.0508
   34MOL   H66924495   0.062   6.860   4.502  1.1292 -1.7739 -0.1346
   34MOL   H67024496   7.735   6.871   4.541 -0.5098 -0.8817  0.6783
   34MOL   H67124497   7.497   6.926   4.507 -0.1801 -0.5556 -0.8026
   34MOL   H67224498   7.550   7.100   4.520 -1.8352 -0.7051  0.2825
   34MOL   H67324499   7.498   7.039   4.278 -0.4772  0.7549  0.1790
   34MOL   H67424500   7.612   6.903   4.297 -0.4173  0.6183 -1.4799
   34MOL   H67524501   7.647   7.205   4.287 -2.4589 -1.5971 -0.2786
   34MOL   H67624502   7.783   7.115   4.332  0.3649 -2.7712  0.0901
   34MOL   H67724503   7.624   7.050   4.071 -0.2528 -1.2121 -0.9383
   34MOL   H67824504   7.767   6.972   4.129  1.0768  0.5352  0.6158
   34MOL   H67924505   0.022   7.176   4.119 -0.9153  1.2012  1.2665
   34MOL   H68024506   7.782   7.263   4.051  0.6560  0.0813 -0.9834
   34MOL   H68124507   7.785   7.120   3.835 -2.6709 -0.0154  2.3503
   34MOL   H68224508   0.042   7.198   3.869 -1.3041  0.9020  1.2740
   34MOL   H68324509   0.025   6.925   3.979 -2.8433  0.0908 -1.2052
   34MOL   H68424510   0.012   7.094   4.855 -1.3775 -2.9857  0.5068
   34MOL   H68524511   0.209   6.993   4.955  2.4805  0.7302 -1.1874
   34MOL   C68624512   0.137   6.952   3.820 -0.0743  0.8927  0.1095
   34MOL   O68724513   0.165   7.017   3.720 -0.4916  0.0836  1.1980
   34MOL   C68824514   0.211   6.828   3.860 -0.4076  0.4230 -0.8945
   34MOL   C68924515   0.265   6.750   3.753  0.3963  0.7326 -0.1266
   34MOL   C69024516   0.331   6.625   3.775 -0.0094 -1.1535  0.2225
   34MOL   C69124517   0.341   6.578   3.911  0.1948 -0.2012  0.2295
   34MOL   C69224518   0.396   6.444   3.946  0.4886 -0.5332  0.1781
   34MOL   O69324519   0.333   6.373   4.026  0.1988 -0.8190 -0.1832
   34MOL   N69424520   0.510   6.400   3.887 -0.9082  0.2150  0.5785
   34MOL   C69524521   0.572   6.275   3.933  0.1863 -0.6405 -1.0268
   34MOL   C69624522   0.565   6.177   3.824 -0.6972 -0.2597  0.3857
   34MOL   C69724523   0.657   6.053   3.849 -0.4428 -0.2878  0.8084
   34MOL   C69824524   0.670   5.954   3.729 -0.5753 -0.1960  0.3920
   34MOL   C69924525   0.801   5.882   3.720  0.0999  0.3822  0.6643
   34MOL   C70024526   0.831   5.833   3.575 -0.1932 -1.1649  0.1433
   34MOL   N70124527   0.966   5.788   3.568  0.4224  0.0470  0.1184
   34MOL   C70224528   0.293   6.660   4.015 -0.7559 -0.0030 -0.6179
   34MOL   C70324529   0.229   6.778   3.991 -0.9048 -0.4396  0.2011
   34MOL   H70424530   0.262   6.784   3.650  0.1897 -0.6223 -0.5775
   34MOL   H70524531   0.370   6.570   3.691  0.3431 -1.8616  0.8476
   34MOL   H70624532   0.568   6.462   3.832 -2.0279 -0.4049 -1.3290
   34MOL   H70724533   0.676   6.301   3.954 -0.3228  0.8452 -0.2590
   34MOL   H70824534   0.543   6.230   4.029  1.6220  1.3031  0.3687
   34MOL   H70924535   0.603   6.237   3.741 -1.8564  0.2679  0.2386
   34MOL   H71024536   0.457   6.165   3.823 -0.7762  0.3986  0.6243
   34MOL   H71124537   0.755   6.094   3.870 -0.5652  0.5167 -0.1558
   34MOL   H71224538   0.629   6.001   3.941 -4.7419  0.3881  0.0038
   34MOL   H71324539   0.649   6.011   3.638 -1.5652  4.1579  3.2326
   34MOL   H71424540   0.585   5.886   3.735  0.3738 -1.3168  1.2973
   34MOL   H71524541   0.805   5.799   3.791 -3.6189  0.7849  1.4186
   34MOL   H71624542   0.878   5.955   3.744  0.1540 -0.1104  2.0133
   34MOL   H71724543   0.759   5.757   3.544 -2.7230  1.9729 -2.0069
   34MOL   H71824544   0.818   5.917   3.507  0.2982 -0.0728  1.3756
   34MOL   H71924545   0.994   5.725   3.641  0.8485 -0.0772 -0.1517
   34MOL   H72024546   0.292   6.621   4.116 -1.7063  2.4959  0.4022
   34MOL   H72124547   0.187   6.838   4.070  0.8469  0.1363  0.7148
   34MOL   H72224548   0.992   5.746   3.480 -0.1113 -0.6361  0.2844
   35MOL     C124549   5.408   4.813   4.913  0.4771 -0.3389  0.1058
   35MOL     O224550   5.347   4.879   4.994  0.2049 -0.2021  0.2215
   35MOL     C324551   5.415   4.835   4.768  0.5006 -0.4360  0.7689
   35MOL     C424552   5.378   4.959   4.710 -0.1279  0.1194  1.4306
   35MOL     C524553   5.379   4.973   4.569 -0.0252 -0.0635 -0.0561
   35MOL     C624554   5.434   4.870   4.485 -0.5692 -0.5651 -0.1341
   35MOL     C724555   5.444   4.893   4.339 -0.3210 -0.0115 -0.3993
   35MOL     O824556   5.476   4.800   4.262  0.2092  0.1378  0.8499
   35MOL     N924557   5.422   5.015   4.284 -0.6227 -0.3057 -0.2010
   35MOL    C1024558   5.424   5.055   4.141 -0.3236  0.0518 -0.1433
   35MOL    C1124559   5.292   5.049   4.069  0.4475 -0.3362  0.6942
   35MOL    C1224560   5.307   5.101   3.916  0.2183 -0.3380 -0.7318
   35MOL    C1324561   5.417   5.020   3.833 -0.2865 -0.9155 -0.0949
   35MOL    C1424562   5.351   4.899   3.772 -0.2831  0.6367  0.1962
   35MOL    C1524563   5.424   4.823   3.660  0.2462 -0.1452  0.1221
   35MOL    N1624564   5.340   4.730   3.594  0.5011 -0.0662 -0.3299
   35MOL    C1724565   5.471   4.748   4.543 -0.2608 -0.1902 -0.5278
   35MOL    C1824566   5.460   4.730   4.683 -0.3638  0.1550  0.5619
   35MOL    H1924567   5.354   5.043   4.773 -1.0204  2.4952 -2.0013
   35MOL    H2024568   5.349   5.062   4.515 -2.0751 -0.2252  0.7446
   35MOL    H2124569   5.365   5.071   4.346  1.3118  2.0817 -0.4831
   35MOL    H2224570   5.465   5.156   4.131  3.4695 -1.3948  0.2417
   35MOL    H2324571   5.489   4.986   4.088 -0.3031  0.4569 -0.6580
   35MOL    H2424572   5.205   5.100   4.110  1.0909 -0.1645  1.8727
   35MOL    H2524573   5.259   4.946   4.058 -0.4720 -0.0582  0.8395
   35MOL    H2624574   5.214   5.101   3.858  0.4611 -1.7019 -1.1411
   35MOL    H2724575   5.334   5.205   3.933 -0.3963 -0.1003 -1.1885
   35MOL    H2824576   5.511   4.986   3.877 -0.2022 -3.4393 -2.0851
   35MOL    H2924577   5.452   5.080   3.749 -0.8106  0.0642  0.3819
   35MOL    H3024578   5.252   4.929   3.737  0.5341  1.4236 -1.4665
   35MOL    H3124579   5.342   4.822   3.849 -0.6894 -0.9668 -1.4370
   35MOL    H3224580   5.468   4.894   3.590 -2.5418 -0.0790 -1.6545
   35MOL    H3324581   5.507   4.766   3.702 -0.0426  0.1898  1.1635
   35MOL    H3424582   5.239   4.738   3.597  0.7043  3.1565  0.0572
   35MOL    H3524583   5.508   4.673   4.474 -3.0161  0.3673 -2.6764
   35MOL    H3624584   5.484   4.638   4.733  2.0968 -0.5444 -1.8221
   35MOL    H3724585   5.451   4.716   4.940 -0.9684 -0.8722  0.5374
   35MOL    C3824586   5.372   4.635   3.511 -0.2761 -0.3423 -0.5362
   35MOL    O3924587   5.478   4.624   3.444  0.4157 -0.4828  0.1698
   35MOL    C4024588   5.257   4.529   3.501  0.8554 -0.1447 -0.2054
   35MOL    C4124589   5.135   4.536   3.575 -0.0197  0.0988 -0.0048
   35MOL    C4224590   5.042   4.435   3.565 -0.0241  0.1621  0.9039
   35MOL    C4324591   5.069   4.319   3.483  0.3076 -0.5249  0.1760
   35MOL    C4424592   4.958   4.218   3.469 -0.2727  0.3690 -0.0401
   35MOL    O4524593   4.921   4.172   3.366  0.2290 -0.1668 -0.1735
   35MOL    N4624594   4.902   4.184   3.587 -0.8745 -0.1529 -0.5313
   35MOL    C4724595   4.786   4.104   3.601  0.0282 -0.1521 -0.3874
   35MOL    C4824596   4.751   4.089   3.749 -0.5470 -0.7844 -0.9370
   35MOL    C4924597   4.862   4.028   3.836 -0.4202  0.3585 -0.4212
   35MOL    C5024598   4.832   4.012   3.984  0.3400 -0.0520 -0.5478
   35MOL    C5124599   4.943   3.959   4.074 -0.2157 -0.2336  0.5546
   35MOL    C5224600   4.885   3.945   4.222 -0.0648  0.1535  0.2677
   35MOL    N5324601   4.857   4.075   4.270 -0.1236  0.1047  0.7245
   35MOL    C5424602   5.182   4.318   3.397  0.6921 -0.7095 -0.6302
   35MOL    C5524603   5.275   4.419   3.410  0.1230  0.3976  0.4032
   35MOL    H5624604   5.116   4.615   3.647 -0.8887  0.4704 -0.6282
   35MOL    H5724605   4.946   4.455   3.611 -0.4846 -1.3298  0.6536
   35MOL    H5824606   4.948   4.214   3.671 -1.5171  2.2479 -1.0139
   35MOL    H5924607   4.698   4.158   3.569 -1.1675 -2.5928 -1.3644
   35MOL    H6024608   4.790   4.007   3.551 -2.6293 -1.4117  1.7005
   35MOL    H6124609   4.669   4.019   3.766  0.1467 -1.0389  1.7203
   35MOL    H6224610   4.713   4.178   3.798  2.4309 -0.0329  0.1165
   35MOL    H6324611   4.879   3.930   3.792  1.9591  0.1288  0.9166
   35MOL    H6424612   4.958   4.078   3.827 -0.4245  0.6205  0.8657
   35MOL    H6524613   4.746   3.946   3.986  0.0293  0.3795  0.4807
   35MOL    H6624614   4.797   4.104   4.031  1.2284 -0.3269  0.6787
   35MOL    H6724615   5.024   4.031   4.065  0.0323 -0.6536 -0.6270
   35MOL    H6824616   4.982   3.860   4.051  2.0352  0.7985 -0.2453
   35MOL    H6924617   4.787   3.898   4.224  0.2973 -0.6059  0.4113
   35MOL    H7024618   4.966   3.898   4.278 -0.3103 -0.9060 -0.2698
   35MOL    H7124619   4.759   4.096   4.258  0.0484 -0.3596 -1.6642
   35MOL    H7224620   5.196   4.247   3.317 -2.4107 -1.2079 -0.8090
   35MOL    H7324621   5.361   4.428   3.346  0.0468  0.0535  0.2576
   35MOL    C7424622   4.938   4.158   4.331  0.1820  0.3431  0.1163
   35MOL    O7524623   5.048   4.124   4.359 -0.1226  0.5590  0.4732
   35MOL    C7624624   4.874   4.287   4.364  0.6138  0.6486 -0.1821
   35MOL    C7724625   4.784   4.349   4.275  0.5163 -0.6074  0.1196
   35MOL    C7824626   4.736   4.479   4.303 -0.5950  0.4498  0.0671
   35MOL    C7924627   4.780   4.546   4.421  0.0309 -0.2158 -0.3532
   35MOL    C8024628   4.734   4.684   4.453 -0.5271  0.0251 -0.7710
   35MOL    O8124629   4.680   4.753   4.372 -0.1965  0.3276 -0.2094
   35MOL    N8224630   4.752   4.726   4.582 -0.5853 -0.5469  0.4796
   35MOL    C8324631   4.731   4.863   4.639  0.1097  0.0206  0.3448
   35MOL    C8424632   4.854   4.950   4.600 -0.7268 -1.0177  0.5733
   35MOL    C8524633   4.994   4.903   4.640 -0.4231 -0.6498  0.6639
   35MOL    C8624634   5.014   4.882   4.787 -0.6388  0.0800 -0.5367
   35MOL    C8724635   4.998   5.005   4.873  0.1961  0.0490  0.2108
   35MOL    C8824636   5.002   4.968   5.021  0.0349 -0.3199 -0.2499
   35MOL    N8924637   4.984   5.096   5.093  0.0564  0.0411  0.0026
   35MOL    C9024638   4.875   4.485   4.507 -0.8829  0.0737  0.0035
   35MOL    C9124639   4.920   4.358   4.477 -0.7100  0.2170 -0.5446
   35MOL    H9224640   4.749   4.312   4.180  0.0604 -0.0057  0.0506
   35MOL    H9324641   4.682   4.529   4.224 -2.1146 -2.0349 -0.5263
   35MOL    H9424642   4.796   4.659   4.642 -2.5011  0.4689  3.1077
   35MOL    H9524643   4.635   4.905   4.610  1.7290  2.6947 -1.3645
   35MOL    H9624644   4.726   4.858   4.748  0.6589  0.5004  0.3966
   35MOL    H9724645   4.835   5.044   4.651  0.8611 -0.2273 -0.2706
   35MOL    H9824646   4.863   4.967   4.493 -1.4602  1.0387  0.8138
   35MOL    H9924647   5.007   4.808   4.589  1.8445 -0.0050 -0.0006
   35MOL   H10024648   5.066   4.981   4.613 -0.3704 -0.5840  0.9986
   35MOL   H10124649   5.111   4.837   4.807 -1.8543 -3.0759 -1.3762
   35MOL   H10224650   4.938   4.815   4.826 -0.1581  0.4622  1.0890
   35MOL   H10324651   4.897   5.042   4.858  0.8040  1.7511  0.2305
   35MOL   H10424652   5.071   5.080   4.843 -1.6548  1.2503 -1.4269
   35MOL   H10524653   4.926   4.894   5.046 -0.9891  0.6001 -0.5705
   35MOL   H10624654   5.089   4.911   5.052  0.0577 -0.8040 -1.1898
   35MOL   H10724655   5.067   5.152   5.106 -0.8239  1.0273  1.5498
   35MOL   H10824656   4.921   4.536   4.591  1.9607  1.7330 -2.4670
   35MOL   H10924657   4.990   4.304   4.539  0.0975  1.8627  0.0023
   35MOL   C11024658   4.871   5.148   5.144 -0.1459  0.7820  0.6882
   35MOL   O11124659   4.753   5.108   5.128  0.2211 -0.5436  0.5805
   35MOL   C11224660   4.891   5.268   5.231 -0.7898  0.1757 -0.4764
   35MOL   C11324661   4.793   5.368   5.243  0.0539 -0.4578  0.5566
   35MOL   C11424662   4.824   5.487   5.312  0.0775 -0.1396 -0.1747
   35MOL   C11524663   4.952   5.500   5.383  1.1995  0.4324 -0.2103
   35MOL   C11624664   4.988   5.623   5.464  0.1895 -0.0411  0.6377
   35MOL   O11724665   5.087   5.616   5.536 -0.3703 -0.6507  0.0611
   35MOL   N11824666   4.896   5.727   5.452 -0.6869 -0.1268  0.7516
   35MOL   C11924667   4.914   5.854   5.526  0.5283  0.5392  0.7491
   35MOL   C12024668   4.971   5.968   5.444  0.1746 -0.5119 -0.1005
   35MOL   C12124669   4.933   6.103   5.514 -0.5872 -0.1597  0.3000
   35MOL   C12224670   5.013   6.228   5.458 -0.1335  0.0163 -0.1210
   35MOL   C12324671   4.984   6.357   5.540  0.2852  0.1156  0.4558
   35MOL   C12424672   5.074   6.472   5.502  0.1003 -0.0707 -0.3924
   35MOL   N12524673   5.039   6.587   5.571 -0.2767 -0.9811  0.1496
   35MOL   C12624674   5.041   5.395   5.370 -0.2078  0.1855  0.3807
   35MOL   C12724675   5.012   5.277   5.301 -0.4813  0.1713  0.3567
   35MOL   H12824676   4.702   5.368   5.185 -0.9941  0.0749  2.1726
   35MOL   H12924677   4.758   5.573   5.317  0.0396 -0.2648  2.1249
   35MOL   H13024678   4.804   5.706   5.415 -0.8470 -0.7183  1.4683
   35MOL   H13124679   4.820   5.877   5.576 -0.1051 -1.1708  0.3778
   35MOL   H13224680   4.984   5.838   5.608  0.3508 -1.6408  0.5045
   35MOL   H13324681   4.925   5.967   5.345  3.7459 -1.4357 -1.8093
   35MOL   H13424682   5.078   5.962   5.426  0.1929 -0.3839 -0.0367
   35MOL   H13524683   4.825   6.118   5.511 -0.9958 -2.6207  1.5767
   35MOL   H13624684   4.953   6.106   5.621  2.5796 -1.6968 -0.2003
   35MOL   H13724685   4.980   6.232   5.354 -2.6840 -1.2040  0.5718
   35MOL   H13824686   5.121   6.223   5.463 -0.0676  1.4956  0.2053
   35MOL   H13924687   5.009   6.336   5.644  2.1226 -0.5604 -0.1127
   35MOL   H14024688   4.880   6.388   5.525  0.0545 -1.8015 -2.2423
   35MOL   H14124689   5.176   6.440   5.526  0.3798  0.5852 -0.6603
   35MOL   H14224690   5.072   6.496   5.395  2.7754  0.4181 -0.3870
   35MOL   H14324691   4.947   6.585   5.613  0.2577 -1.5213  1.3252
   35MOL   H14424692   5.140   5.392   5.415 -1.3892 -0.3927  3.0534
   35MOL   H14524693   5.088   5.201   5.303  1.8119  2.3865  3.2415
   35MOL   C14624694   5.115   6.695   5.601 -0.0375  0.5195  0.3448
   35MOL   O14724695   5.223   6.726   5.542  0.3183  0.2128  0.2567
   35MOL   C14824696   5.063   6.773   5.720  0.1000 -0.7041  0.4652
   35MOL   C14924697   5.084   6.918   5.732  0.1892  0.2868 -0.8357
   35MOL   C15024698   5.041   6.992   5.844 -0.4443 -0.6845 -0.6803
   35MOL   C15124699   4.968   6.921   5.941 -0.5139  0.0523  0.6643
   35MOL   C15224700   4.923   6.999   6.064  0.2583  0.0960  0.1949
   35MOL   O15324701   4.989   7.098   6.089 -0.1420  0.4839 -0.1402
   35MOL   N15424702   4.813   6.951   6.131  0.1288  0.4785 -0.3229
   35MOL   C15524703   4.766   6.994   6.261  0.5009 -0.4505 -0.3199
   35MOL   C15624704   4.657   6.904   6.312 -0.0948  0.6136  0.3536
   35MOL   C15724705   4.691   6.754   6.334  0.6694  0.9696 -0.0782
   35MOL   C15824706   4.563   6.667   6.340  0.6341 -0.3585  0.8623
   35MOL   C15924707   4.591   6.522   6.331 -0.1686  0.0574  0.0146
   35MOL   C16024708   4.472   6.429   6.368 -0.6215 -0.4649 -0.2541
   35MOL   N16124709   4.455   6.427   6.515  0.3567 -0.0886  0.1454
   35MOL   C16224710   4.952   6.777   5.937  0.2553  0.1792 -0.0162
   35MOL   C16324711   4.996   6.705   5.831  0.4679  0.1953 -0.0202
   35MOL   H16424712   5.146   6.966   5.658  0.6538 -1.0020 -1.2899
   35MOL   H16524713   5.058   7.098   5.850 -1.4249 -0.5230 -0.7007
   35MOL   H16624714   4.772   6.872   6.083  1.6298  0.5672 -1.8134
   35MOL   H16724715   4.831   7.000   6.349  1.4604 -0.8191 -1.0002
   35MOL   H16824716   4.722   7.094   6.259  1.7958  0.3006  3.3143
   35MOL   H16924717   4.581   6.907   6.233  0.4639 -1.3792 -0.3068
   35MOL   H17024718   4.611   6.950   6.399 -0.7931 -0.5094  0.6043
   35MOL   H17124719   4.757   6.719   6.255  0.1392 -1.5589  0.5708
   35MOL   H17224720   4.739   6.736   6.429 -2.4019  0.4181  1.4339
   35MOL   H17324721   4.508   6.688   6.248  1.2955 -0.1445  0.5182
   35MOL   H17424722   4.496   6.684   6.424  0.3147  2.5335  0.0711
   35MOL   H17524723   4.673   6.495   6.397 -0.8459 -2.7922 -0.2222
   35MOL   H17624724   4.631   6.503   6.232 -3.8698  1.6748 -1.8708
   35MOL   H17724725   4.376   6.457   6.324 -1.4335 -2.2080  0.3705
   35MOL   H17824726   4.498   6.326   6.341 -0.2837 -0.2085 -0.9148
   35MOL   H17924727   4.387   6.496   6.543 -2.0125 -1.3557 -2.2130
   35MOL   H18024728   4.903   6.718   6.014  0.6198 -2.2322 -1.5700
   35MOL   H18124729   4.985   6.598   5.839  0.6499  0.2073  0.3968
   35MOL   C18224730   4.526   6.355   6.607  0.0791 -0.4086 -0.6100
   35MOL   O18324731   4.611   6.270   6.585  0.6956  0.6043  0.1205
   35MOL   C18424732   4.503   6.389   6.752  0.3533  1.0026  0.7928
   35MOL   C18524733   4.617   6.399   6.836 -0.1602  0.1124 -0.2331
   35MOL   C18624734   4.604   6.407   6.981  0.1351 -0.4694  0.2312
   35MOL   C18724735   4.474   6.423   7.037 -0.3328  0.5751 -0.4346
   35MOL   C18824736   4.466   6.452   7.186  0.1951  0.1213 -0.0715
   35MOL   O18924737   4.565   6.479   7.257 -0.6225 -0.2678  0.2898
   35MOL   N19024738   4.345   6.439   7.244  0.7349  0.1391 -0.6702
   35MOL   C19124739   4.322   6.481   7.388  0.4709 -0.3832  0.0120
   35MOL   C19224740   4.299   6.365   7.486 -0.0018  0.3405 -0.0520
   35MOL   C19324741   4.431   6.308   7.531  0.0510 -0.1824  0.0324
   35MOL   C19424742   4.435   6.211   7.652 -0.0727 -0.2642  0.0813
   35MOL   C19524743   4.572   6.200   7.730  0.4341 -0.1775 -0.2162
   35MOL   C19624744   4.546   6.134   7.869 -0.4167 -0.2962  1.0074
   35MOL   N19724745   4.438   6.196   0.071  0.1024  0.8611  0.1541
   35MOL   C19824746   4.359   6.421   6.948  0.3424 -0.3887 -0.9161
   35MOL   C19924747   4.371   6.409   6.808 -0.0184 -0.1517  0.5319
   35MOL   H20024748   4.716   6.373   6.801  0.5266 -0.2677  1.8791
   35MOL   H20124749   4.693   6.409   7.041 -0.8250 -1.0693  1.6939
   35MOL   H20224750   4.266   6.418   7.185 -1.4427  2.1410  1.4767
   35MOL   H20324751   4.397   6.548   7.431  1.9431 -1.0249 -1.4821
   35MOL   H20424752   4.226   6.532   7.391  1.7830  2.1061  1.5057
   35MOL   H20524753   4.233   6.296   7.433  1.6983 -1.4910  0.1420
   35MOL   H20624754   4.236   6.400   7.567 -0.5474  0.3601 -0.4743
   35MOL   H20724755   4.483   6.255   7.452  1.5020  0.2894  0.6466
   35MOL   H20824756   4.500   6.391   7.547 -0.2968  0.0246  0.5036
   35MOL   H20924757   4.397   6.112   7.628 -3.6198  0.4289  2.4518
   35MOL   H21024758   4.356   6.257   7.712 -0.0034  0.5699 -0.4473
   35MOL   H21124759   4.613   6.298   7.755 -1.5028  0.4204  0.7775
   35MOL   H21224760   4.649   6.150   7.671  0.7737  1.2236 -0.9870
   35MOL   H21324761   4.513   6.030   7.860  0.6270 -0.4801 -0.7745
   35MOL   H21424762   4.631   6.125   0.050 -1.2057 -0.3843  2.0186
   35MOL   H21524763   4.426   6.294   0.050 -1.2055  0.5413 -0.6341
   35MOL   H21624764   4.260   6.425   6.991  0.3823 -1.4254 -0.7120
   35MOL   H21724765   4.289   6.391   6.740 -1.8273  3.7079  1.5372
   35MOL   C21824766   4.361   6.133   0.156 -0.0115 -0.4805  0.1440
   35MOL   O21924767   4.359   6.007   0.166 -0.0557 -0.3282 -0.2825
   35MOL   C22024768   4.249   6.215   0.216  0.4923 -0.8232 -0.9587
   35MOL   C22124769   4.118   6.158   0.218  0.4061  0.0821 -0.0942
   35MOL   C22224770   4.016   6.213   0.284 -0.2817 -0.2350 -0.4138
   35MOL   C22324771   4.044   6.326   0.362 -0.6148  0.0474 -0.0305
   35MOL   C22424772   3.930   6.381   0.447 -0.0603 -0.4227 -0.1722
   35MOL   O22524773   3.808   6.375   0.409 -0.5130  0.0007  0.6764
   35MOL   N22624774   3.967   6.445   0.560 -0.0372  0.5007  0.3626
   35MOL   C22724775   3.872   6.499   0.653  0.8518 -0.6692  0.4938
   35MOL   C22824776   3.829   6.642   0.622 -0.2636 -0.2420 -0.0767
   35MOL   C22924777   3.958   6.740   0.630 -0.8471  0.6075  0.2763
   35MOL   C23024778   3.920   6.891   0.628  0.0432  0.7185  0.4376
   35MOL   C23124779   4.039   6.983   0.623  0.6283  0.2548 -0.1512
   35MOL   C23224780   3.996   7.128   0.647  0.5084 -0.3775 -0.6450
   35MOL   N23324781   4.096   7.217   0.598 -0.1020  0.0478 -0.0789
   35MOL   C23424782   4.170   6.386   0.371 -0.4835  0.1138 -0.0782
   35MOL   C23524783   4.271   6.328   0.288 -0.0727 -0.2977  0.0979
   35MOL   H23624784   4.096   6.063   0.171  0.8393  1.5034 -3.3447
   35MOL   H23724785   3.920   6.165   0.293 -0.1944 -0.1211  1.3023
   35MOL   H23824786   4.062   6.446   0.595 -0.0586  1.2035  0.4255
   35MOL   H23924787   3.783   6.437   0.644  2.1552 -2.2801 -1.9681
   35MOL   H24024788   3.909   6.488   0.754 -0.5827 -1.2515  0.9695
   35MOL   H24124789   3.757   6.674   0.698 -0.3319  0.5829 -0.4880
   35MOL   H24224790   3.789   6.650   0.522  1.0607 -2.1849 -0.8038
   35MOL   H24324791   4.022   6.717   0.715  0.0072  1.7577 -0.0424
   35MOL   H24424792   4.025   6.736   0.544  0.8117  0.2526  1.5528
   35MOL   H24524793   3.858   6.901   0.717  0.6096  0.6887  0.8348
   35MOL   H24624794   3.852   6.915   0.546 -0.5067  0.7114  0.8852
   35MOL   H24724795   4.087   6.967   0.526 -0.1275 -0.1922 -0.4612
   35MOL   H24824796   4.105   6.948   0.703 -0.3922 -3.3065 -0.7541
   35MOL   H24924797   3.904   7.153   0.595  0.5659  2.0893  0.4022
   35MOL   H25024798   3.967   7.153   0.749  0.8550  0.2358 -0.6981
   35MOL   H25124799   4.137   7.188   0.510 -1.1719 -0.3963 -0.4329
   35MOL   H25224800   4.198   6.464   0.440  0.5411  0.4234 -0.8355
   35MOL   H25324801   4.371   6.364   0.306  0.2517 -1.0893 -0.0897
   35MOL   C25424802   4.119   7.341   0.640  0.4285  0.4277  0.0488
   35MOL   O25524803   4.082   7.391   0.744  0.0177  0.4699 -0.2464
   35MOL   C25624804   4.209   7.411   0.541  0.5815 -0.2209  0.1920
   35MOL   C25724805   4.313   7.499   0.593  0.4653  0.4861 -0.3380
   35MOL   C25824806   4.403   7.548   0.497  0.2691  0.3335  0.3382
   35MOL   C25924807   4.381   7.535   0.358  0.6463  0.4060 -0.1922
   35MOL   C26024808   4.470   7.604   0.258 -0.5187 -0.1509 -0.0370
   35MOL   O26124809   4.550   7.690   0.293  0.9049  0.4243 -0.5178
   35MOL   N26224810   4.461   7.553   0.132  1.0644 -0.0310  0.4418
   35MOL   C26324811   4.537   7.607   0.013 -0.1111  0.7260 -0.6031
   35MOL   C26424812   4.551   7.486   7.803 -0.3266 -0.2680 -0.3778
   35MOL   C26524813   4.640   7.514   7.686  0.1464 -0.1097 -0.1516
   35MOL   C26624814   4.627   7.392   7.592  0.0569 -0.1106  1.1184
   35MOL   C26724815   4.734   7.382   7.485  0.1748 -0.3875 -0.7168
   35MOL   C26824816   4.715   7.263   7.379  0.4186 -0.5087  0.5284
   35MOL   N26924817   4.824   7.246   7.286 -0.5343  0.0147 -0.2877
   35MOL   C27024818   4.265   7.461   0.314 -0.3564 -0.4051 -0.2253
   35MOL   C27124819   4.185   7.391   0.402 -0.1517  0.6094 -0.0115
   35MOL   H27224820   4.324   7.496   0.701 -1.9980 -0.1128 -0.0530
   35MOL   H27324821   4.493   7.600   0.526 -0.6813  1.5427  1.2150
   35MOL   H27424822   4.397   7.479   0.109  3.4014 -1.6639 -0.9690
   35MOL   H27524823   4.507   7.702   7.856  0.4284  1.3782  0.4385
   35MOL   H27624824   4.638   7.622   0.052 -0.5398  1.6006  0.1800
   35MOL   H27724825   4.458   7.439   7.772 -1.0035 -0.5504  1.9637
   35MOL   H27824826   4.598   7.406   7.860 -0.7696  0.0534  0.4584
   35MOL   H27924827   4.616   7.610   7.640  1.4604  0.6985  0.8074
   35MOL   H28024828   4.737   7.531   7.732 -0.4771 -0.3323  1.2740
   35MOL   H28124829   4.530   7.396   7.543  1.3113 -2.4273 -1.7229
   35MOL   H28224830   4.615   7.297   7.643  2.4368 -1.2493 -0.3581
   35MOL   H28324831   4.834   7.363   7.524  0.2402  0.7779 -0.2843
   35MOL   H28424832   4.753   7.482   7.445  0.4833  0.1349  0.7019
   35MOL   H28524833   4.702   7.163   7.418  1.5690 -0.5629  0.7683
   35MOL   H28624834   4.630   7.280   7.312  0.4263  0.9127  0.8579
   35MOL   H28724835   4.897   7.191   7.328 -0.7234 -0.0748 -0.0806
   35MOL   H28824836   4.241   7.447   0.209 -1.0375 -1.2412  0.0417
   35MOL   H28924837   4.101   7.334   0.366 -0.8158  1.8346 -0.4429
   35MOL   C29024838   4.829   7.263   7.153  0.1293 -0.2780  0.6704
   35MOL   O29124839   4.742   7.314   7.085 -0.5132  0.4373 -0.3281
   35MOL   C29224840   4.955   7.212   7.088  0.8137 -0.0313 -0.0535
   35MOL   C29324841   5.078   7.223   7.156 -0.1192 -0.2104  0.6531
   35MOL   C29424842   5.196   7.155   7.111  0.3755 -0.6879 -0.0599
   35MOL   C29524843   5.189   7.084   6.988  0.6852  0.0940 -0.6280
   35MOL   C29624844   5.314   7.007   6.946  0.0910 -0.0206 -0.0685
   35MOL   O29724845   5.414   6.996   7.013 -0.6017 -0.6303  0.2348
   35MOL   N29824846   5.299   6.939   6.825  0.0826 -0.1529 -0.3014
   35MOL   C29924847   5.394   6.842   6.767 -0.0240  0.5098 -0.4165
   35MOL   C30024848   5.419   6.879   6.619  0.6368 -0.4182 -0.6101
   35MOL   C30124849   5.479   6.763   6.538 -0.1468 -0.6184 -0.1275
   35MOL   C30224850   5.377   6.662   6.503  0.4197 -0.1816  0.3266
   35MOL   C30324851   5.436   6.524   6.456 -0.4264  0.3592  0.2183
   35MOL   C30424852   5.339   6.413   6.429  0.0291  0.1048  0.0349
   35MOL   N30524853   5.388   6.282   6.389  0.6954  0.2108 -0.1078
   35MOL   C30624854   5.067   7.098   6.909 -0.0482 -0.5403  0.2605
   35MOL   C30724855   4.948   7.148   6.967  0.3222 -0.2426 -0.0891
   35MOL   H30824856   5.089   7.278   7.248 -1.3242  1.3171 -0.1092
   35MOL   H30924857   5.287   7.154   7.168  0.0846 -0.8866  0.4022
   35MOL   H31024858   5.208   6.951   6.783  0.3124  3.4563  0.0445
   35MOL   H31124859   5.486   6.844   6.825 -0.2370  3.4784 -0.0836
   35MOL   H31224860   5.348   6.745   6.783  0.3145  0.4855  0.4605
   35MOL   H31324861   5.501   6.950   6.628  2.0536 -2.1000  0.2176
   35MOL   H31424862   5.325   6.919   6.581  0.8871  3.7441  2.8720
   35MOL   H31524863   5.520   6.799   6.444  0.1918  1.7950  0.8982
   35MOL   H31624864   5.568   6.716   6.580 -0.1851 -1.1250 -0.6088
   35MOL   H31724865   5.311   6.708   6.430  0.8691  0.9241  0.6116
   35MOL   H31824866   5.321   6.644   6.594 -0.1424 -0.1726 -0.0175
   35MOL   H31924867   5.504   6.482   6.529 -0.3710  0.6479  0.3328
   35MOL   H32024868   5.493   6.540   6.364  1.2358 -2.9993  0.6014
   35MOL   H32124869   5.290   6.398   6.525  0.1048 -1.5379 -0.1693
   35MOL   H32224870   5.266   6.447   6.355 -1.5992  0.3010  1.6995
   35MOL   H32324871   5.388   6.202   6.450  0.6436  1.2507  1.2600
   35MOL   H32424872   5.054   7.069   6.805 -1.8450  1.4761 -0.1149
   35MOL   H32524873   4.849   7.142   6.925 -0.0957  0.1509  0.8195
   35MOL   C32624874   5.428   6.235   6.273 -0.4059  0.4176 -0.7529
   35MOL   O32724875   5.443   6.306   6.174 -0.2758  0.1934  0.0368
   35MOL   C32824876   5.472   6.093   6.283  0.2386 -0.4731  0.6992
   35MOL   C32924877   5.610   6.056   6.317 -0.3538 -0.8764 -0.7188
   35MOL   C33024878   5.644   5.920   6.336  0.6983  0.2642 -0.7995
   35MOL   C33124879   5.553   5.822   6.296  0.3608  0.4511  0.1881
   35MOL   C33224880   5.595   5.683   6.313 -0.0950 -0.0027  0.3103
   35MOL   O33324881   5.622   5.638   6.426 -0.2067 -0.1966  0.4390
   35MOL   N33424882   5.583   5.609   6.204 -0.3434 -0.0466 -0.3439
   35MOL   C33524883   5.618   5.466   6.183  0.8313  0.2668  0.3268
   35MOL   C33624884   5.742   5.466   6.103 -0.3002  0.5114  0.1718
   35MOL   C33724885   5.757   5.328   6.027 -0.1355 -0.0865  0.1269
   35MOL   C33824886   5.645   5.296   5.932 -0.0310  0.1749  0.5918
   35MOL   C33924887   5.650   5.171   5.849 -0.0630 -0.4323  0.3616
   35MOL   C34024888   5.520   5.167   5.751 -0.0288  0.0988  0.1280
   35MOL   N34124889   5.517   5.055   5.665 -0.1745  0.4226 -0.1231
   35MOL   C34224890   5.418   5.856   6.258  0.9345 -0.4399  0.1723
   35MOL   C34324891   5.376   5.990   6.255 -0.7135  0.0180 -1.1737
   35MOL   H34424892   5.684   6.132   6.338 -2.1891  0.5610  0.7019
   35MOL   H34524893   5.748   5.897   6.351  1.3954  1.5905 -3.3399
   35MOL   H34624894   5.534   5.656   6.130 -0.7984 -0.7100 -0.4765
   35MOL   H34724895   5.614   5.414   6.279  1.2726  2.1692  1.3836
   35MOL   H34824896   5.530   5.430   6.128  0.7718  1.6501 -0.5041
   35MOL   H34924897   5.832   5.481   6.162 -0.0518 -0.3800  0.0253
   35MOL   H35024898   5.742   5.544   6.026 -0.7935 -0.9192 -1.3047
   35MOL   H35124899   5.853   5.323   5.974 -0.5094  0.4548 -0.6127
   35MOL   H35224900   5.757   5.243   6.095 -0.5790 -1.3857 -1.4664
   35MOL   H35324901   5.619   5.379   5.867 -0.1951  0.2846  0.7963
   35MOL   H35424902   5.555   5.275   5.990  0.1822 -0.6950  0.6076
   35MOL   H35524903   5.651   5.090   5.922 -1.5397 -1.5584 -0.8260
   35MOL   H35624904   5.743   5.164   5.792 -0.1757  0.3027  0.0834
   35MOL   H35724905   5.434   5.157   5.817 -0.0701  1.5490  0.3187
   35MOL   H35824906   5.512   5.253   5.685  1.3137 -0.9432 -1.4256
   35MOL   H35924907   5.441   4.990   5.672  0.6331 -0.5191 -0.0757
   35MOL   H36024908   5.349   5.775   6.239 -0.5275  0.6133  0.9109
   35MOL   H36124909   5.273   6.021   6.244 -0.2316  2.7887  1.3393
   35MOL   C36224910   5.583   5.048   5.556 -0.5256  0.1212  0.1865
   35MOL   O36324911   5.672   5.129   5.524  0.1901  0.3409 -0.0253
   35MOL   C36424912   5.558   4.925   5.473  0.0365  0.2273  0.0703
   35MOL   C36524913   5.516   4.805   5.539  0.6648 -0.0993 -0.8115
   35MOL   C36624914   5.484   4.688   5.465  0.6339  0.2835  0.3848
   35MOL   C36724915   5.505   4.695   5.325 -1.2656  0.2630 -0.0634
   35MOL   C36824916   5.472   4.577   5.237  0.1505 -0.0202  0.1427
   35MOL   O36924917   5.371   4.511   5.265  0.2731  0.2240 -0.0781
   35MOL   N37024918   5.549   4.544   5.133  0.0204 -0.2587 -0.5394
   35MOL   C37124919   5.524   4.433   5.047  0.0591  0.0793  0.1804
   35MOL   C37224920   5.645   4.399   4.953  0.4139 -0.1136 -0.3156
   35MOL   C37324921   5.609   4.274   4.876  0.3781 -0.0366  0.0041
   35MOL   C37424922   5.734   4.203   4.802 -0.4318 -0.6102 -0.3031
   35MOL   C37524923   5.714   4.054   4.750  0.1819 -0.1817 -0.4365
   35MOL   C37624924   5.812   4.011   4.638  0.3169  0.1748 -0.5045
   35MOL   N37724925   5.787   3.874   4.596  0.0378  0.1087 -0.0668
   35MOL   C37824926   5.543   4.811   5.256  0.6070  0.0370  0.2428
   35MOL   C37924927   5.570   4.923   5.332  0.4405  0.2656  0.0597
   35MOL   H38024928   5.515   4.804   5.647 -2.3565 -1.6767 -0.8144
   35MOL   H38124929   5.446   4.595   5.505 -2.4834  0.3198 -2.2961
   35MOL   H38224930   5.623   4.611   5.117 -0.0386 -0.3854 -1.4040
   35MOL   H38324931   5.478   4.345   5.091 -0.8323  0.0373 -0.8165
   35MOL   H38424932   5.446   4.471   4.982  0.9556 -0.7419 -1.4176
   35MOL   H38524933   5.733   4.382   5.016 -0.4840  0.2909  1.0787
   35MOL   H38624934   5.666   4.490   4.897 -1.1778  0.3701 -0.1622
   35MOL   H38724935   5.559   4.199   4.938 -0.9155  1.3393  0.6543
   35MOL   H38824936   5.529   4.298   4.805  0.8177 -1.8158 -1.1184
   35MOL   H38924937   5.818   4.205   4.871 -0.2524 -3.1028 -0.3900
   35MOL   H39024938   5.754   4.265   4.715 -1.8869  0.1015 -0.1508
   35MOL   H39124939   5.615   4.030   4.710  0.2698  0.5873 -1.1373
   35MOL   H39224940   5.718   4.005   4.847  0.0005 -1.4298 -1.0481
   35MOL   H39324941   5.800   4.073   4.549 -0.2675 -0.1376 -0.6453
   35MOL   H39424942   5.919   4.020   4.659  0.2368 -0.6790  0.2631
   35MOL   H39524943   5.705   3.866   4.537  0.1758  0.4794 -0.3089
   35MOL   H39624944   5.552   4.815   5.149 -4.5034 -0.5285 -0.3442
   35MOL   H39724945   5.577   5.017   5.278  0.7199  0.1621 -0.0849
   35MOL   C39824946   5.852   3.762   4.635 -0.8907  0.0032 -0.6469
   35MOL   O39924947   5.956   3.767   4.703 -0.6213 -0.4242 -0.6534
   35MOL   C40024948   5.795   3.629   4.588  0.6629  0.1398  0.6441
   35MOL   C40124949   5.663   3.612   4.534  0.1297  0.0233  0.2803
   35MOL   C40224950   5.620   3.479   4.504  0.3212  0.2257 -0.7404
   35MOL   C40324951   5.698   3.363   4.524 -0.3839 -0.2361 -0.3970
   35MOL   C40424952   5.630   3.231   4.524  0.1047  0.3776  0.7901
   35MOL   O40524953   5.513   3.218   4.562 -0.4918 -0.3148  0.0670
   35MOL   N40624954   5.698   3.132   4.477 -0.5172  0.9573  0.3683
   35MOL   C40724955   5.652   2.998   4.456  0.4826  0.5248 -0.4685
   35MOL   C40824956   5.678   2.897   4.570 -0.7181  0.1181 -0.5907
   35MOL   C40924957   5.608   2.759   4.561 -0.3414  0.5293 -0.1434
   35MOL   C41024958   5.640   2.665   4.679  0.1946  0.0403 -0.3371
   35MOL   C41124959   5.595   2.720   4.812  0.5535  0.4075 -0.2535
   35MOL   C41224960   5.620   2.627   4.925  0.3596 -0.4740 -0.0051
   35MOL   N41324961   5.764   2.596   4.940 -0.4251 -0.3579  0.8050
   35MOL   C41424962   5.831   3.384   4.566  0.0728 -0.2512 -0.0081
   35MOL   C41524963   5.876   3.512   4.600 -0.3382  0.1735 -0.4374
   35MOL   H41624964   5.588   3.687   4.518  0.6047  0.1546 -1.4146
   35MOL   H41724965   5.524   3.455   4.460 -0.8963 -0.1962  2.0016
   35MOL   H41824966   5.794   3.155   4.457 -0.3996 -0.5507 -0.9187
   35MOL   H41924967   5.556   2.996   4.405 -0.3392  1.1531  1.0223
   35MOL   H42024968   5.720   2.966   4.377  0.4170 -0.1644 -0.2416
   35MOL   H42124969   5.651   2.946   4.664  0.3768 -1.2430  0.4435
   35MOL   H42224970   5.784   2.872   4.580 -1.2023 -1.6058  0.2580
   35MOL   H42324971   5.500   2.774   4.562 -0.6879 -1.9186  1.1568
   35MOL   H42424972   5.630   2.702   4.470  1.1858 -0.9644  1.1365
   35MOL   H42524973   5.748   2.647   4.677  0.5843  2.2382  0.1783
   35MOL   H42624974   5.602   2.565   4.657 -1.5437  0.1962  1.8640
   35MOL   H42724975   5.488   2.741   4.820  0.1828 -2.0688  2.4343
   35MOL   H42824976   5.641   2.818   4.825  2.0866 -0.3977  0.6338
   35MOL   H42924977   5.588   2.676   5.017 -1.3849 -1.4660 -0.0719
   35MOL   H43024978   5.569   2.534   4.901 -0.9840 -0.0146  1.0377
   35MOL   H43124979   5.826   2.675   4.930 -2.8903  1.7754  1.8615
   35MOL   H43224980   5.899   3.300   4.577 -1.2115 -1.5907 -2.0107
   35MOL   H43324981   5.975   3.525   4.641 -0.3497  1.4253 -0.7876
   35MOL   C43424982   5.811   2.478   4.979  0.4390 -0.3348 -0.5159
   35MOL   O43524983   5.740   2.381   5.001  0.4225 -0.4240  0.4264
   35MOL   C43624984   5.957   2.464   5.020 -0.4313  0.0925 -0.2262
   35MOL   C43724985   6.054   2.539   4.954  0.2448 -0.1645 -1.0668
   35MOL   C43824986   6.188   2.517   4.982 -0.8965  0.2524 -0.2815
   35MOL   C43924987   6.219   2.424   5.086  0.1799 -0.3926  0.2292
   35MOL   C44024988   6.362   2.398   5.128 -1.0533 -0.7264 -0.1124
   35MOL   O44124989   6.396   2.298   5.189  0.5084 -0.7697 -0.4984
   35MOL   N44224990   6.447   2.499   5.101 -0.8630  0.0163  0.0145
   35MOL   C44324991   6.582   2.504   5.153 -0.1642  0.4348 -0.3243
   35MOL   C44424992   6.651   2.579   5.042 -0.3386  0.2648 -0.1097
   35MOL   C44524993   6.794   2.628   5.065  0.6068 -0.0285 -0.2922
   35MOL   C44624994   6.846   2.683   4.933  0.0526 -0.2398  0.7528
   35MOL   C44724995   6.998   2.706   4.937 -0.0199 -0.2275  0.3601
   35MOL   C44824996   7.051   2.797   4.820 -0.0518  0.4691  1.2385
   35MOL   N44924997   6.991   2.932   4.823 -0.8900 -0.1252  0.1711
   35MOL   C45024998   6.124   2.342   5.150  0.3607 -1.2098  0.6641
   35MOL   C45124999   5.988   2.362   5.114  0.4162 -0.0494 -0.7626
   35MOL   H45225000   6.035   2.610   4.875 -0.4743 -0.7480 -1.4298
   35MOL   H45325001   6.265   2.561   4.921 -0.4656 -0.6085 -0.3670
   35MOL   H45425002   6.405   2.585   5.067  1.7398  1.3407 -0.0096
   35MOL   H45525003   6.588   2.562   5.245  0.8974  0.7017 -0.5461
   35MOL   H45625004   6.634   2.409   5.161 -0.8806 -0.2043 -2.9052
   35MOL   H45725005   6.596   2.670   5.017 -1.4882  0.2485  2.1721
   35MOL   H45825006   6.646   2.503   4.965 -1.7924 -0.2669  0.4825
   35MOL   H45925007   6.784   2.703   5.143 -1.0882 -0.8437  0.2914
   35MOL   H46025008   6.853   2.541   5.092  2.2626  0.2739 -2.6927
   35MOL   H46125009   6.788   2.765   4.891 -0.2434 -1.1609 -0.6472
   35MOL   H46225010   6.833   2.603   4.861 -1.5114 -2.2546  3.2036
   35MOL   H46325011   7.050   2.610   4.935  0.7764  0.1913  0.4971
   35MOL   H46425012   7.024   2.756   5.031  3.3701 -0.2623 -0.4820
   35MOL   H46525013   7.158   2.817   4.814  0.0548 -0.4402 -0.2691
   35MOL   H46625014   7.021   2.750   4.726  1.8728 -0.9870  1.3198
   35MOL   H46725015   6.947   2.964   4.738  0.8562  0.3177 -0.6020
   35MOL   H46825016   6.157   2.261   5.213  0.4992 -0.1055  2.0282
   35MOL   H46925017   5.907   2.301   5.151 -0.5162  1.6693  0.0502
   35MOL   C47025018   7.000   3.032   4.912 -0.3771  0.8960 -0.2604
   35MOL   O47125019   7.057   3.020   5.021 -0.6973  0.1118 -0.7813
   35MOL   C47225020   6.938   3.164   4.877 -0.0363 -0.0291 -0.3346
   35MOL   C47325021   6.908   3.265   4.972  0.4214  0.1085 -0.5695
   35MOL   C47425022   6.852   3.389   4.940  0.2819 -0.2429 -0.5517
   35MOL   C47525023   6.822   3.419   4.801  0.0710 -0.6961 -0.2437
   35MOL   C47625024   6.768   3.556   4.768  0.2117  0.6705  0.2087
   35MOL   O47725025   6.797   3.648   4.842 -0.1869 -0.3223 -0.0738
   35MOL   N47825026   6.702   3.552   4.653  0.0850 -0.5604  0.0864
   35MOL   C47925027   6.665   3.669   4.578  0.7513 -0.2400 -0.6790
   35MOL   C48025028   6.521   3.661   4.516 -0.2545  0.0267  0.0613
   35MOL   C48125029   6.481   3.790   4.450  0.1703 -0.1261 -0.1325
   35MOL   C48225030   6.337   3.791   4.396 -0.1034  0.8149  0.1145
   35MOL   C48325031   6.280   3.931   4.359  0.6637  0.0130  0.3956
   35MOL   C48425032   6.201   3.986   4.480 -0.2637 -0.0947  0.7353
   35MOL   N48525033   6.273   3.972   4.612  0.7344  0.4534 -0.4637
   35MOL   C48625034   6.856   3.320   4.703  0.0134 -0.0852  0.1551
   35MOL   C48725035   6.901   3.194   4.745  0.9862  0.4530 -0.4321
   35MOL   H48825036   6.942   3.250   5.073  1.5213  1.6276 -0.6882
   35MOL   H48925037   6.830   3.450   5.026  0.0086  2.1860 -2.2837
   35MOL   H49025038   6.677   3.466   4.605 -2.3524 -0.5217  1.1697
   35MOL   H49125039   6.687   3.759   4.636  0.1464  0.0901 -0.9627
   35MOL   H49225040   6.735   3.676   4.494  1.7075 -2.7951 -0.1614
   35MOL   H49325041   6.445   3.628   4.587 -0.3949  0.7150  0.2408
   35MOL   H49425042   6.523   3.582   4.441 -1.1487  0.7335 -0.7281
   35MOL   H49525043   6.503   3.871   4.520 -0.4373 -0.2541  0.2130
   35MOL   H49625044   6.540   3.819   4.363 -1.5908  1.3298 -0.8739
   35MOL   H49725045   6.269   3.746   4.468 -1.0981 -0.8539 -1.8283
   35MOL   H49825046   6.324   3.722   4.314 -1.3768  0.8076  0.3155
   35MOL   H49925047   6.217   3.916   4.272 -1.5816 -2.1718  2.3253
   35MOL   H50025048   6.358   4.004   4.337 -0.0067  0.5598 -0.2103
   35MOL   H50125049   6.171   4.089   4.460  2.8360  0.4504 -1.4982
   35MOL   H50225050   6.111   3.924   4.476 -0.9083  0.9178 -0.8246
   35MOL   H50325051   6.302   3.876   4.625  1.8325  0.9679  0.9807
   35MOL   H50425052   6.829   3.337   4.600 -1.7460  3.7054  1.1512
   35MOL   H50525053   6.931   3.122   4.670  1.1155 -0.2583  0.3049
   35MOL   C50625054   6.323   4.073   4.688  0.5300 -0.6391  0.0541
   35MOL   O50725055   6.309   4.192   4.657  0.3517 -0.7539  0.2632
   35MOL   C50825056   6.420   4.026   4.793  0.0386 -0.0522  0.0482
   35MOL   C50925057   6.465   4.117   4.887  0.4886 -0.1726  0.7271
   35MOL   C51025058   6.553   4.074   4.985  0.5983 -0.5680 -0.0294
   35MOL   C51125059   6.579   3.935   5.005  0.0218  0.1181  0.1747
   35MOL   C51225060   6.672   3.895   5.118 -0.3372 -0.6238  0.6225
   35MOL   O51325061   6.679   3.954   5.219 -0.2115  0.5350  0.4128
   35MOL   N51425062   6.756   3.792   5.101 -0.9544 -0.5369  0.7017
   35MOL   C51525063   6.841   3.726   5.196 -0.0679 -0.1145 -0.0450
   35MOL   C51625064   6.985   3.728   5.145 -0.1169  0.5418  0.0351
   35MOL   C51725065   7.073   3.652   5.244 -0.8423 -0.1370  0.1364
   35MOL   C51825066   7.225   3.677   5.234 -0.6675  0.0559 -0.2978
   35MOL   C51925067   7.306   3.618   5.348  0.1647 -0.4101  0.1345
   35MOL   C52025068   7.455   3.600   5.303  0.4382  0.6608 -0.2100
   35MOL   N52125069   7.497   3.731   5.252 -0.3069  0.2814 -0.5737
   35MOL   C52225070   6.532   3.840   4.919 -0.3658 -0.5033  0.4650
   35MOL   C52325071   6.454   3.888   4.811  0.0872  0.5580 -0.7262
   35MOL   H52425072   6.438   4.221   4.893  0.6250 -0.1927  1.8740
   35MOL   H52525073   6.587   4.157   5.045 -1.2670  0.3552 -0.2229
   35MOL   H52625074   6.751   3.755   5.006 -1.0271  0.4597  0.3169
   35MOL   H52725075   6.842   3.776   5.293  0.1926 -1.3288  0.5905
   35MOL   H52825076   6.811   3.621   5.201  1.4313 -0.6218 -1.5175
   35MOL   H52925077   7.015   3.833   5.151  2.3068 -0.2591  2.8916
   35MOL   H53025078   6.996   3.698   5.041  0.6084  0.5376  0.1139
   35MOL   H53125079   7.042   3.681   5.344  1.8024 -0.5217  1.0865
   35MOL   H53225080   7.055   3.545   5.250 -3.1888 -0.0531 -3.6539
   35MOL   H53325081   7.244   3.784   5.232 -0.9234  0.1265  0.6265
   35MOL   H53425082   7.263   3.637   5.140 -1.4424 -1.0341 -0.1672
   35MOL   H53525083   7.254   3.528   5.380  0.4059 -1.3686 -2.0496
   35MOL   H53625084   7.318   3.699   5.419  2.3564  0.1551 -0.8361
   35MOL   H53725085   7.508   3.579   5.396  1.6462 -0.5143 -1.1405
   35MOL   H53825086   7.471   3.509   5.246  0.5610  0.7994 -0.3960
   35MOL   H53925087   7.493   3.803   5.323  2.4583 -0.8316  0.7861
   35MOL   H54025088   6.557   3.736   4.937 -0.2189 -1.1051 -2.8622
   35MOL   H54125089   6.414   3.813   4.744  1.5066 -0.4771 -0.4371
   35MOL   C54225090   7.570   3.758   5.144 -0.2343 -0.1060  0.2878
   35MOL   O54325091   7.593   3.679   5.056  0.2890 -0.0155  0.1164
   35MOL   C54425092   7.620   3.903   5.132 -0.4092 -0.5218  0.3537
   35MOL   C54525093   7.589   3.999   5.227  0.5672  0.4975 -0.4728
   35MOL   C54625094   7.642   4.127   5.217  0.3789 -0.4264  0.1260
   35MOL   C54725095   7.721   4.171   5.107 -0.1143  0.3339 -0.2698
   35MOL   C54825096   7.759   4.315   5.084 -0.8154  0.0571  0.2069
   35MOL   O54925097   7.844   4.341   5.000 -0.1461 -0.3122 -0.3166
   35MOL   N55025098   7.696   4.404   5.162  0.0055  0.0592 -0.1881
   35MOL   C55125099   7.718   4.543   5.172  0.3509 -0.1510 -0.1990
   35MOL   C55225100   7.667   4.587   5.309  0.3537  0.5780  0.9265
   35MOL   C55325101   7.748   4.550   5.432  0.0163  0.9789  0.0635
   35MOL   C55425102   7.673   4.553   5.567 -0.0557  0.2810  0.4962
   35MOL   C55525103   7.576   4.673   5.577 -0.1588  0.0195 -0.6178
   35MOL   C55625104   7.531   4.684   5.720  0.8037  0.0122  0.2537
   35MOL   N55725105   7.612   4.773   5.796 -0.4137 -0.2850  0.3020
   35MOL   C55825106   7.755   4.076   5.010  0.1285  0.7233  0.0969
   35MOL   C55925107   7.706   3.944   5.021 -0.0473  0.8436 -0.6784
   35MOL   H56025108   7.522   3.968   5.305 -1.0556 -0.2950 -2.1481
   35MOL   H56125109   7.618   4.200   5.294  0.1893  0.0262 -0.3639
   35MOL   H56225110   7.627   4.365   5.225  0.8805  0.2707  0.9208
   35MOL   H56325111   7.824   4.563   5.158  0.0368 -0.6054 -3.9220
   35MOL   H56425112   7.672   4.599   5.090  0.1594  2.7896  1.8329
   35MOL   H56525113   7.569   4.539   5.309 -0.2423  1.7167 -0.7940
   35MOL   H56625114   7.652   4.695   5.320  0.0551  0.5685  0.6500
   35MOL   H56725115   7.797   4.453   5.428  2.0091  1.9763 -0.6420
   35MOL   H56825116   7.833   4.617   5.418 -0.1459  0.8982 -1.3508
   35MOL   H56925117   7.752   4.559   5.642  0.8142 -2.7079 -0.1061
   35MOL   H57025118   7.638   4.451   5.585 -2.2368  0.9932  0.4169
   35MOL   H57125119   7.494   4.653   5.507 -0.7169 -0.1842  0.0855
   35MOL   H57225120   7.623   4.767   5.550 -1.0681  0.5479 -0.3857
   35MOL   H57325121   7.434   4.732   5.724  1.7820  2.1804 -1.2083
   35MOL   H57425122   7.520   4.593   5.778  0.3894 -1.3013 -1.8200
   35MOL   H57525123   7.700   4.803   5.755 -0.6663  0.9686  0.6554
   35MOL   H57625124   7.827   4.104   4.935 -0.1827 -0.8984 -0.8177
   35MOL   H57725125   7.735   3.873   4.944  1.5550 -0.1033  0.7613
   35MOL   C57825126   7.578   4.815   5.916  0.3455 -1.1137  0.1532
   35MOL   O57925127   7.461   4.800   5.953 -0.1219  0.4554  0.3793
   35MOL   C58025128   7.676   4.905   5.985 -0.1061  0.4089 -0.6128
   35MOL   C58125129   7.631   5.006   6.075  0.0764  0.1024  0.0651
   35MOL   C58225130   7.734   5.090   6.128 -0.1505  0.2629  0.2449
   35MOL   C58325131   7.869   5.075   6.096 -0.0083 -0.5107 -0.0817
   35MOL   C58425132   0.092   5.170   6.141 -0.2246  0.1407 -0.6360
   35MOL   O58525133   0.203   5.135   6.119 -0.1935 -0.0893 -0.3133
   35MOL   N58625134   0.069   5.284   6.206  0.5160 -0.6470  0.0905
   35MOL   C58725135   0.181   5.376   6.239  0.6330 -0.1030 -0.3559
   35MOL   C58825136   0.200   5.397   6.388  0.5918 -0.6433  0.5627
   35MOL   C58925137   0.339   5.437   6.442  0.4818 -0.6960  0.0359
   35MOL   C59025138   0.325   5.491   6.581  0.5261  0.4272 -0.3748
   35MOL   C59125139   0.278   5.391   6.693 -0.4174 -0.1307 -0.1584
   35MOL   C59225140   0.238   5.459   6.825 -0.8342 -0.2821 -0.0523
   35MOL   N59325141   0.102   5.504   6.829  0.4381 -0.4423 -0.3944
   35MOL   C59425142   0.022   4.971   6.011  0.1417 -0.6111  0.4516
   35MOL   C59525143   7.813   4.886   5.961  0.1931 -0.5541  0.4709
   35MOL   H59625144   7.529   5.012   6.108 -0.6369  0.6151 -2.1692
   35MOL   H59725145   7.703   5.163   6.201 -0.2449  1.7242 -1.2340
   35MOL   H59825146   7.863   5.320   6.226  0.2909  0.4683 -2.6839
   35MOL   H59925147   0.276   5.355   6.190  1.7369 -0.5600  1.9044
   35MOL   H60025148   0.155   5.474   6.198 -1.1880 -0.4540 -0.0742
   35MOL   H60125149   0.171   5.304   6.436  1.7190 -1.8689 -1.0772
   35MOL   H60225150   0.119   5.465   6.414  2.2637  2.1036 -1.1707
   35MOL   H60325151   0.403   5.349   6.459  0.0855 -1.1006 -0.5365
   35MOL   H60425152   0.397   5.499   6.375 -1.9842  0.0626 -1.4435
   35MOL   H60525153   0.263   5.580   6.588 -1.9981 -1.4032  1.9176
   35MOL   H60625154   0.422   5.527   6.616  1.7806 -2.4898 -0.7058
   35MOL   H60725155   0.359   5.320   6.715  0.1020  0.4689 -0.1297
   35MOL   H60825156   0.194   5.330   6.660  0.3784  0.5154 -3.5573
   35MOL   H60925157   0.226   5.385   6.904 -2.8770  1.6779  1.5231
   35MOL   H61025158   0.305   5.539   6.856 -2.0886  0.6586  0.2495
   35MOL   H61125159   0.033   5.431   6.842 -1.6447  1.6304  0.5519
   35MOL   H61225160   0.126   4.962   5.983  0.2105 -2.0544  1.1420
   35MOL   H61325161   7.850   4.803   5.903  0.3406 -0.5372  0.5398
   35MOL   C61425162   0.071   5.630   6.819 -0.2889 -0.9302  0.6259
   35MOL   O61525163   0.155   5.720   6.803  0.1531 -0.1681 -0.3798
   35MOL   C61625164   7.809   5.665   6.818  0.1741  0.4399  0.2602
   35MOL   C61725165   7.715   5.595   6.900  0.6798 -0.2849 -0.4161
   35MOL   C61825166   7.586   5.651   6.919 -0.0637 -0.1875 -0.6068
   35MOL   C61925167   7.553   5.776   6.864 -0.5786  0.2841 -0.0845
   35MOL   C62025168   7.436   5.855   6.922  1.3560 -0.0692 -0.9898
   35MOL   O62125169   7.405   5.853   7.041 -0.0574 -0.5140 -0.3324
   35MOL   N62225170   7.379   5.925   6.825  0.0284  0.0422  0.3195
   35MOL   C62325171   7.263   6.006   6.839 -0.0365 -0.1567  0.6754
   35MOL   C62425172   7.135   5.915   6.819 -0.7643 -0.5096 -0.0817
   35MOL   C62525173   7.007   5.996   6.825 -0.5465  0.6075 -0.0709
   35MOL   C62625174   6.891   5.905   6.805 -0.3961 -0.3359  0.6246
   35MOL   C62725175   6.752   5.974   6.794 -0.0729 -0.1059 -0.3980
   35MOL   C62825176   6.632   5.886   6.836 -0.7591 -0.2605  0.4657
   35MOL   N62925177   6.654   5.753   6.786  0.2593 -0.2630 -0.3824
   35MOL   C63025178   7.642   5.834   6.769 -0.4950 -0.4446 -0.2341
   35MOL   C63125179   7.763   5.773   6.746 -0.2031 -0.7734  0.4578
   35MOL   H63225180   7.747   5.505   6.951 -0.1113  0.2617  1.0870
   35MOL   H63325181   7.514   5.598   6.979 -0.6524 -0.0152 -1.1575
   35MOL   H63425182   7.410   5.904   6.732  1.8606 -2.7755  1.4961
   35MOL   H63525183   7.278   6.066   6.929 -1.0006 -0.1573  0.8407
   35MOL   H63625184   7.255   6.078   6.757 -1.3999 -1.1683 -0.1027
   35MOL   H63725185   7.127   5.833   6.890 -3.4028  0.5586  0.9287
   35MOL   H63825186   7.145   5.873   6.719  1.0349 -1.7523  0.5927
   35MOL   H63925187   7.000   6.036   6.926 -0.6193 -0.7801  0.4788
   35MOL   H64025188   7.002   6.078   6.752 -2.4779  0.1570 -0.4620
   35MOL   H64125189   6.899   5.838   6.891  0.3452 -0.7865  0.2091
   35MOL   H64225190   6.913   5.850   6.714 -1.4089  0.2874 -0.0066
   35MOL   H64325191   6.730   6.006   6.692  1.7858  0.6863 -0.5747
   35MOL   H64425192   6.754   6.070   6.845  2.0633 -1.0586  1.3535
   35MOL   H64525193   6.634   5.876   6.945  3.6041  0.9902  0.5875
   35MOL   H64625194   6.542   5.940   6.806  1.1625  1.1283 -3.0511
   35MOL   H64725195   6.749   5.738   6.755  0.0766 -0.4135 -0.8652
   35MOL   H64825196   7.623   5.930   6.724 -0.2023 -1.8421 -3.5051
   35MOL   H64925197   7.829   5.822   6.676  0.0457 -1.8609 -0.0720
   35MOL   C65025198   6.565   5.653   6.795 -0.3164  0.2637 -0.0560
   35MOL   O65125199   6.458   5.660   6.851  0.6065  0.6506  0.2050
   35MOL   C65225200   6.617   5.518   6.753 -0.0133  0.0021 -0.5982
   35MOL   C65325201   6.545   5.405   6.791  0.0416 -0.0831  0.2312
   35MOL   C65425202   6.571   5.277   6.742  0.0407  0.1816  0.2626
   35MOL   C65525203   6.688   5.255   6.663  0.9146 -0.0970  0.2019
   35MOL   C65625204   6.731   5.118   6.614 -0.0182  0.1362 -0.2589
   35MOL   O65725205   6.762   5.033   6.693 -0.2445  0.0684 -0.0097
   35MOL   N65825206   6.733   5.090   6.485  0.0208 -0.1412  0.5015
   35MOL   C65925207   6.748   4.964   6.426  0.1794 -0.3476  0.5219
   35MOL   C66025208   6.897   4.930   6.393 -0.7202 -0.0429  0.1865
   35MOL   C66125209   6.926   4.784   6.353  0.2142 -0.0614  0.2396
   35MOL   C66225210   7.067   4.753   6.340 -0.1939  0.2321  0.3665
   35MOL   C66325211   7.100   4.620   6.281  0.9108 -0.0524  0.2837
   35MOL   C66425212   7.063   4.592   6.133  0.4228 -0.1052 -0.1614
   35MOL   N66525213   7.124   4.472   6.082 -0.0118  0.5898  0.2430
   35MOL   C66625214   6.753   5.370   6.620  0.3468 -0.1953  0.9535
   35MOL   C66725215   6.720   5.504   6.660 -0.2803 -0.0600 -0.5700
   35MOL   H66825216   6.459   5.418   6.855 -0.0798  1.6380 -0.2837
   35MOL   H66925217   6.511   5.194   6.778  1.8825 -0.9492  0.8224
   35MOL   H67025218   6.698   5.162   6.423 -0.2047 -0.8727 -0.2326
   35MOL   H67125219   6.701   4.892   6.493 -0.8493  0.0039  0.1867
   35MOL   H67225220   6.684   4.959   6.338  1.2325 -1.9974 -0.1983
   35MOL   H67325221   6.968   4.961   6.470 -0.1589 -1.8610  0.4078
   35MOL   H67425222   6.933   4.997   6.314 -0.4543  1.1459  1.2936
   35MOL   H67525223   6.875   4.712   6.417  0.4529 -2.1305 -1.8102
   35MOL   H67625224   6.869   4.770   6.261 -1.7672  0.8545  1.2968
   35MOL   H67725225   7.103   4.749   6.443 -3.0559  1.9156  1.5097
   35MOL   H67825226   7.122   4.832   6.290 -2.0019  1.4938  0.3322
   35MOL   H67925227   7.060   4.537   6.340 -0.0585 -0.4560 -0.9327
   35MOL   H68025228   7.208   4.608   6.293  0.6682 -3.2352 -0.3068
   35MOL   H68125229   6.956   4.577   6.124  0.4316 -0.2351 -0.0483
   35MOL   H68225230   7.077   4.681   6.071  1.4072  1.6412  2.4547
   35MOL   H68325231   7.205   4.438   6.132 -1.5797 -0.5823  2.0508
   35MOL   H68425232   6.829   5.354   6.545 -1.1505 -0.5651 -0.5135
   35MOL   H68525233   6.773   5.591   6.625 -0.0911  1.1148  2.4841
   35MOL   C68625234   7.112   4.439   5.954  0.0769 -0.3598  0.2141
   35MOL   O68725235   7.017   4.472   5.874 -0.2416 -0.0671 -0.1579
   35MOL   C68825236   7.225   4.350   5.905 -0.0364  0.3794  0.5148
   35MOL   C68925237   7.282   4.247   5.981 -0.6117  0.3874  0.0314
   35MOL   C69025238   7.390   4.171   5.936 -0.0767  0.0458 -0.5683
   35MOL   C69125239   7.451   4.206   5.809  0.3600  0.1415  0.4540
   35MOL   C69225240   7.583   4.145   5.766 -0.7055 -0.2987 -0.9255
   35MOL   O69325241   7.630   4.167   5.653  0.6007  0.1114  0.3118
   35MOL   N69425242   7.657   4.084   5.860 -0.4029  0.3517 -0.5529
   35MOL   C69525243   7.795   4.032   5.829 -0.3761 -0.0041 -0.2209
   35MOL   C69625244   7.873   4.005   5.960 -0.0536  0.4652 -0.3097
   35MOL   C69725245   0.129   3.962   5.940 -0.2312  0.5171  0.8037
   35MOL   C69825246   0.218   3.957   6.060 -0.0789  0.2165 -0.6641
   35MOL   C69925247   0.228   4.097   6.122 -0.5535  0.2948 -0.9036
   35MOL   C70025248   0.310   4.115   6.250 -0.0942 -0.1409 -0.5663
   35MOL   N70125249   0.302   4.245   6.303 -0.6640 -0.9089 -1.3100
   35MOL   C70225250   7.385   4.304   5.729 -0.9723 -0.2714 -0.4500
   35MOL   C70325251   7.277   4.377   5.778  0.4467  0.2331  0.5896
   35MOL   H70425252   7.235   4.218   6.074  1.0769 -0.4740  0.6191
   35MOL   H70525253   7.426   4.096   6.005  0.4876 -0.1003 -1.0179
   35MOL   H70625254   7.611   4.041   5.939 -1.0015 -0.5648 -1.3853
   35MOL   H70725255   7.791   3.935   5.780 -0.2063 -0.3389  0.4206
   35MOL   H70825256   7.847   4.107   5.770  1.1360 -0.9848 -0.1378
   35MOL   H70925257   7.820   3.925   6.012  1.2859  0.0500  0.4224
   35MOL   H71025258   7.862   4.100   6.013 -1.1071  0.4938 -0.5502
   35MOL   H71125259   0.139   3.870   5.882  4.1403  0.9387  0.6678
   35MOL   H71225260   0.175   4.038   5.877  0.1048 -0.5524 -0.2659
   35MOL   H71325261   0.313   3.924   6.017 -0.1653 -0.1011 -0.6091
   35MOL   H71425262   0.168   3.894   6.133  0.9953 -0.8792 -0.8686
   35MOL   H71525263   0.134   4.144   6.150 -0.8804 -1.2568  0.7307
   35MOL   H71625264   0.269   4.164   6.046  0.2895  1.1216  0.2638
   35MOL   H71725265   0.270   4.046   6.324 -0.4362  2.0209  1.3399
   35MOL   H71825266   0.415   4.093   6.234 -0.1044 -1.3163  0.8904
   35MOL   H71925267   0.337   4.311   6.234  1.8256 -0.7665  0.0391
   35MOL   H72025268   7.431   4.331   5.635  2.5877  1.2505  1.6145
   35MOL   H72125269   7.230   4.449   5.713 -1.3639 -2.0724 -0.7345
   35MOL   H72225270   0.368   4.250   6.379 -0.1902  1.7373 -1.8237
   36MOL     C125271   3.438   2.331   3.368  0.0688 -0.0006 -0.7956
   36MOL     O225272   3.464   2.238   3.290  0.7703 -0.7875 -0.0890
   36MOL     C325273   3.534   2.427   3.418 -0.4812  0.1521 -0.3588
   36MOL     C425274   3.678   2.413   3.405  0.0617  0.2075  0.7263
   36MOL     C525275   3.766   2.509   3.460  0.3843 -0.3099 -0.4130
   36MOL     C625276   3.717   2.616   3.542  0.3837 -0.9891  0.5622
   36MOL     C725277   3.801   2.700   3.638 -0.5585 -0.1736  0.0215
   36MOL     O825278   3.749   2.794   3.700  0.4184  0.0922  0.1278
   36MOL     N925279   3.934   2.679   3.649 -0.2752  0.1258 -0.2924
   36MOL    C1025280   4.016   2.725   3.759 -0.1365 -0.0631  0.1426
   36MOL    C1125281   4.064   2.865   3.739 -0.1900 -0.2494 -0.5509
   36MOL    C1225282   4.188   2.909   3.818  0.1473 -0.0353 -0.3441
   36MOL    C1325283   4.155   2.919   3.969 -0.0618 -0.1040  0.3716
   36MOL    C1425284   4.285   2.965   4.039  0.5796  0.3063 -0.3336
   36MOL    C1525285   4.255   2.988   4.190 -0.4136 -0.0497 -0.0616
   36MOL    N1625286   4.207   3.124   4.226  0.5920 -0.6033 -0.3991
   36MOL    C1725287   3.582   2.637   3.536  0.5449  0.2976  0.6319
   36MOL    C1825288   3.484   2.546   3.481  0.2600 -0.6099 -0.6023
   36MOL    H1925289   3.728   2.334   3.352  2.3998  2.2529 -0.2575
   36MOL    H2025290   3.873   2.509   3.443  0.7663 -1.1170  1.8335
   36MOL    H2125291   3.987   2.608   3.599 -2.0085 -1.4188  0.0040
   36MOL    H2225292   3.963   2.727   3.854  0.5691 -2.6365  0.6345
   36MOL    H2325293   4.106   2.664   3.769  1.0663  1.6639  0.0919
   36MOL    H2425294   3.979   2.931   3.756 -0.4679 -0.6784 -0.2826
   36MOL    H2525295   4.095   2.876   3.635  0.9125  0.6272 -0.1428
   36MOL    H2625296   4.266   2.838   3.793  1.3469  0.8510  0.8371
   36MOL    H2725297   4.229   3.006   3.790 -1.5681  0.2244 -2.0740
   36MOL    H2825298   4.129   2.819   4.006  0.6496 -0.5503 -0.3120
   36MOL    H2925299   4.081   2.996   3.987  0.1673 -0.0094  0.9344
   36MOL    H3025300   4.326   3.052   3.987 -0.7268  0.6926 -0.7317
   36MOL    H3125301   4.359   2.886   4.029  0.0049 -0.2461 -0.2292
   36MOL    H3225302   4.183   2.910   4.217  0.4063 -0.5230  0.8026
   36MOL    H3325303   4.345   2.963   4.247 -1.7703 -2.9782  0.9183
   36MOL    H3425304   4.271   3.183   4.278 -1.1022  1.5017 -0.6534
   36MOL    H3525305   3.539   2.713   3.600 -1.1505  2.1158 -2.5802
   36MOL    H3625306   3.378   2.563   3.490  0.2810 -1.3561  1.1261
   36MOL    H3725307   3.336   2.353   3.399  0.9633 -0.1998  2.4878
   36MOL    C3825308   4.077   3.163   4.213  0.1496 -0.4151 -0.1171
   36MOL    O3925309   3.981   3.093   4.178 -0.0921 -0.4809  0.2185
   36MOL    C4025310   4.054   3.307   4.250  0.3266  0.4752  0.8059
   36MOL    C4125311   3.946   3.367   4.187 -0.3948  0.3305 -0.4930
   36MOL    C4225312   3.924   3.505   4.204  0.5774 -0.2805 -0.4292
   36MOL    C4325313   4.004   3.580   4.289 -0.1998 -0.2825  0.4223
   36MOL    C4425314   3.968   3.726   4.313 -0.0842 -0.1917 -0.0530
   36MOL    O4525315   3.888   3.783   4.244 -0.2707  0.3356 -0.3185
   36MOL    N4625316   4.038   3.791   4.405  0.2827  0.3967  0.4413
   36MOL    C4725317   4.016   3.932   4.438 -0.0806  1.1521 -0.2014
   36MOL    C4825318   3.891   3.952   4.537  0.3732 -0.7977 -0.0999
   36MOL    C4925319   3.755   3.953   4.471 -0.0492  0.2462 -0.3657
   36MOL    C5025320   3.646   4.015   4.556  0.0642 -0.3676 -0.0986
   36MOL    C5125321   3.507   4.047   4.499  0.3505  0.2272 -0.6709
   36MOL    C5225322   3.416   3.919   4.477  0.9377 -0.5920 -0.3228
   36MOL    N5325323   3.477   3.818   4.396  0.8369  0.1848 -0.3317
   36MOL    C5425324   4.118   3.519   4.345 -0.5869 -0.0422 -0.5286
   36MOL    C5525325   4.147   3.382   4.326 -0.0040  0.6273 -0.0260
   36MOL    H5625326   3.880   3.306   4.127  1.7576  0.5877 -3.1831
   36MOL    H5725327   3.839   3.552   4.156  1.8231  0.6863 -1.7385
   36MOL    H5825328   4.112   3.740   4.452 -0.1674 -1.1435 -0.4703
   36MOL    H5925329   4.106   3.980   4.476  1.8278 -1.3923 -1.3781
   36MOL    H6025330   3.990   3.989   4.349  0.0183 -0.1494 -1.0751
   36MOL    H6125331   3.909   4.049   4.584 -1.7338 -0.6896  0.5064
   36MOL    H6225332   3.885   3.881   4.619  1.9989 -1.1548 -0.2579
   36MOL    H6325333   3.766   4.005   4.376 -1.5576  0.4544 -0.4360
   36MOL    H6425334   3.722   3.854   4.439  1.2504 -0.2769 -0.1089
   36MOL    H6525335   3.677   4.110   4.601  0.2780  0.5814 -2.2009
   36MOL    H6625336   3.634   3.954   4.645 -0.3852  1.6894  1.3001
   36MOL    H6725337   3.528   4.102   4.407  0.6115  1.5233  0.1571
   36MOL    H6825338   3.454   4.118   4.562 -1.6947 -2.8040  1.1605
   36MOL    H6925339   3.407   3.874   4.576 -0.0570  0.5119  0.0976
   36MOL    H7025340   3.319   3.953   4.442  0.9253 -0.9162 -0.6043
   36MOL    H7125341   3.501   3.728   4.436  1.3423 -1.1258 -3.4193
   36MOL    H7225342   4.190   3.579   4.398 -0.5589  0.3043 -0.9487
   36MOL    H7325343   4.234   3.345   4.379  0.1148 -2.9042 -2.4599
   36MOL    C7425344   3.470   3.823   4.257 -0.3067  0.3738  0.2274
   36MOL    O7525345   3.440   3.923   4.195 -0.0016  0.6465 -0.4657
   36MOL    C7625346   3.502   3.699   4.186  0.1944  0.1563  0.2614
   36MOL    C7725347   3.464   3.572   4.234 -0.9480  0.7995  0.3444
   36MOL    C7825348   3.493   3.455   4.160 -0.8259 -0.0282  0.6192
   36MOL    C7925349   3.566   3.461   4.044  0.5292 -0.5672  0.3311
   36MOL    C8025350   3.595   3.335   3.967  0.0398  0.4683  0.7825
   36MOL    O8125351   3.541   3.225   3.999 -0.5140 -0.7059 -0.0369
   36MOL    N8225352   3.674   3.342   3.859 -0.4948 -0.3113  0.9437
   36MOL    C8325353   3.723   3.237   3.772 -0.1317 -0.5116  0.6820
   36MOL    C8425354   3.870   3.270   3.731 -0.2484 -0.0795 -0.3533
   36MOL    C8525355   3.970   3.282   3.849  0.7908 -0.4847  0.5120
   36MOL    C8625356   4.111   3.297   3.803  0.1761 -0.2052 -0.3180
   36MOL    C8725357   4.147   3.431   3.736  0.3181 -0.4917 -0.1778
   36MOL    C8825358   4.273   3.418   3.644 -0.4000 -0.8456  0.4509
   36MOL    N8925359   4.247   3.331   3.531 -0.2791 -0.4436 -0.4947
   36MOL    C9025360   3.612   3.588   3.997  0.1655  0.4653 -0.9453
   36MOL    C9125361   3.568   3.708   4.057  0.4329  0.3727  0.2831
   36MOL    H9225362   3.401   3.565   4.322 -1.7616 -2.8802 -0.4764
   36MOL    H9325363   3.454   3.363   4.202  1.2276 -1.5289 -0.6091
   36MOL    H9425364   3.706   3.436   3.837 -0.6369 -0.9901 -2.5188
   36MOL    H9525365   3.720   3.143   3.828 -3.8998 -0.5808  0.4481
   36MOL    H9625366   3.658   3.224   3.686  0.8291 -0.0440 -0.1296
   36MOL    H9725367   3.886   3.351   3.659  0.3548  1.1188  1.0851
   36MOL    H9825368   3.920   3.186   3.683 -2.0473 -0.1249 -2.2202
   36MOL    H9925369   3.939   3.363   3.914 -0.0927  1.1784 -1.9142
   36MOL   H10025370   3.960   3.192   3.910  0.6018 -0.1516  0.9734
   36MOL   H10125371   4.130   3.206   3.746 -0.5431 -1.0931  0.8410
   36MOL   H10225372   4.180   3.283   3.887 -0.5740  1.3834  0.5876
   36MOL   H10325373   4.149   3.514   3.807 -1.9389 -0.2849 -0.3037
   36MOL   H10425374   4.068   3.474   3.675 -0.1491  1.3778  1.6673
   36MOL   H10525375   4.293   3.522   3.619  1.4576 -1.3690 -0.2968
   36MOL   H10625376   4.356   3.377   3.702  0.6231 -0.6339 -0.8405
   36MOL   H10725377   4.174   3.262   3.539 -1.0421  0.3799 -0.1546
   36MOL   H10825378   3.679   3.593   3.913  0.3376 -1.7535 -0.9535
   36MOL   H10925379   3.608   3.805   4.032 -0.8574  0.4794 -1.4369
   36MOL   C11025380   4.288   3.346   3.402  0.2392 -0.8796  0.3837
   36MOL   O11125381   4.377   3.424   3.367  0.6753 -0.3459 -0.3912
   36MOL   C11225382   4.228   3.256   3.301  0.4387  0.2077 -0.3877
   36MOL   C11325383   4.193   3.118   3.328 -0.2752  0.0810  0.0195
   36MOL   C11425384   4.172   3.027   3.224  0.1997 -0.0647 -0.4948
   36MOL   C11525385   4.162   3.067   3.092 -0.7678  0.1612 -0.1105
   36MOL   C11625386   4.141   2.969   2.981  0.6656 -0.0931  0.4080
   36MOL   O11725387   4.139   3.010   2.860 -0.7199  0.2862  0.0354
   36MOL   N11825388   4.113   2.843   3.012 -0.1753 -0.1233 -0.1854
   36MOL   C11925389   4.049   2.739   2.933 -0.0270  0.2438  0.6565
   36MOL   C12025390   4.122   2.675   2.810  0.9530  0.3325 -0.6419
   36MOL   C12125391   4.031   2.574   2.739  0.5869  0.0348 -0.0316
   36MOL   C12225392   4.071   2.539   2.592 -0.5145 -0.3939 -0.1132
   36MOL   C12325393   3.990   2.416   2.541  0.4252 -0.2776  0.1089
   36MOL   C12425394   3.983   2.406   2.387 -1.0849 -0.0641 -0.1853
   36MOL   N12525395   4.113   2.379   2.319  1.0248 -0.3453  0.3574
   36MOL   C12625396   4.183   3.208   3.063  0.5288  0.0178 -0.0169
   36MOL   C12725397   4.223   3.299   3.169 -0.1177  0.1163 -0.4013
   36MOL   H12825398   4.196   3.090   3.433  0.7403 -2.6755 -0.6947
   36MOL   H12925399   4.169   2.921   3.248 -1.0546 -0.4810 -2.4140
   36MOL   H13025400   4.098   2.821   3.110 -2.3603  0.3534 -0.3876
   36MOL   H13125401   4.005   2.659   2.991 -0.8169  0.0010 -0.2629
   36MOL   H13225402   3.965   2.795   2.892  0.7461  0.2734 -0.9453
   36MOL   H13325403   4.216   2.633   2.844  0.7608 -1.2825 -2.0102
   36MOL   H13425404   4.153   2.763   2.755 -1.0454  1.4406 -0.0318
   36MOL   H13525405   4.026   2.485   2.802 -1.0422  0.2005  0.0730
   36MOL   H13625406   3.928   2.608   2.732  0.3547 -0.8530 -0.9596
   36MOL   H13725407   4.178   2.520   2.586 -0.5821 -0.8369  0.0557
   36MOL   H13825408   4.035   2.623   2.533  1.8328  0.0108 -1.0282
   36MOL   H13925409   3.891   2.404   2.585 -1.4332 -0.1766 -3.9069
   36MOL   H14025410   4.054   2.336   2.579  0.9441  0.9512  1.9214
   36MOL   H14125411   3.916   2.326   2.358 -0.8632 -0.8783  1.4846
   36MOL   H14225412   3.941   2.494   2.338  0.8290  0.6827 -0.5085
   36MOL   H14325413   4.143   2.283   2.325  2.6531  0.1668  0.7552
   36MOL   H14425414   4.191   3.254   2.966  2.1354 -1.6766 -0.7182
   36MOL   H14525415   4.253   3.400   3.147  1.9584 -1.0785 -3.4711
   36MOL   C14625416   4.183   2.471   2.253 -0.5673  0.5804 -0.3266
   36MOL   O14725417   4.159   2.591   2.243 -0.1303  0.0186  0.2394
   36MOL   C14825418   4.309   2.409   2.199 -0.3210 -0.5611  0.1651
   36MOL   C14925419   4.440   2.468   2.214  0.2150  0.8638  0.0407
   36MOL   C15025420   4.549   2.403   2.145 -0.0703  0.1557 -0.4239
   36MOL   C15125421   4.529   2.277   2.079  0.2076  0.1762  0.2628
   36MOL   C15225422   4.650   2.204   2.020  0.3135  0.1855 -0.3900
   36MOL   O15325423   4.697   2.107   2.076 -0.7747  0.3465 -0.1289
   36MOL   N15425424   4.699   2.269   1.915  0.7029 -0.3514 -0.0851
   36MOL   C15525425   4.833   2.244   1.865  0.0827 -0.5534  0.3844
   36MOL   C15625426   4.935   2.348   1.920  0.2064 -0.4362 -0.0091
   36MOL   C15725427   4.946   2.365   2.072 -0.1518 -0.3044 -0.2848
   36MOL   C15825428   5.052   2.464   2.125 -0.1431  0.2771 -0.2679
   36MOL   C15925429   4.990   2.607   2.138  0.4181 -0.4815  0.5570
   36MOL   C16025430   5.079   2.685   2.227 -0.0774 -1.1227 -0.2754
   36MOL   N16125431   5.010   2.801   2.284 -0.1676  0.0515 -0.2592
   36MOL   C16225432   4.395   2.219   2.067 -0.2788  0.8006  0.4182
   36MOL   C16325433   4.292   2.284   2.136 -0.1479  0.0753 -0.0559
   36MOL   H16425434   4.448   2.570   2.248 -0.0844  0.8404  0.1826
   36MOL   H16525435   4.647   2.446   2.129  1.2725 -3.1573 -1.5071
   36MOL   H16625436   4.651   2.354   1.887 -1.0835 -1.1855  0.4030
   36MOL   H16725437   4.869   2.142   1.884  0.7460 -0.5055 -0.5970
   36MOL   H16825438   4.833   2.265   1.758  0.3992 -1.9888  0.0854
   36MOL   H16925439   4.919   2.448   1.878 -2.6032 -1.2438 -0.9620
   36MOL   H17025440   5.034   2.319   1.885  0.6122  0.1448  0.6319
   36MOL   H17125441   4.841   2.384   2.096  0.0013  1.1596 -0.7698
   36MOL   H17225442   4.967   2.267   2.116  0.2330  0.1966  0.6664
   36MOL   H17325443   5.140   2.450   2.063 -0.3772 -0.4645 -0.4406
   36MOL   H17425444   5.061   2.420   2.224 -0.6572 -1.7698 -1.1099
   36MOL   H17525445   4.887   2.603   2.173  0.3683  1.2545  0.6601
   36MOL   H17625446   4.984   2.647   2.037 -0.2857 -1.7766  0.0785
   36MOL   H17725447   5.105   2.619   2.309  2.5184  1.1289  0.7706
   36MOL   H17825448   5.171   2.721   2.181 -1.1660 -1.4332 -2.8103
   36MOL   H17925449   4.981   2.785   2.379 -0.2932  0.8002 -0.1704
   36MOL   H18025450   4.386   2.124   2.017  2.0010 -0.1869  1.8072
   36MOL   H18125451   4.192   2.243   2.128 -0.2646 -0.2455  2.6197
   36MOL   C18225452   4.989   2.922   2.227  0.2929 -1.1512  0.5706
   36MOL   O18325453   5.026   2.954   2.114  0.2065  0.4133 -0.2178
   36MOL   C18425454   4.915   3.027   2.310 -1.0275  0.7597 -0.1496
   36MOL   C18525455   4.815   3.000   2.400 -0.0721 -0.3677  0.3422
   36MOL   C18625456   4.770   3.099   2.485  0.0676  0.2725  0.4745
   36MOL   C18725457   4.816   3.234   2.474  0.1799 -0.1731 -0.3311
   36MOL   C18825458   4.759   3.339   2.569  0.2350  0.2764 -0.0801
   36MOL   O18925459   4.812   3.450   2.583  0.3474  0.5382  0.1895
   36MOL   N19025460   4.650   3.304   2.634  0.4603 -0.0170 -0.2411
   36MOL   C19125461   4.587   3.347   2.763 -0.1551 -0.1392  0.1290
   36MOL   C19225462   4.584   3.247   2.876 -0.2112 -0.0875  0.5225
   36MOL   C19325463   4.534   3.116   2.836  0.1583  0.3903  0.5557
   36MOL   C19425464   4.530   3.004   2.936 -0.7222  0.1199 -0.1444
   36MOL   C19525465   4.476   2.871   2.874 -0.0732 -1.0194  0.2100
   36MOL   C19625466   4.480   2.758   2.973 -0.5871  0.2232  0.2234
   36MOL   N19725467   4.608   2.750   3.044 -0.1049 -0.1501 -0.2607
   36MOL   C19825468   4.917   3.268   2.382  0.5521 -0.4540  0.0422
   36MOL   C19925469   4.968   3.156   2.306  0.2595 -0.2369 -0.5655
   36MOL   H20025470   4.770   2.903   2.411 -2.2415  0.7477  1.5871
   36MOL   H20125471   4.691   3.082   2.557 -1.3988  2.1684 -0.6496
   36MOL   H20225472   4.605   3.220   2.599 -0.7197  0.4361  0.1632
   36MOL   H20325473   4.628   3.441   2.799 -0.4907 -0.5701  1.6776
   36MOL   H20425474   4.483   3.376   2.748  0.0241  1.1496  1.3482
   36MOL   H20525475   4.530   3.283   2.963  1.2975  0.4080  1.2666
   36MOL   H20625476   4.683   3.223   2.915  0.2497 -0.9539 -1.1521
   36MOL   H20725477   4.430   3.130   2.806 -0.0761 -0.1037  1.1312
   36MOL   H20825478   4.594   3.088   2.750 -1.1359 -1.6107  0.2687
   36MOL   H20925479   4.461   3.038   3.013  0.8632 -1.3224  1.9915
   36MOL   H21025480   4.631   2.991   2.975 -1.8720 -2.5628  2.1488
   36MOL   H21125481   4.545   2.839   2.795 -0.6574 -1.0466 -0.2919
   36MOL   H21225482   4.379   2.893   2.830 -0.0861 -2.3921 -0.5011
   36MOL   H21325483   4.405   2.780   3.049 -0.6461  0.5005  0.0858
   36MOL   H21425484   4.457   2.668   2.917  0.1094  0.6837 -0.8264
   36MOL   H21525485   4.669   2.824   3.013 -1.8252  1.3089 -0.2550
   36MOL   H21625486   4.957   3.368   2.375  2.4197 -1.2140 -0.5550
   36MOL   H21725487   5.045   3.176   2.233 -0.3889  1.0743 -0.9161
   36MOL   C21825488   4.637   2.657   3.131 -0.1296  0.5577  0.2959
   36MOL   O21925489   4.554   2.571   3.152 -0.5496  0.3787 -0.1244
   36MOL   C22025490   4.758   2.661   3.211  0.4314  0.2349  0.4259
   36MOL   C22125491   4.829   2.546   3.256 -0.0747  0.5986  0.5695
   36MOL   C22225492   4.949   2.555   3.335 -0.0366  0.5102  0.5923
   36MOL   C22325493   5.014   2.682   3.349  0.1033 -0.0918  0.0457
   36MOL   C22425494   5.147   2.702   3.412  0.2995  0.8737 -0.0566
   36MOL   O22525495   5.180   2.811   3.446 -0.5358 -0.4805  0.0219
   36MOL   N22625496   5.219   2.593   3.436  0.0194  0.3271 -0.0045
   36MOL   C22725497   5.337   2.573   3.517 -0.0167 -0.3407 -0.6279
   36MOL   C22825498   5.337   2.447   3.594  0.2413 -0.3272  0.4272
   36MOL   C22925499   5.206   2.409   3.648 -0.4120 -0.0256  0.2006
   36MOL   C23025500   5.205   2.287   3.738 -0.2424  0.6364  0.4898
   36MOL   C23125501   5.239   2.155   3.662 -0.2860  0.1095  0.5271
   36MOL   C23225502   5.110   2.093   3.593  0.0555  0.5110 -0.2027
   36MOL   N23325503   5.000   2.078   3.685  0.3254  0.5270  0.5321
   36MOL   C23425504   4.944   2.796   3.300 -0.2100  0.1420  0.1774
   36MOL   C23525505   4.815   2.783   3.247 -0.8162 -0.3846  0.5939
   36MOL   H23625506   4.792   2.446   3.236  1.2817  0.1745  0.1159
   36MOL   H23725507   4.986   2.458   3.367 -0.2859 -0.3567 -1.7111
   36MOL   H23825508   5.181   2.508   3.396 -1.1392  1.1817 -0.7472
   36MOL   H23925509   5.431   2.593   3.465  1.7299 -0.2996  2.4313
   36MOL   H24025510   5.334   2.645   3.599  1.1034  1.1434 -1.8684
   36MOL   H24125511   5.408   2.448   3.677 -2.2887  2.5616  2.6337
   36MOL   H24225512   5.370   2.368   3.527 -0.3852  0.3866 -0.7294
   36MOL   H24325513   5.175   2.501   3.699  0.7018  0.4366  0.0751
   36MOL   H24425514   5.129   2.394   3.573 -0.5337  0.2211  0.2749
   36MOL   H24525515   5.113   2.279   3.797  0.8443 -1.7653  1.9198
   36MOL   H24625516   5.280   2.292   3.817  0.9655  0.0427 -0.6081
   36MOL   H24725517   5.281   2.083   3.733  0.8834  1.0839  0.8323
   36MOL   H24825518   5.309   2.174   3.582 -1.6496  0.5144 -0.5920
   36MOL   H24925519   5.077   2.143   3.502 -2.8721  0.8863  0.9889
   36MOL   H25025520   5.126   1.990   3.561 -1.7456  0.2827 -0.4258
   36MOL   H25125521   4.915   2.124   3.654  0.5585  0.4533 -0.2178
   36MOL   H25225522   4.990   2.893   3.314 -1.2059  0.6770 -0.2069
   36MOL   H25325523   4.770   2.878   3.222 -0.0625 -0.2143 -0.1235
   36MOL   C25425524   4.992   1.979   3.780  0.7674  0.4718 -0.4871
   36MOL   O25525525   5.073   1.883   3.790  0.0546 -0.3423 -0.0316
   36MOL   C25625526   4.874   1.989   3.876 -0.8456 -0.2075  0.5781
   36MOL   C25725527   4.836   1.872   3.946  0.3700  0.7022  0.2769
   36MOL   C25825528   4.728   1.875   4.043 -0.5638  0.3682  0.2798
   36MOL   C25925529   4.659   1.993   4.060  0.5072  0.4835 -0.1880
   36MOL   C26025530   4.540   1.993   4.156 -0.0603 -0.2915 -0.6210
   36MOL   O26125531   4.450   2.079   4.151 -0.3912  0.1299 -0.2633
   36MOL   N26225532   4.536   1.900   4.255  0.3512 -0.4388  0.9616
   36MOL   C26325533   4.454   1.899   4.367  0.0782 -0.2375  0.0933
   36MOL   C26425534   4.324   1.826   4.335  0.3296 -0.1486  0.1819
   36MOL   C26525535   4.224   1.839   4.443  0.8154  0.0436  0.1018
   36MOL   C26625536   4.075   1.802   4.414  0.6508 -0.1405  0.1622
   36MOL   C26725537   3.993   1.765   4.545  0.0869  0.0842 -0.1526
   36MOL   C26825538   3.840   1.745   4.523  0.2150 -0.0977 -0.0280
   36MOL   N26925539   3.831   1.659   4.404  0.0113 -0.0413  0.3881
   36MOL   C27025540   4.690   2.109   3.986  0.6162 -0.0536  0.1595
   36MOL   C27125541   4.798   2.104   3.895  0.0665  0.4584  0.7657
   36MOL   H27225542   4.896   1.783   3.935  0.7033  0.8331  0.9882
   36MOL   H27325543   4.708   1.782   4.095  0.3851 -1.0243 -1.7472
   36MOL   H27425544   4.618   1.842   4.258 -0.0634 -1.0168  1.1364
   36MOL   H27525545   4.497   1.868   4.462  0.4121  0.7778  0.2793
   36MOL   H27625546   4.435   2.003   4.392  2.1902  0.0233  0.7160
   36MOL   H27725547   4.329   1.721   4.305 -0.8223  0.1537 -1.1254
   36MOL   H27825548   4.283   1.876   4.247  0.0327 -1.9699 -0.7354
   36MOL   H27925549   4.255   1.795   4.538 -0.6827 -0.4007  0.4026
   36MOL   H28025550   4.236   1.945   4.464  1.7795 -0.3595  1.7469
   36MOL   H28125551   4.076   1.714   4.350 -1.6155  0.2152 -0.3786
   36MOL   H28225552   4.035   1.885   4.356 -1.1233 -0.1822  1.2853
   36MOL   H28325553   4.000   1.838   4.626  0.5907 -0.8904  0.6927
   36MOL   H28425554   4.037   1.678   4.593 -2.3714 -1.4773 -0.6579
   36MOL   H28525555   3.803   1.690   4.610 -1.0957 -0.3277 -0.7146
   36MOL   H28625556   3.796   1.843   4.509  1.4081  0.3976 -0.3225
   36MOL   H28725557   3.916   1.610   4.378  0.3482  0.4470  0.5665
   36MOL   H28825558   4.626   2.196   3.992  1.0400  0.1907  1.1960
   36MOL   H28925559   4.827   2.185   3.829 -2.7076  0.9243  0.0238
   36MOL   C29025560   3.720   1.628   4.344  0.3714 -0.2000 -1.0014
   36MOL   O29125561   3.608   1.671   4.367 -0.3867  0.0404  0.5796
   36MOL   C29225562   3.744   1.525   4.230  0.0480 -0.4515  0.0843
   36MOL   C29325563   3.856   1.524   4.144 -0.5895 -0.0580  0.0835
   36MOL   C29425564   3.864   1.430   4.039  0.0408  0.5438  0.0819
   36MOL   C29525565   3.754   1.343   4.007 -0.3073 -0.4874 -0.0417
   36MOL   C29625566   3.770   1.246   3.894  0.5202  0.5759 -0.2450
   36MOL   O29725567   3.723   1.133   3.903  1.0733  0.4357 -0.3581
   36MOL   N29825568   3.846   1.283   3.793 -0.3166  0.0305 -0.0549
   36MOL   C29925569   3.899   1.196   3.693 -0.6364 -0.4416 -0.4303
   36MOL   C30025570   4.046   1.209   3.675  0.2745 -0.1241  0.7292
   36MOL   C30125571   4.136   1.190   3.801  0.2149 -0.4415  0.2480
   36MOL   C30225572   4.286   1.192   3.780  0.5348 -1.0180  0.0590
   36MOL   C30325573   4.370   1.175   3.903 -0.1973 -0.3518  0.5602
   36MOL   C30425574   4.524   1.179   3.880  1.3394  0.9871  0.2420
   36MOL   N30525575   4.602   1.114   3.983  0.2221 -0.7084 -0.3675
   36MOL   C30625576   3.640   1.350   4.089  0.2110 -0.0872  1.3587
   36MOL   C30725577   3.640   1.434   4.204 -0.0719  0.1952 -0.3788
   36MOL   H30825578   3.932   1.600   4.156 -0.3400 -0.2959 -0.0027
   36MOL   H30925579   3.954   1.413   3.981 -1.4683 -1.7272 -1.6639
   36MOL   H31025580   3.868   1.382   3.794 -1.9476  0.4035 -0.2990
   36MOL   H31125581   3.865   1.094   3.709  2.4568 -0.9838  3.2502
   36MOL   H31225582   3.848   1.233   3.604  0.1715  3.9665  0.8012
   36MOL   H31325583   4.067   1.312   3.649 -0.2206 -0.1662  0.1439
   36MOL   H31425584   4.073   1.149   3.588 -2.8046  0.8325 -0.9831
   36MOL   H31525585   4.117   1.268   3.874  1.0237 -0.4142  0.4368
   36MOL   H31625586   4.102   1.101   3.854  0.0191 -0.5777 -0.1053
   36MOL   H31725587   4.306   1.283   3.724  0.5952 -0.7016  0.5892
   36MOL   H31825588   4.295   1.099   3.725 -1.5101 -0.9218 -0.4769
   36MOL   H31925589   4.337   1.081   3.947 -1.4589  0.5138  1.4728
   36MOL   H32025590   4.346   1.251   3.976 -0.5476  1.7267 -1.6530
   36MOL   H32125591   4.555   1.143   3.781 -1.1691 -1.1861  0.1850
   36MOL   H32225592   4.563   1.280   3.873  2.9460  0.2889 -1.5306
   36MOL   H32325593   4.679   1.055   3.956 -1.0268 -0.6400 -4.4552
   36MOL   H32425594   3.566   1.276   4.066  0.0729  0.6138 -0.4984
   36MOL   H32525595   3.555   1.434   4.271  0.7495  0.9021  0.6953
   36MOL   C32625596   4.605   1.137   4.119  0.8211 -0.2302  0.2575
   36MOL   O32725597   4.533   1.217   4.179  0.0649 -0.3341  0.0762
   36MOL   C32825598   4.693   1.048   4.204 -0.5615 -0.9711  0.1598
   36MOL   C32925599   4.768   1.105   4.312  0.0618 -0.0472 -0.3986
   36MOL   C33025600   4.837   1.026   4.406 -0.2827  0.0287 -0.5113
   36MOL   C33125601   4.816   0.882   4.405 -0.4527 -0.4485  0.4289
   36MOL   C33225602   4.880   0.792   4.509  0.2981  0.3437  0.2928
   36MOL   O33325603   4.881   0.670   4.504 -0.4271  0.0774  0.0911
   36MOL   N33425604   4.950   0.850   4.609 -0.2374  0.3014  0.1899
   36MOL   C33525605   5.022   0.779   4.717 -0.4691 -0.0853 -0.3374
   36MOL   C33625606   5.076   0.862   4.830 -0.3593  0.2572  0.1339
   36MOL   C33725607   5.171   0.972   4.783 -0.3716 -0.4064 -0.7577
   36MOL   C33825608   5.224   1.059   4.899  0.3021  0.1759  0.1353
   36MOL   C33925609   5.294   1.181   4.840 -0.0832  0.8437 -0.0886
   36MOL   C34025610   5.383   1.264   4.939 -0.1533 -0.3072 -0.2957
   36MOL   N34125611   5.465   1.194   5.033  0.6395  0.4513  0.2594
   36MOL   C34225612   4.743   0.826   4.299 -1.1360 -0.7801 -0.4448
   36MOL   C34325613   4.685   0.910   4.200 -0.7842  0.1254 -0.8072
   36MOL   H34425614   4.783   1.212   4.310  0.5497 -0.1397 -2.8474
   36MOL   H34525615   4.899   1.083   4.473 -0.6168  0.8547 -0.9070
   36MOL   H34625616   4.942   0.950   4.625  0.5929  0.3439  0.3288
   36MOL   H34725617   4.962   0.697   4.757  3.5119 -2.2091  1.5490
   36MOL   H34825618   5.104   0.718   4.678 -0.3335 -0.0934 -0.0356
   36MOL   H34925619   5.130   0.798   4.900 -1.4261 -0.2971  0.4573
   36MOL   H35025620   5.006   0.896   4.906 -1.5591 -1.5434 -0.1510
   36MOL   H35125621   5.259   0.934   4.730 -0.5529 -3.7169  1.2014
   36MOL   H35225622   5.120   1.041   4.716 -0.4199 -1.8347 -2.2571
   36MOL   H35325623   5.295   0.990   4.945  1.6444  1.1557 -0.4641
   36MOL   H35425624   5.141   1.091   4.963  0.2588 -1.4196  0.9214
   36MOL   H35525625   5.218   1.240   4.789  0.4535  0.0705 -1.8175
   36MOL   H35625626   5.356   1.154   4.755 -1.6247 -1.5230 -0.5081
   36MOL   H35725627   5.452   1.322   4.876  1.6060 -1.3991  0.5965
   36MOL   H35825628   5.318   1.321   5.005 -0.9972 -1.1231 -0.4095
   36MOL   H35925629   5.427   1.181   5.125  0.8651  1.1464  0.4485
   36MOL   H36025630   4.723   0.720   4.295 -0.0665 -1.2138  3.8293
   36MOL   H36125631   4.622   0.859   4.128 -0.0400 -0.6393 -0.9322
   36MOL   C36225632   5.573   1.128   5.008  0.9277 -0.1054  0.2487
   36MOL   O36325633   5.625   1.120   4.897 -0.5543  0.0889  0.4487
   36MOL   C36425634   5.621   1.048   5.120 -0.3624  0.0231 -0.3839
   36MOL   C36525635   5.694   0.930   5.090 -0.3547  0.3742  0.1333
   36MOL   C36625636   5.731   0.849   5.197  0.2699 -0.8363  0.7116
   36MOL   C36725637   5.711   0.894   5.330 -0.0744  0.2546 -0.7128
   36MOL   C36825638   5.754   0.805   5.445 -0.3436 -0.1771  0.4450
   36MOL   O36925639   5.731   0.686   5.446 -0.1301  0.2051 -0.0922
   36MOL   N37025640   5.818   0.873   5.547  0.3762  0.6483  0.1671
   36MOL   C37125641   5.860   0.820   5.673 -0.0147  0.0579  0.1931
   36MOL   C37225642   5.969   0.702   5.678  0.1099 -0.4307 -0.6101
   36MOL   C37325643   5.999   0.646   5.822 -0.2432  0.4751 -0.1725
   36MOL   C37425644   5.881   0.593   5.901 -0.0167  0.1995 -0.3694
   36MOL   C37525645   5.793   0.492   5.824 -0.3586 -0.0189 -0.0022
   36MOL   C37625646   5.712   0.400   5.915  0.1452  0.1729 -0.6926
   36MOL   N37725647   5.601   0.465   5.981 -0.0848  0.1080 -0.0357
   36MOL   C37825648   5.661   1.022   5.356 -0.1829 -0.1283 -0.2138
   36MOL   C37925649   5.611   1.099   5.249  0.0158  0.1275 -0.4401
   36MOL   H38025650   5.704   0.902   4.986  0.5079  0.8223  0.0971
   36MOL   H38125651   5.780   0.757   5.166  3.0612  1.0106 -0.5120
   36MOL   H38225652   5.836   0.972   5.532 -0.0512  0.6629 -0.2810
   36MOL   H38325653   5.899   0.911   5.718 -0.5730  1.5523 -2.2493
   36MOL   H38425654   5.772   0.796   5.733  1.3100 -2.0283  1.3409
   36MOL   H38525655   6.062   0.741   5.638 -0.1184 -1.1272 -1.8549
   36MOL   H38625656   5.929   0.622   5.616  0.7007 -0.7793 -0.5338
   36MOL   H38725657   6.067   0.561   5.818  0.7236  1.2332 -0.1313
   36MOL   H38825658   6.046   0.720   5.888 -0.2169 -1.4024  1.9469
   36MOL   H38925659   5.816   0.672   5.939  1.4151  1.1896  0.0955
   36MOL   H39025660   5.916   0.540   5.989 -1.2295 -3.0579 -1.7775
   36MOL   H39125661   5.850   0.425   5.759 -2.1588 -0.5332 -1.0923
   36MOL   H39225662   5.725   0.535   5.750  1.0537  0.3312 -1.1108
   36MOL   H39325663   5.686   0.308   5.863  1.0295 -0.4661 -0.0093
   36MOL   H39425664   5.777   0.352   5.988  0.1830  1.8029  0.3606
   36MOL   H39525665   5.532   0.505   5.919 -0.6792  2.4302  2.0370
   36MOL   H39625666   5.639   1.065   5.453  0.1845  1.0142 -0.6367
   36MOL   H39725667   5.591   1.203   5.273  0.8483  0.6945 -2.1409
   36MOL   C39825668   5.575   0.476   6.111 -0.4285  0.5312 -0.4304
   36MOL   O39925669   5.649   0.426   6.193 -0.1637 -0.2368 -0.0215
   36MOL   C40025670   5.451   0.541   6.154  0.9865 -0.2137  0.4582
   36MOL   C40125671   5.430   0.578   6.290 -0.7608  0.4198  0.5442
   36MOL   C40225672   5.310   0.633   6.326 -0.0641 -0.0140 -1.5232
   36MOL   C40325673   5.209   0.658   6.235  0.4682  0.0825 -0.0107
   36MOL   C40425674   5.073   0.706   6.277 -0.0868 -0.3105  0.4852
   36MOL   O40525675   4.970   0.654   6.241  0.0215 -0.0213 -0.1214
   36MOL   N40625676   5.079   0.828   6.334  0.3664 -0.3373  0.5548
   36MOL   C40725677   4.971   0.911   6.383  0.3252  0.1491 -0.1952
   36MOL   C40825678   4.919   1.009   6.283  0.4999 -0.4601 -0.1387
   36MOL   C40925679   4.820   1.114   6.333  0.2090  0.2302  0.1839
   36MOL   C41025680   4.768   1.215   6.223 -0.8839 -0.5578 -0.6122
   36MOL   C41125681   4.706   1.348   6.282 -0.5490 -0.0134  0.2183
   36MOL   C41225682   4.715   1.465   6.180 -0.0712  0.1347 -0.0291
   36MOL   N41325683   4.620   1.450   6.070 -0.2789  0.2256  0.2052
   36MOL   C41425684   5.234   0.632   6.100 -0.1935 -0.6237 -0.1314
   36MOL   C41525685   5.356   0.575   6.056  0.4110  0.7259  0.5764
   36MOL   H41625686   5.510   0.560   6.360  1.0754  0.5022 -1.4995
   36MOL   H41725687   5.289   0.663   6.428  0.6384  0.6133 -1.5561
   36MOL   H41825688   5.169   0.874   6.340 -0.4492  1.3326  0.3387
   36MOL   H41925689   4.890   0.844   6.413  0.6649 -0.5620 -0.8762
   36MOL   H42025690   5.003   0.953   6.478  1.5784 -1.3703  0.0832
   36MOL   H42125691   4.885   0.959   6.192 -0.7829 -2.0666  1.1884
   36MOL   H42225692   5.011   1.060   6.254  1.3110 -1.3239  0.8461
   36MOL   H42325693   4.736   1.052   6.365  2.4592 -3.3538 -0.5918
   36MOL   H42425694   4.863   1.161   6.421 -0.1157  1.6955 -0.4189
   36MOL   H42525695   4.700   1.171   6.151  0.8505 -1.1632 -1.9248
   36MOL   H42625696   4.856   1.240   6.163 -1.0428  0.6903 -0.3408
   36MOL   H42725697   4.764   1.381   6.369 -1.8827  1.7454  0.4685
   36MOL   H42825698   4.605   1.331   6.319 -0.2043 -0.2335  1.0751
   36MOL   H42925699   4.690   1.557   6.233  1.1638 -0.7550  2.1729
   36MOL   H43025700   4.815   1.471   6.137  0.2154 -0.6393  0.5350
   36MOL   H43125701   4.557   1.372   6.055  0.5388 -0.1994 -1.1520
   36MOL   H43225702   5.155   0.648   6.028 -0.0027  0.7749 -0.0340
   36MOL   H43325703   5.349   0.539   5.954 -0.9613 -1.2855  1.3462
   36MOL   C43425704   4.622   1.529   5.963 -0.5431 -0.9023 -0.2401
   36MOL   O43525705   4.698   1.625   5.957 -0.4524 -0.0526 -0.0448
   36MOL   C43625706   4.526   1.495   5.853  0.4985  0.0039  0.2953
   36MOL   C43725707   4.396   1.463   5.896  0.1733  0.6475  0.0970
   36MOL   C43825708   4.296   1.447   5.794  0.3547 -0.5555 -1.0005
   36MOL   C43925709   4.327   1.474   5.659 -0.2186 -0.2692  0.2777
   36MOL   C44025710   4.224   1.465   5.548 -0.1132 -0.0264  0.0452
   36MOL   O44125711   4.102   1.477   5.576 -0.1588 -0.3061  0.2943
   36MOL   N44225712   4.261   1.439   5.424 -0.2621 -0.0427 -0.2598
   36MOL   C44325713   4.170   1.426   5.304 -0.3222  0.3872 -0.7244
   36MOL   C44425714   4.169   1.554   5.219  0.5762 -0.7076 -0.2010
   36MOL   C44525715   4.302   1.580   5.149  0.1303 -0.3703 -0.4507
   36MOL   C44625716   4.286   1.676   5.030 -0.5526 -0.0655  0.8703
   36MOL   C44725717   4.361   1.632   4.904 -0.2001 -0.2188 -0.6061
   36MOL   C44825718   4.352   1.718   4.778 -0.0292  0.5333  0.4912
   36MOL   N44925719   4.383   1.865   4.787 -0.4024  0.0144  0.1445
   36MOL   C45025720   4.463   1.494   5.622 -0.1767 -0.7072 -0.3629
   36MOL   C45125721   4.566   1.507   5.718  0.4611 -0.2193 -0.6969
   36MOL   H45225722   4.367   1.462   6.000  0.0935 -2.5263  0.0742
   36MOL   H45325723   4.192   1.428   5.816  0.4283 -1.0062 -1.0286
   36MOL   H45425724   4.352   1.397   5.411  0.1011  0.4670  0.6677
   36MOL   H45525725   4.197   1.341   5.241 -0.0572 -0.7684  0.8926
   36MOL   H45625726   4.066   1.400   5.324 -0.7687  2.9058  0.3873
   36MOL   H45725727   4.151   1.626   5.300 -0.6507 -0.1525 -0.9515
   36MOL   H45825728   4.085   1.552   5.150  0.7401  1.4879 -0.4943
   36MOL   H45925729   4.382   1.616   5.215 -0.5586 -0.8842  0.6904
   36MOL   H46025730   4.337   1.489   5.100 -0.1951  0.4224 -2.1823
   36MOL   H46125731   4.329   1.774   5.055  0.6801 -0.2272 -0.5264
   36MOL   H46225732   4.182   1.685   5.001 -0.7347 -0.8893  1.2573
   36MOL   H46325733   4.332   1.529   4.880 -2.4363  0.3917 -0.6560
   36MOL   H46425734   4.468   1.626   4.922  0.0041  1.1238 -1.2845
   36MOL   H46525735   4.427   1.684   4.706 -0.9890 -1.5026  0.4140
   36MOL   H46625736   4.254   1.704   4.732  1.0572  0.5969 -1.9414
   36MOL   H46725737   4.480   1.887   4.768 -0.9052  2.6688  0.5638
   36MOL   H46825738   4.481   1.512   5.517  0.4630  2.5736  0.2695
   36MOL   H46925739   4.665   1.542   5.691  0.6307 -1.1082 -1.2429
   36MOL   C47025740   4.307   1.958   4.839  0.2999  0.3017 -0.7816
   36MOL   O47125741   4.188   1.944   4.851  0.0563  0.0382 -0.1154
   36MOL   C47225742   4.381   2.076   4.889 -0.1774  1.0929 -0.2328
   36MOL   C47325743   4.485   2.143   4.820  0.1795  0.1382  0.1577
   36MOL   C47425744   4.553   2.257   4.874  0.3139  0.6528  0.4592
   36MOL   C47525745   4.509   2.308   5.000  0.2648 -0.2837  0.8242
   36MOL   C47625746   4.575   2.440   5.052  0.0757 -0.1134 -0.1199
   36MOL   O47725747   4.549   2.483   5.164  0.0306 -0.2523 -0.7167
   36MOL   N47825748   4.647   2.515   4.964 -0.0365  0.0172 -0.1529
   36MOL   C47925749   4.702   2.654   4.987 -0.5790  0.1879  0.2322
   36MOL   C48025750   4.612   2.761   4.938 -0.0393 -0.3783 -0.5263
   36MOL   C48125751   4.646   2.898   4.995  0.2358  0.1574  0.6394
   36MOL   C48225752   4.529   2.998   5.008 -0.0551 -0.8451 -0.3821
   36MOL   C48325753   4.563   3.151   4.982  0.3118 -0.3813 -0.4336
   36MOL   C48425754   4.434   3.237   4.968 -0.3728 -0.8672  0.2943
   36MOL   N48525755   4.342   3.166   4.881 -0.4420  0.1734 -0.0421
   36MOL   C48625756   4.407   2.244   5.069 -0.6224  0.2315 -0.2053
   36MOL   C48725757   4.333   2.135   5.010 -0.1887 -0.4492  0.3710
   36MOL   H48825758   4.524   2.112   4.724  0.0200  1.9309 -0.5052
   36MOL   H48925759   4.636   2.299   4.820  2.1434  0.4212  2.9730
   36MOL   H49025760   4.666   2.478   4.872  0.7119  0.8323 -0.3289
   36MOL   H49125761   4.705   2.668   5.095  2.0360  1.1943  0.0622
   36MOL   H49225762   4.800   2.681   4.948 -0.3181 -1.4635 -0.3080
   36MOL   H49325763   4.509   2.732   4.961  0.0644 -0.1941  0.1539
   36MOL   H49425764   4.605   2.762   4.829 -0.4810  2.5195 -0.5152
   36MOL   H49525765   4.692   2.879   5.093  1.4369  1.1608  0.2789
   36MOL   H49625766   4.719   2.937   4.924 -0.3079  1.5797  0.8453
   36MOL   H49725767   4.485   2.996   5.108  2.3858  2.0353  0.8468
   36MOL   H49825768   4.450   2.956   4.946 -0.1118  1.0186 -1.6311
   36MOL   H49925769   4.614   3.159   4.886 -1.0956  1.0500 -1.0878
   36MOL   H50025770   4.628   3.190   5.061 -3.0070  1.4397  1.5270
   36MOL   H50125771   4.389   3.244   5.067  1.8597  1.3934  1.1782
   36MOL   H50225772   4.445   3.342   4.942 -0.8880 -1.2921 -1.7419
   36MOL   H50325773   4.303   3.078   4.911 -0.5049  0.5494  0.9924
   36MOL   H50425774   4.364   2.281   5.161  0.1560 -1.9410  1.0848
   36MOL   H50525775   4.239   2.101   5.051 -0.1874 -0.7184  0.1436
   36MOL   C50625776   4.292   3.214   4.766 -0.2320  0.5408  0.7343
   36MOL   O50725777   4.313   3.329   4.720  0.3530  0.1624 -0.0624
   36MOL   C50825778   4.193   3.129   4.705 -1.2825  0.5660 -0.3943
   36MOL   C50925779   4.200   2.988   4.728  0.5198 -0.3266 -0.4221
   36MOL   C51025780   4.101   2.911   4.673  0.8870  0.1188  0.3202
   36MOL   C51125781   4.000   2.965   4.586 -0.7026 -0.3459 -0.0427
   36MOL   C51225782   3.902   2.869   4.533  0.1951 -0.0125  0.0421
   36MOL   O51325783   3.861   2.776   4.602  0.2853 -0.1363 -0.4356
   36MOL   N51425784   3.867   2.882   4.404  0.5007  0.4082 -0.8783
   36MOL   C51525785   3.800   2.782   4.324  0.1820  0.1861 -0.7667
   36MOL   C51625786   3.898   2.702   4.243  0.2403  0.2394 -0.0168
   36MOL   C51725787   3.834   2.601   4.157  0.4407 -0.1062  0.3193
   36MOL   C51825788   3.943   2.528   4.080 -0.2845  0.4045  0.1714
   36MOL   C51925789   3.903   2.430   3.968  0.0094  0.0373  0.9348
   36MOL   C52025790   4.026   2.362   3.902  0.2683 -0.9511 -0.6309
   36MOL   N52125791   4.013   2.291   3.779  0.0978  0.1484  0.5844
   36MOL   C52225792   3.999   3.106   4.553 -0.3521  0.0388  0.1035
   36MOL   C52325793   4.098   3.189   4.615  0.0277 -0.7072  0.0926
   36MOL   H52425794   4.276   2.944   4.790  1.9074  0.1476 -1.7521
   36MOL   H52525795   4.099   2.806   4.696 -0.3181 -0.0146 -0.3352
   36MOL   H52625796   3.899   2.964   4.355  0.4165  0.2276 -1.2431
   36MOL   H52725797   3.736   2.721   4.389 -1.2018  0.5522 -1.7532
   36MOL   H52825798   3.733   2.833   4.255 -0.5320  0.3298  0.0117
   36MOL   H52925799   3.962   2.648   4.313  0.6831 -1.5599 -1.7546
   36MOL   H53025800   3.968   2.769   4.192 -0.6080  2.3504  1.5214
   36MOL   H53125801   3.775   2.526   4.208  1.3255 -1.6478 -0.8881
   36MOL   H53225802   3.763   2.647   4.088  0.0618  0.0600  0.8176
   36MOL   H53325803   3.992   2.465   4.154  1.6244 -0.7365 -1.9796
   36MOL   H53425804   4.017   2.593   4.033  1.8721 -1.9013  0.2534
   36MOL   H53525805   3.845   2.483   3.892 -1.6250 -0.8616  1.5318
   36MOL   H53625806   3.823   2.366   4.007  0.2998 -1.2955 -0.6020
   36MOL   H53725807   4.091   2.446   3.878 -1.3349  0.8768  1.1783
   36MOL   H53825808   4.076   2.310   3.983 -1.2017 -1.5337 -0.0691
   36MOL   H53925809   4.000   2.191   3.791 -0.6352  0.3395  1.4595
   36MOL   H54025810   3.929   3.140   4.478 -1.1992 -1.2734  0.2884
   36MOL   H54125811   4.106   3.295   4.600  2.8018 -0.7404  1.1670
   36MOL   C54225812   4.033   2.331   3.655  0.2141 -0.3702 -0.5355
   36MOL   O54325813   4.068   2.444   3.624  1.2653 -0.5217  0.2323
   36MOL   C54425814   4.021   2.218   3.550  0.0109  0.4960  0.2004
   36MOL   C54525815   4.097   2.232   3.436  0.1595 -0.2465 -0.4111
   36MOL   C54625816   4.083   2.131   3.334  1.0725 -0.1187  0.1520
   36MOL   C54725817   3.994   2.023   3.347  0.0659  0.9597  0.3134
   36MOL   C54825818   3.975   1.922   3.234  0.0618 -0.1093  0.5096
   36MOL   O54925819   4.027   1.937   3.125  0.0777 -0.6948  0.2429
   36MOL   N55025820   3.910   1.805   3.259 -0.0232 -0.8147 -0.4019
   36MOL   C55125821   3.886   1.699   3.170 -0.5309  0.0408 -0.8795
   36MOL   C55225822   3.793   1.732   3.049 -1.1031  0.1895  0.5500
   36MOL   C55325823   3.654   1.785   3.097 -0.3053 -0.1087  0.3815
   36MOL   C55425824   3.593   1.884   3.000  0.8223  0.5003  0.2732
   36MOL   C55525825   3.619   2.031   3.035  0.2782  0.6323  0.6955
   36MOL   C55625826   3.576   2.119   2.919 -0.2398  0.3902 -0.8325
   36MOL   N55725827   3.565   2.258   2.961 -0.4791 -0.0511  0.7347
   36MOL   C55825828   3.920   2.007   3.468 -0.0260  0.3239 -0.0594
   36MOL   C55925829   3.938   2.107   3.569 -0.3046  0.0732  0.3783
   36MOL   H56025830   4.172   2.307   3.416 -0.5730 -0.4088 -4.0098
   36MOL   H56125831   4.153   2.136   3.252  1.6297  0.6527  0.6681
   36MOL   H56225832   3.863   1.808   3.348 -0.2131 -0.6302 -0.5071
   36MOL   H56325833   3.983   1.665   3.132 -1.3783 -1.1503 -2.0507
   36MOL   H56425834   3.864   1.614   3.235  0.2103 -0.2844 -1.0461
   36MOL   H56525835   3.779   1.643   2.988  0.3777  1.0904 -1.1319
   36MOL   H56625836   3.846   1.808   2.991 -0.7415  0.6517  1.4729
   36MOL   H56725837   3.586   1.705   3.128 -1.6416 -0.0233 -2.2108
   36MOL   H56825838   3.659   1.842   3.189  1.5065  1.1189 -0.4574
   36MOL   H56925839   3.487   1.864   2.982  0.2183  2.1207  1.8510
   36MOL   H57025840   3.637   1.868   2.902 -0.5823  1.0115 -0.4456
   36MOL   H57125841   3.726   2.043   3.054  0.0321  2.6006  0.9797
   36MOL   H57225842   3.569   2.071   3.123  0.8667  0.7804  0.9601
   36MOL   H57325843   3.645   2.121   2.835  2.8444 -1.7368  1.4965
   36MOL   H57425844   3.478   2.082   2.890 -0.9422 -0.1399  2.0614
   36MOL   H57525845   3.494   2.262   3.032  0.0128 -1.6464  1.3405
   36MOL   H57625846   3.848   1.928   3.481  0.9646 -0.4813  0.6770
   36MOL   H57725847   3.878   2.103   3.659 -0.2503  0.2781  0.4246
   36MOL   C57825848   3.638   2.363   2.920 -0.4821  0.7278  0.3372
   36MOL   O57925849   3.721   2.357   2.831  0.2756 -0.3613  0.6032
   36MOL   C58025850   3.619   2.487   2.995 -0.3539 -0.1854 -0.1360
   36MOL   C58125851   3.494   2.510   3.062 -0.0985  0.3871 -0.4261
   36MOL   C58225852   3.475   2.626   3.144  0.2653  0.1636 -0.0800
   36MOL   C58325853   3.578   2.722   3.154 -0.8276 -0.6513  0.4102
   36MOL   C58425854   3.561   2.844   3.240 -0.2622  0.4310 -0.2194
   36MOL   O58525855   3.457   2.909   3.238 -0.1046 -0.6092  0.1735
   36MOL   N58625856   3.669   2.872   3.315  0.3984  0.0382  0.2415
   36MOL   C58725857   3.695   2.992   3.392 -0.1306 -0.6887  0.1975
   36MOL   C58825858   3.727   3.103   3.289  0.3121  0.2382 -0.7213
   36MOL   C58925859   3.765   3.241   3.351  0.2621 -0.3492 -0.3219
   36MOL   C59025860   3.747   3.355   3.256  0.1252  0.5685 -0.2372
   36MOL   C59125861   3.799   3.486   3.319 -0.1021  0.7087  0.0763
   36MOL   C59225862   3.719   3.538   3.434  0.5433 -0.9105 -0.1753
   36MOL   N59325863   3.791   3.659   3.488  0.5128 -0.1116  0.2816
   36MOL   C59425864   3.698   2.709   3.072  0.0870  0.4578 -0.2387
   36MOL   C59525865   3.720   2.590   2.998 -0.6777  0.4139  0.1322
   36MOL   H59625866   3.415   2.437   3.057  1.8568 -1.7529 -0.9583
   36MOL   H59725867   3.380   2.639   3.193  0.5637 -2.6602  1.3569
   36MOL   H59825868   3.748   2.813   3.294  1.1477  0.3286  2.1973
   36MOL   H59925869   3.615   3.023   3.459  0.8678  2.1981  0.1221
   36MOL   H60025870   3.782   2.970   3.453  0.5700  0.8257 -0.2285
   36MOL   H60125871   3.651   3.113   3.211 -0.6819  0.3810  0.2609
   36MOL   H60225872   3.812   3.068   3.230  0.4167 -0.2045 -0.3050
   36MOL   H60325873   3.706   3.267   3.439  1.0088  0.0453  0.0659
   36MOL   H60425874   3.870   3.233   3.378 -0.0792  1.1174  1.5221
   36MOL   H60525875   3.640   3.358   3.240 -0.1981 -0.1708  1.6855
   36MOL   H60625876   3.793   3.333   3.159  0.8809 -1.4307  0.5438
   36MOL   H60725877   3.809   3.564   3.244  1.4217 -0.1326 -0.6061
   36MOL   H60825878   3.902   3.471   3.352  0.1299 -0.7546 -1.2688
   36MOL   H60925879   3.621   3.571   3.402  0.3903 -0.8158  0.3746
   36MOL   H61025880   3.707   3.462   3.512 -1.2278 -0.8016 -0.3248
   36MOL   H61125881   3.822   3.734   3.428 -0.5605  1.7196  1.9688
   36MOL   H61225882   3.768   2.791   3.068  1.9847 -1.0668  0.8382
   36MOL   H61325883   3.808   2.583   2.936 -2.1485 -4.0214 -1.6125
   36MOL   C61425884   3.816   3.669   3.622  0.5299  0.4631 -0.2526
   36MOL   O61525885   3.774   3.583   3.701  0.3937  0.0797  0.0710
   36MOL   C61625886   3.891   3.791   3.670  0.1633  0.3747 -0.4202
   36MOL   C61725887   3.938   3.788   3.801 -0.3831  0.4865 -0.4204
   36MOL   C61825888   4.029   3.888   3.847  0.3639 -0.1631 -0.0206
   36MOL   C61925889   4.060   3.995   3.757  0.4410 -0.5292 -0.0021
   36MOL   C62025890   4.160   4.099   3.802  0.2306  1.1446  0.1382
   36MOL   O62125891   4.172   4.126   3.922 -0.0104  0.4075  0.0291
   36MOL   N62225892   4.233   4.149   3.701 -0.1449 -0.1074  0.1607
   36MOL   C62325893   4.332   4.255   3.692  0.0931  0.2439 -0.3200
   36MOL   C62425894   4.360   4.281   3.543 -0.1540  0.3846  0.0223
   36MOL   C62525895   4.473   4.388   3.519  0.8879 -0.5098  0.5099
   36MOL   C62625896   4.518   4.410   3.372 -0.2565 -0.4064 -0.3374
   36MOL   C62725897   4.583   4.294   3.298 -0.1783 -0.0460  0.5071
   36MOL   C62825898   4.625   4.326   3.147 -0.6312  0.6601  0.3483
   36MOL   N62925899   4.732   4.252   3.099 -0.1428 -0.2797  0.2944
   36MOL   C63025900   3.989   4.006   3.635  0.1119  0.8062  0.3112
   36MOL   C63125901   3.897   3.906   3.596  0.0372 -0.1272 -0.0386
   36MOL   H63225902   3.916   3.705   3.866 -0.3169  0.0154 -1.0010
   36MOL   H63325903   4.072   3.884   3.946  1.9039  0.6068 -0.6395
   36MOL   H63425904   4.213   4.099   3.616  0.8884 -0.0608 -0.1089
   36MOL   H63525905   4.307   4.349   3.741 -3.2878 -0.6281 -0.2698
   36MOL   H63625906   4.421   4.214   3.741  0.4715  0.2193 -1.0233
   36MOL   H63725907   4.268   4.310   3.492 -2.0720 -2.7400  1.5711
   36MOL   H63825908   4.391   4.188   3.496 -0.4970  0.6390 -0.7283
   36MOL   H63925909   4.443   4.485   3.560  0.7516 -0.4880  0.3564
   36MOL   H64025910   4.560   4.357   3.577 -1.1101  1.5441  4.8321
   36MOL   H64125911   4.597   4.484   3.381 -0.2658 -0.5013  0.5643
   36MOL   H64225912   4.440   4.456   3.311  0.3295  1.5026  0.3284
   36MOL   H64325913   4.516   4.208   3.295 -1.0088  0.6364 -0.4956
   36MOL   H64425914   4.672   4.260   3.352  1.0128  0.5317 -1.0309
   36MOL   H64525915   4.542   4.319   3.076 -0.7930  1.6615  0.4261
   36MOL   H64625916   4.651   4.432   3.148  2.1926  0.0071 -0.8543
   36MOL   H64725917   4.821   4.300   3.108  0.0355 -0.3124 -1.1193
   36MOL   H64825918   4.018   4.092   3.576  1.1112  0.2520 -0.0163
   36MOL   H64925919   3.851   3.909   3.499 -0.0491 -0.7079 -0.0185
   36MOL   C65025920   4.739   4.121   3.076  0.5617  0.2700  0.5239
   36MOL   O65125921   4.643   4.044   3.071  0.7148 -0.5507 -0.3219
   36MOL   C65225922   4.882   4.072   3.059 -0.6677  0.1298 -0.7184
   36MOL   C65325923   4.915   3.933   3.079 -0.9527 -0.2363  1.1741
   36MOL   C65425924   5.049   3.899   3.069  0.9100  0.1679 -0.4919
   36MOL   C65525925   5.153   3.995   3.049  0.4990  0.6740 -0.5609
   36MOL   C65625926   5.299   3.953   3.044  0.0212 -0.2831 -0.0002
   36MOL   O65725927   5.393   4.035   3.046  0.3354  0.1685 -0.1356
   36MOL   N65825928   5.324   3.823   3.034  0.3779 -0.8097  0.7467
   36MOL   C65925929   5.459   3.754   3.020 -0.0421  0.4905 -0.1772
   36MOL   C66025930   5.522   3.713   3.156  0.5836 -0.3084  0.1267
   36MOL   C66125931   5.545   3.830   3.251  0.5279 -0.7042 -0.2735
   36MOL   C66225932   5.675   3.805   3.319 -0.2720  0.4420  0.3198
   36MOL   C66325933   5.696   3.897   3.441  0.5153  0.2148  0.3753
   36MOL   C66425934   5.840   3.901   3.487  0.0238  0.5290  0.1417
   36MOL   N66525935   5.839   3.947   3.624  0.1185  0.1926 -0.0381
   36MOL   C66625936   5.116   4.129   3.024 -0.0820 -0.8175  0.7406
   36MOL   C66725937   4.980   4.161   3.019 -0.7135 -0.7082  0.2346
   36MOL   H66825938   4.839   3.861   3.108 -2.2743  0.1867 -1.1399
   36MOL   H66925939   5.073   3.794   3.071  0.7948  0.1506  0.5956
   36MOL   H67025940   5.253   3.754   3.014  2.1235 -2.7055  0.8658
   36MOL   H67125941   5.446   3.666   2.958 -0.7490  0.4123  0.0841
   36MOL   H67225942   5.527   3.818   2.964  1.2218  0.2541  1.0547
   36MOL   H67325943   5.603   3.644   3.132 -0.0309 -0.9970  0.0080
   36MOL   H67425944   5.455   3.651   3.216  0.3189  2.0592  2.3512
   36MOL   H67525945   5.559   3.926   3.200 -0.6574 -0.2669  0.2121
   36MOL   H67625946   5.472   3.847   3.330 -0.2809  1.6501 -1.4611
   36MOL   H67725947   5.750   3.834   3.246  0.2672  1.4438  1.2601
   36MOL   H67825948   5.686   3.705   3.360 -0.3706  1.0429  1.8471
   36MOL   H67925949   5.635   3.859   3.523  1.9103 -2.6907  0.1221
   36MOL   H68025950   5.653   3.997   3.431 -2.9033 -1.2169  0.0883
   36MOL   H68125951   5.890   3.804   3.482  1.7665  1.4496 -0.7911
   36MOL   H68225952   5.885   3.970   3.416 -0.6988 -0.0355 -0.8954
   36MOL   H68325953   5.755   3.961   3.678  0.9193 -0.8448  1.5215
   36MOL   H68425954   5.194   4.199   2.999  0.5398 -1.0900  1.8741
   36MOL   H68525955   4.953   4.265   3.003 -1.5165 -1.0514 -0.7184
   36MOL   C68625956   5.952   3.978   3.686 -0.7114  0.6693 -0.1706
   36MOL   O68725957   6.062   3.965   3.641 -0.5428  0.1969  0.2990
   36MOL   C68825958   5.929   4.033   3.825 -0.1055 -0.0702  0.2791
   36MOL   C68925959   6.004   3.981   3.932  0.5551 -0.3968  0.9005
   36MOL   C69025960   5.983   4.035   4.062  0.2742  0.2287  0.7044
   36MOL   C69125961   5.891   4.137   4.091  0.3145 -0.0215 -0.3550
   36MOL   C69225962   5.883   4.196   4.232 -0.0369 -0.2404 -0.3177
   36MOL   O69325963   5.942   4.149   4.329 -0.2419 -0.2644 -0.1393
   36MOL   N69425964   5.799   4.301   4.239 -0.3063  0.3136 -0.7313
   36MOL   C69525965   5.765   4.372   4.357  0.3942 -0.1031 -0.3851
   36MOL   C69625966   5.869   4.477   4.401  0.3328  0.6471 -0.9144
   36MOL   C69725967   5.817   4.557   4.519  0.1583 -0.2465  0.0933
   36MOL   C69825968   5.921   4.648   4.578 -0.1125  0.1464 -0.2040
   36MOL   C69925969   5.862   4.749   4.673 -0.7028 -0.4479  0.0724
   36MOL   C70025970   5.967   4.852   4.725 -0.3082 -0.3223 -0.2069
   36MOL   N70125971   5.898   4.926   4.830 -0.3922 -0.5907 -0.1416
   36MOL   C70225972   5.825   4.191   3.980 -0.1334 -0.5513 -0.8317
   36MOL   C70325973   5.842   4.138   3.851  0.2474 -0.6705 -0.0066
   36MOL   H70425974   6.072   3.899   3.913  0.3148  0.1476 -2.6826
   36MOL   H70525975   6.039   3.978   4.135  0.3352  0.1739  0.6142
   36MOL   H70625976   5.731   4.319   4.167 -0.4841  1.3502 -0.3093
   36MOL   H70725977   5.669   4.420   4.342 -1.5677 -3.8741 -0.6460
   36MOL   H70825978   5.755   4.303   4.441 -0.0303  0.2316 -0.1607
   36MOL   H70925979   5.883   4.532   4.308 -1.9431 -0.3035 -1.8718
   36MOL   H71025980   5.967   4.432   4.416  1.7716  3.0746 -2.6812
   36MOL   H71125981   5.728   4.606   4.481 -0.4273  0.6658  2.5738
   36MOL   H71225982   5.791   4.475   4.586  0.3762  0.5256  1.1361
   36MOL   H71325983   5.971   4.697   4.494  2.0455  0.3196  1.1455
   36MOL   H71425984   5.988   4.589   4.640  2.6883  2.3486 -1.0180
   36MOL   H71525985   5.813   4.700   4.756  0.2158  0.2385  1.0335
   36MOL   H71625986   5.784   4.795   4.611 -0.8973 -0.5597  0.2350
   36MOL   H71725987   6.057   4.805   4.765 -0.6523 -0.1881  0.7492
   36MOL   H71825988   5.993   4.910   4.637  2.2604  0.3821  0.9874
   36MOL   H71925989   5.955   5.006   4.853  0.6687 -1.6486  0.9962
   36MOL   H72025990   5.748   4.266   3.995  1.6741  0.9981  0.8221
   36MOL   H72125991   5.803   4.187   3.763  0.3187 -0.4576  0.0806
   36MOL   H72225992   5.887   4.878   4.918  0.4967  2.7315  1.8470
   37MOL     C125993   3.552   1.132   2.177  0.2700  0.2610 -0.8893
   37MOL     O225994   3.668   1.168   2.183 -0.1554  0.5434  0.2169
   37MOL     C325995   3.494   1.073   2.054  0.5996 -0.1010  0.2482
   37MOL     C425996   3.545   1.101   1.924  0.0745 -0.8769 -0.4238
   37MOL     C525997   3.505   1.022   1.817 -0.8929 -0.4902 -0.3935
   37MOL     C625998   3.412   0.917   1.825 -0.3162  0.2279  0.6891
   37MOL     C725999   3.370   0.832   1.704  0.0090  0.0505  0.3052
   37MOL     O826000   3.306   0.731   1.729 -0.0787  0.6510  0.4901
   37MOL     N926001   3.414   0.866   1.583 -0.3604 -0.9427  0.2648
   37MOL    C1026002   3.399   0.791   1.464  0.0180  0.2575 -0.0315
   37MOL    C1126003   3.460   0.647   1.465 -0.7330 -0.2645  0.5936
   37MOL    C1226004   3.608   0.637   1.501  0.0951 -0.5077 -0.7398
   37MOL    C1326005   3.656   0.494   1.508  0.0434  0.5836 -1.2662
   37MOL    C1426006   3.635   0.398   1.396  0.6230 -0.3709 -0.7147
   37MOL    C1526007   3.695   0.252   1.416  0.1748  0.3214 -0.5336
   37MOL    N1626008   3.604   0.166   1.493  0.3853 -0.7651 -0.2106
   37MOL    C1726009   3.364   0.890   1.956 -0.0447 -0.4943 -0.2699
   37MOL    C1826010   3.401   0.969   2.071 -0.4101 -0.0904 -0.2596
   37MOL    H1926011   3.621   1.176   1.907  0.4978 -1.1638  0.1874
   37MOL    H2026012   3.563   1.038   1.727  0.9730 -1.1533  0.6707
   37MOL    H2126013   3.461   0.955   1.573 -1.7134 -0.4166 -1.6395
   37MOL    H2226014   3.293   0.797   1.437 -0.2929 -0.4531  0.9899
   37MOL    H2326015   3.461   0.839   1.389 -1.0257 -1.5970 -2.1189
   37MOL    H2426016   3.449   0.605   1.365 -0.8278  0.4750  0.2876
   37MOL    H2526017   3.406   0.580   1.532  1.8535 -0.9386  2.0875
   37MOL    H2626018   3.665   0.713   1.448 -0.6416  1.4050  1.1427
   37MOL    H2726019   3.607   0.688   1.597 -0.4897  2.6974 -2.3740
   37MOL    H2826020   3.616   0.460   1.604  0.9171  1.9448 -0.3865
   37MOL    H2926021   3.764   0.506   1.520 -0.4363  2.1466  2.6548
   37MOL    H3026022   3.686   0.451   1.315  1.7066 -0.8616 -0.3665
   37MOL    H3126023   3.529   0.389   1.370 -0.3069 -0.1425  2.8210
   37MOL    H3226024   3.720   0.210   1.318 -1.6452 -1.6403 -0.1917
   37MOL    H3326025   3.790   0.252   1.469  0.9765 -0.9973 -1.9405
   37MOL    H3426026   3.605   0.170   1.593  0.6256 -0.9926 -0.2036
   37MOL    H3526027   3.296   0.809   1.973  2.3140 -2.8813 -1.8293
   37MOL    H3626028   3.363   0.950   2.170  2.2895  0.2978  0.9242
   37MOL    H3726029   3.479   1.140   2.258  0.2254 -2.5940 -0.5759
   37MOL    C3826030   3.521   0.083   1.430 -0.6227 -0.5508  0.5200
   37MOL    O3926031   3.519   0.064   1.310  0.1652 -0.1479  0.5357
   37MOL    C4026032   3.416   0.013   1.514 -0.0599 -0.2082  0.2709
   37MOL    C4126033   3.298   7.847   1.454  0.1539  0.3778 -0.4815
   37MOL    C4226034   3.196   7.798   1.539  0.2619  0.0538  0.7034
   37MOL    C4326035   3.209   7.781   1.674 -0.3239  0.9864 -0.2055
   37MOL    C4426036   3.097   7.731   1.755 -0.7732 -0.7876 -0.4870
   37MOL    O4526037   3.009   7.661   1.706 -0.8042  0.0723 -0.4782
   37MOL    N4626038   3.095   7.775   1.883 -0.1034  0.2112  0.0016
   37MOL    C4726039   2.986   7.742   1.979 -0.4887 -0.8367 -0.3901
   37MOL    C4826040   3.044   7.716   2.123 -0.4859  0.0384 -0.4174
   37MOL    C4926041   2.936   7.719   2.230 -0.3329  0.1126 -0.2974
   37MOL    C5026042   3.000   7.705   2.374 -0.4005 -0.3314  0.7019
   37MOL    C5126043   3.010   7.554   2.407  0.5949 -0.0885  0.0176
   37MOL    C5226044   3.108   7.524   2.524 -0.7945  0.0835  0.0682
   37MOL    N5326045   3.128   7.388   2.554 -0.2117 -0.1653 -0.0618
   37MOL    C5426046   3.336   7.805   1.732  0.2284  0.7587 -0.1620
   37MOL    C5526047   3.437   7.857   1.646  0.2200  0.8782 -0.1418
   37MOL    H5626048   3.269   7.866   1.351  1.1528  1.0383 -0.6450
   37MOL    H5726049   3.101   7.775   1.492  0.6231  0.8831 -0.4603
   37MOL    H5826050   3.169   7.836   1.915  1.7001 -0.5456 -2.6083
   37MOL    H5926051   2.913   7.822   1.975 -0.1078 -0.5000 -0.6983
   37MOL    H6026052   2.934   7.652   1.945 -1.2803  0.3705 -2.4149
   37MOL    H6126053   3.120   7.789   2.150  1.5507 -1.5885 -1.6033
   37MOL    H6226054   3.094   7.620   2.113 -0.1138  0.2954 -1.1150
   37MOL    H6326055   2.884   7.815   2.231  0.3044  0.4591  0.2176
   37MOL    H6426056   2.853   7.649   2.224 -1.8035  1.8645 -0.9564
   37MOL    H6526057   2.937   7.749   2.451 -1.8973  1.9331 -1.7077
   37MOL    H6626058   3.099   7.749   2.382 -1.3359  2.2042 -1.0571
   37MOL    H6726059   3.056   7.526   2.312  1.5925 -1.1450  0.7896
   37MOL    H6826060   2.919   7.495   2.420  1.0543 -0.8482 -0.1624
   37MOL    H6926061   3.207   7.562   2.496  0.1742 -1.4542  1.3087
   37MOL    H7026062   3.073   7.583   2.609 -0.0230 -0.6795  0.9240
   37MOL    H7126063   3.168   7.333   2.479 -1.9582 -2.8108  0.8730
   37MOL    H7226064   3.356   7.797   1.838  0.5209  0.0705 -0.2638
   37MOL    H7326065   3.537   7.869   1.687 -1.3531  1.0023  3.8313
   37MOL    C7426066   3.091   7.316   2.666  0.1560 -0.1307  0.6427
   37MOL    O7526067   3.019   7.370   2.750 -0.1522  0.1434  0.1728
   37MOL    C7626068   3.115   7.170   2.674 -0.2562 -0.8913 -0.1490
   37MOL    C7726069   3.163   7.102   2.563  0.1039  0.6054 -0.1295
   37MOL    C7826070   3.175   6.961   2.561  0.1008  0.0529  0.2177
   37MOL    C7926071   3.133   6.886   2.674  0.2864  0.1946  0.0833
   37MOL    C8026072   3.157   6.742   2.687  0.8376  0.0870  0.0104
   37MOL    O8126073   3.189   6.693   2.798  0.0553  0.2060 -0.4187
   37MOL    N8226074   3.149   6.673   2.571 -0.0156 -0.3142 -0.2359
   37MOL    C8326075   3.177   6.532   2.538 -0.5820 -0.1223 -0.2170
   37MOL    C8426076   3.121   6.515   2.397 -0.1909  0.7291 -0.0482
   37MOL    C8526077   3.154   6.385   2.336 -0.0925  0.3134  0.1212
   37MOL    C8626078   3.108   6.385   2.188  0.7327 -0.2408  0.3817
   37MOL    C8726079   3.169   6.268   2.111  0.6130  0.1553 -0.4533
   37MOL    C8826080   3.107   6.236   1.974 -0.1421 -1.1568  0.4703
   37MOL    N8926081   3.126   6.352   1.892  0.0002  0.1069  0.5643
   37MOL    C9026082   3.068   6.950   2.783 -0.4036 -0.2238 -0.4301
   37MOL    C9126083   3.072   7.094   2.786  0.7270  0.3407 -0.1325
   37MOL    H9226084   3.194   7.166   2.481  0.5220  0.1012 -0.3652
   37MOL    H9326085   3.225   6.911   2.480  0.4009  0.0985  0.3747
   37MOL    H9426086   3.131   6.732   2.491  0.7700  0.6683  0.2992
   37MOL    H9526087   3.284   6.508   2.534 -0.8102 -1.3981  1.0250
   37MOL    H9626088   3.130   6.460   2.605 -0.4512 -2.4430 -2.5465
   37MOL    H9726089   3.153   6.594   2.328 -2.8763  1.9170  0.0188
   37MOL    H9826090   3.013   6.519   2.407 -0.1453  1.1790  0.3086
   37MOL    H9926091   3.263   6.377   2.341 -0.2576 -2.4534 -0.0748
   37MOL   H10026092   3.114   6.299   2.389  0.4016  0.7265  1.1675
   37MOL   H10126093   3.123   6.482   2.141 -1.0911  0.4061  1.0820
   37MOL   H10226094   3.001   6.366   2.199 -0.0364  4.5202  1.9714
   37MOL   H10326095   3.163   6.180   2.175  1.3158  0.3775 -0.0750
   37MOL   H10426096   3.276   6.292   2.107  0.2763  1.6305 -0.9728
   37MOL   H10526097   3.154   6.153   1.921 -0.7013 -0.3711 -1.2915
   37MOL   H10626098   3.000   6.216   1.975 -0.4416  0.2576 -0.6367
   37MOL   H10726099   3.210   6.407   1.904  1.7581 -2.0887 -1.1303
   37MOL   H10826100   3.029   6.902   2.872 -0.6636 -0.9162 -0.9167
   37MOL   H10926101   3.029   7.143   2.872 -2.5480 -1.0412 -0.8769
   37MOL   C11026102   3.053   6.392   1.784 -0.5403  0.0993  1.1479
   37MOL   O11126103   2.965   6.320   1.734  0.4196  0.7940  0.3168
   37MOL   C11226104   3.103   6.510   1.715 -0.7123 -0.2432 -0.1309
   37MOL   C11326105   3.056   6.549   1.582 -0.2573  0.2974 -0.3214
   37MOL   C11426106   3.111   6.662   1.517 -0.1775 -0.1310 -0.0446
   37MOL   C11526107   3.202   6.749   1.580  0.1357 -0.3532 -0.0983
   37MOL   C11626108   3.241   6.880   1.524 -0.6551  0.1146  0.0418
   37MOL   O11726109   3.150   6.957   1.498  0.4930 -0.4728 -0.6631
   37MOL   N11826110   3.369   6.898   1.496  0.2345  0.7745  0.2837
   37MOL   C11926111   3.416   7.022   1.448  0.0623  0.4882  0.1891
   37MOL   C12026112   3.573   7.016   1.443  0.3201  0.2198  1.1024
   37MOL   C12126113   3.641   7.137   1.377 -0.2501 -0.3230 -0.0799
   37MOL   C12226114   3.789   7.147   1.416 -0.3668  0.0372  0.2390
   37MOL   C12326115   3.858   7.267   1.342  0.4631 -0.3427  0.2765
   37MOL   C12426116   3.992   7.318   1.401 -0.0476 -0.0477  0.2277
   37MOL   N12526117   4.038   7.427   1.324 -0.7914 -0.1216  0.6358
   37MOL   C12626118   3.254   6.703   1.707 -0.4887  0.2799 -0.7333
   37MOL   C12726119   3.211   6.589   1.770  0.1191  0.0006 -0.6845
   37MOL   H12826120   2.988   6.490   1.521  0.7187 -1.7109  0.5073
   37MOL   H12926121   3.063   6.681   1.422  0.4480 -1.0242 -0.5417
   37MOL   H13026122   3.428   6.820   1.520  0.6908  0.2908 -2.3236
   37MOL   H13126123   3.376   7.058   1.354  1.5142 -0.5069 -0.8241
   37MOL   H13226124   3.371   7.103   1.506 -2.2816 -1.1708  0.7564
   37MOL   H13326125   3.603   6.921   1.399 -1.8706  0.8993 -2.0137
   37MOL   H13426126   3.596   7.015   1.549  1.7157 -0.0579  0.8104
   37MOL   H13526127   3.637   7.137   1.268  0.1835  1.2706 -0.1165
   37MOL   H13626128   3.583   7.227   1.400 -1.1319 -1.2160  1.3391
   37MOL   H13726129   3.851   7.063   1.385 -1.2491 -0.3861 -0.4109
   37MOL   H13826130   3.801   7.153   1.524 -1.5746 -2.3799  0.5498
   37MOL   H13926131   3.794   7.355   1.349  0.3112 -0.1664 -2.7020
   37MOL   H14026132   3.860   7.244   1.235 -0.8575 -0.5738  0.2949
   37MOL   H14126133   3.982   7.347   1.505  1.7483  0.2596  0.3342
   37MOL   H14226134   4.069   7.240   1.399 -0.2116 -0.1947 -0.6952
   37MOL   H14326135   3.974   7.487   1.272  1.4119  2.7894  1.1673
   37MOL   H14426136   3.324   6.757   1.769 -1.1515 -0.4279  0.6300
   37MOL   H14526137   3.264   6.559   1.859  1.1664  1.1529 -0.9074
   37MOL   C14626138   4.169   7.463   1.313 -0.1142 -0.0144 -0.7049
   37MOL   O14726139   4.264   7.404   1.380 -0.3043 -0.5733  0.4208
   37MOL   C14826140   4.200   7.578   1.215 -0.0013 -0.4217  0.0549
   37MOL   C14926141   4.119   7.602   1.099 -0.5521  0.4480  0.1212
   37MOL   C15026142   4.143   7.718   1.018  0.7404  0.0828 -0.0274
   37MOL   C15126143   4.250   7.802   1.046 -0.1375  0.2627 -0.0205
   37MOL   C15226144   4.272   0.031   0.957  0.6204  0.7336  0.1824
   37MOL   O15326145   4.180   0.083   0.893 -0.0505 -0.6566 -0.2807
   37MOL   N15426146   4.390   0.091   0.958  0.2750  0.2551  0.2699
   37MOL   C15526147   4.415   0.214   0.873 -0.4471 -0.2903  0.5541
   37MOL   C15626148   4.499   0.315   0.952  0.0963 -0.5784  0.8789
   37MOL   C15726149   4.549   0.426   0.858 -0.0507 -0.0822 -0.3785
   37MOL   C15826150   4.639   0.529   0.925 -0.2656 -0.1557  0.3882
   37MOL   C15926151   4.693   0.650   0.838  0.0061  0.1580 -0.4850
   37MOL   C16026152   4.603   0.776   0.819 -0.4841  0.6797 -0.4484
   37MOL   N16126153   4.465   0.744   0.799  0.7358 -0.3564 -0.8188
   37MOL   C16226154   4.341   7.769   1.150 -0.6499 -0.2202 -0.0994
   37MOL   C16326155   4.314   7.659   1.231  0.0327 -0.0935 -0.0761
   37MOL   H16426156   4.031   7.545   1.078  0.7220 -1.4643 -0.1101
   37MOL   H16526157   4.082   7.734   0.930  0.7310 -0.8536 -0.2041
   37MOL   H16626158   4.458   0.046   1.017 -0.9360  0.5725  1.9616
   37MOL   H16726159   4.472   0.181   0.786 -1.5295 -1.2935  0.2011
   37MOL   H16826160   4.320   0.262   0.849 -0.5443  0.5739  2.5736
   37MOL   H16926161   4.575   0.257   1.005  0.2605 -1.3963 -0.2262
   37MOL   H17026162   4.434   0.354   1.030  1.2201 -1.5117  2.3218
   37MOL   H17126163   4.602   0.372   0.780 -2.2774 -2.0828 -0.5714
   37MOL   H17226164   4.471   0.487   0.814 -0.9309  0.2609  1.5942
   37MOL   H17326165   4.724   0.475   0.968  0.3906  1.9523  1.8297
   37MOL   H17426166   4.585   0.568   1.011  0.0961  0.2575  0.4270
   37MOL   H17526167   4.738   0.611   0.747 -2.6372  0.5928 -2.0157
   37MOL   H17626168   4.777   0.705   0.881  0.4749 -0.0768 -1.0937
   37MOL   H17726169   4.625   0.852   0.894 -0.2195 -1.1722  1.4063
   37MOL   H17826170   4.632   0.830   0.729  0.9736  2.2933  0.9320
   37MOL   H17926171   4.447   0.677   0.726 -0.3180  1.1506 -1.9765
   37MOL   H18026172   4.429   7.829   1.170 -0.1944 -0.7039 -0.6268
   37MOL   H18126173   4.381   7.642   1.314 -1.3838 -0.1988  1.0640
   37MOL   C18226174   4.368   0.752   0.890  0.5988 -0.2063 -0.2045
   37MOL   O18326175   4.365   0.836   0.982 -0.1018  0.1464 -0.7560
   37MOL   C18426176   4.255   0.663   0.870  1.1282  0.6050  0.1118
   37MOL   C18526177   4.187   0.662   0.748  0.5441 -0.2361  0.1857
   37MOL   C18626178   4.080   0.581   0.722 -0.0253  0.7630  0.8043
   37MOL   C18726179   4.048   0.478   0.818  0.5664  0.0427  0.2827
   37MOL   C18826180   3.940   0.379   0.778 -0.0541 -0.0253  0.7613
   37MOL   O18926181   3.847   0.414   0.708 -0.1019 -0.1922  0.3088
   37MOL   N19026182   3.947   0.257   0.826 -0.2237 -0.5537  0.3116
   37MOL   C19126183   3.858   0.140   0.803  0.5769  0.2279 -0.2260
   37MOL   C19226184   3.778   0.101   0.926 -0.5673  0.2005 -0.2968
   37MOL   C19326185   3.758   7.834   0.925 -0.6773 -0.5953 -0.2506
   37MOL   C19426186   3.691   7.795   1.058  0.4282 -0.1778  0.2680
   37MOL   C19526187   3.604   7.667   1.051 -0.8512  0.1519  1.2560
   37MOL   C19626188   3.524   7.641   1.184 -0.7744 -0.6040  0.2380
   37MOL   N19726189   3.440   7.525   1.173 -0.2082 -0.0984  0.0664
   37MOL   C19826190   4.121   0.471   0.943 -0.1872  0.6248  0.4316
   37MOL   C19926191   4.218   0.571   0.968  0.0239  0.2761 -0.6616
   37MOL   H20026192   4.214   0.733   0.671 -1.9987 -0.2511 -0.7657
   37MOL   H20126193   4.029   0.576   0.627  0.1139 -0.8775  0.8011
   37MOL   H20226194   4.028   0.235   0.882 -1.0224  0.7655  2.0251
   37MOL   H20326195   3.789   0.157   0.720 -0.6044  0.0876  0.7244
   37MOL   H20426196   3.912   0.052   0.767 -1.1522  0.0735 -2.5493
   37MOL   H20526197   3.685   0.157   0.935 -0.6098  0.2464 -1.0071
   37MOL   H20626198   3.838   0.141   1.008 -0.8764  0.9330 -0.4281
   37MOL   H20726199   3.695   7.816   0.838 -2.0663 -0.0567  0.6294
   37MOL   H20826200   3.855   7.787   0.906  0.0053  1.3076 -1.6615
   37MOL   H20926201   3.621   7.873   1.087  0.1380 -0.6898  0.9921
   37MOL   H21026202   3.768   7.785   1.135  0.0945  1.5853  0.8566
   37MOL   H21126203   3.669   7.582   1.027 -1.9914 -0.2623 -0.4339
   37MOL   H21226204   3.545   7.678   0.961  2.1651 -0.4258 -0.8796
   37MOL   H21326205   3.581   7.642   1.276  2.6025 -1.1347 -1.7554
   37MOL   H21426206   3.463   7.731   1.185 -0.9577 -0.6861 -1.3748
   37MOL   H21526207   3.375   7.513   1.096 -0.9396 -1.4450  0.8777
   37MOL   H21626208   4.093   0.400   1.019 -2.6444 -1.0317 -1.9379
   37MOL   H21726209   4.274   0.571   1.060  0.6074 -1.4067 -0.9904
   37MOL   C21826210   3.404   7.465   1.292 -0.2474  0.0755  0.5289
   37MOL   O21926211   3.463   7.479   1.402 -0.0736  0.3767  0.5693
   37MOL   C22026212   3.292   7.368   1.272 -0.0587 -0.1842 -0.0506
   37MOL   C22126213   3.199   7.345   1.374 -0.2206  0.6223  0.3859
   37MOL   C22226214   3.103   7.246   1.350 -0.3938 -0.3471 -0.5196
   37MOL   C22326215   3.087   7.173   1.227 -0.1009  0.0926  0.3521
   37MOL   C22426216   2.969   7.078   1.203 -0.2790 -0.5316 -0.7471
   37MOL   O22526217   2.951   7.040   1.088 -0.1287  0.2365  0.5340
   37MOL   N22626218   2.901   7.038   1.307  0.6810  0.1111 -0.0915
   37MOL   C22726219   2.780   6.960   1.308  0.2936 -0.4719 -0.0704
   37MOL   C22826220   2.789   6.842   1.398  0.1185  0.5388  0.1209
   37MOL   C22926221   2.662   6.806   1.471 -0.5014  0.0230  0.1937
   37MOL   C23026222   2.629   6.912   1.577 -0.7473  0.3087  0.2766
   37MOL   C23126223   2.495   6.891   1.643  0.1475  0.2385 -0.2046
   37MOL   C23226224   2.469   7.008   1.748 -0.3401  0.1160  0.3051
   37MOL   N23326225   2.358   6.970   1.837  0.2741 -0.0507  0.4001
   37MOL   C23426226   3.171   7.213   1.119  0.0759 -0.2930 -0.2381
   37MOL   C23526227   3.281   7.299   1.145  0.1937  0.0215 -0.3232
   37MOL   H23626228   3.204   7.395   1.469 -0.9766  0.9859  0.2419
   37MOL   H23726229   3.029   7.223   1.426  0.8822 -2.0666  0.2228
   37MOL   H23826230   2.934   7.066   1.398  1.7109  3.4368 -1.3875
   37MOL   H23926231   2.695   7.026   1.326 -0.5341 -1.1075 -1.5017
   37MOL   H24026232   2.747   6.915   1.214  3.6235 -2.0965 -0.5458
   37MOL   H24126233   2.860   6.867   1.476 -0.9867  3.0383  0.3737
   37MOL   H24226234   2.834   6.755   1.350 -0.4782  0.0339  0.4733
   37MOL   H24326235   2.574   6.795   1.408 -1.2717  0.2027  1.2152
   37MOL   H24426236   2.670   6.706   1.515 -1.6203 -0.4769 -0.7251
   37MOL   H24526237   2.605   7.009   1.533  0.8032 -0.8574 -3.3030
   37MOL   H24626238   2.708   6.923   1.651 -0.9831 -0.3574  0.6328
   37MOL   H24726239   2.485   6.794   1.691 -0.3052  1.5229  2.3386
   37MOL   H24826240   2.414   6.887   1.569  0.4699  0.2785 -0.5639
   37MOL   H24926241   2.560   7.008   1.809 -0.4905  1.0743  0.5415
   37MOL   H25026242   2.448   7.105   1.702  1.3278 -0.5663 -1.9780
   37MOL   H25126243   2.324   6.876   1.825 -0.7938  0.2597  0.8534
   37MOL   H25226244   3.160   7.159   1.026  0.0549 -0.0819 -0.3589
   37MOL   H25326245   3.354   7.316   1.068  0.5871 -1.8043 -0.3792
   37MOL   C25426246   2.305   7.055   1.928  0.1843  0.2961  0.6291
   37MOL   O25526247   2.359   7.158   1.973 -0.3288  0.0964 -0.0605
   37MOL   C25626248   2.171   7.013   1.968  1.3170  0.0814  0.1904
   37MOL   C25726249   2.075   6.969   1.871 -1.0784 -0.1058  0.0101
   37MOL   C25826250   1.949   6.917   1.907  0.2670 -1.1616 -0.3423
   37MOL   C25926251   1.906   6.932   2.038  0.1351  0.1901  0.0948
   37MOL   C26026252   1.774   6.886   2.088  0.1934  0.0788  0.0242
   37MOL   O26126253   1.754   6.828   2.197 -0.4644  0.4361  0.3596
   37MOL   N26226254   1.671   6.909   2.003  0.4727 -0.1672 -0.0882
   37MOL   C26326255   1.530   6.881   2.037  0.1252 -0.0567  0.1795
   37MOL   C26426256   1.440   6.953   1.927 -0.6248 -0.1019 -0.2286
   37MOL   C26526257   1.291   6.919   1.944 -0.8685  0.2350  0.4993
   37MOL   C26626258   1.227   6.984   2.065  0.3471 -0.2046 -0.4454
   37MOL   C26726259   1.067   6.975   2.046  0.0558 -0.0679  0.1557
   37MOL   C26826260   0.998   7.073   1.951  0.6524  0.6742  0.5032
   37MOL   N26926261   1.068   7.195   1.923  0.2872 -0.7545  0.9212
   37MOL   C27026262   1.996   6.981   2.129 -0.1088  0.7775  0.0266
   37MOL   C27126263   2.131   7.015   2.102  0.9579 -0.5448  0.7613
   37MOL   H27226264   2.105   6.973   1.767  2.6249 -1.5705  0.9644
   37MOL   H27326265   1.883   6.867   1.837 -0.3629 -1.8847  0.7638
   37MOL   H27426266   1.682   6.957   1.915  0.0283 -0.7986 -0.4923
   37MOL   H27526267   1.522   6.772   2.036  2.6453 -0.2697  0.8012
   37MOL   H27626268   1.503   6.902   2.140 -0.3807 -0.7333  0.1879
   37MOL   H27726269   1.467   6.920   1.827 -1.1526  0.6536 -0.6252
   37MOL   H27826270   1.458   7.059   1.945  1.9616 -0.3228 -1.2903
   37MOL   H27926271   1.242   6.946   1.850 -0.4688  2.1845  0.8112
   37MOL   H28026272   1.276   6.813   1.960  1.1667 -0.0313  0.7453
   37MOL   H28126273   1.252   7.090   2.065  0.6746 -0.2843  0.0338
   37MOL   H28226274   1.243   6.927   2.156 -1.4079  1.4052  0.9278
   37MOL   H28326275   1.033   7.007   2.144  1.2216 -1.6111  1.0886
   37MOL   H28426276   1.038   6.870   2.041 -1.3576  0.2321  1.6955
   37MOL   H28526277   0.974   7.018   1.861  0.7284 -1.4067  1.7309
   37MOL   H28626278   0.901   7.090   1.997  1.5774  1.9489  2.0616
   37MOL   H28726279   1.085   7.264   1.995  0.2555  0.8961 -0.5980
   37MOL   H28826280   1.961   6.989   2.230 -1.8902 -2.0175 -0.3206
   37MOL   H28926281   2.188   7.045   2.189  0.9397 -1.3941  1.0728
   37MOL   C29026282   1.123   7.232   1.803 -0.2948 -0.6001  0.5156
   37MOL   O29126283   1.122   7.154   1.708  0.1781  0.3318 -1.0616
   37MOL   C29226284   1.189   7.369   1.798 -0.1538 -0.0897  0.1127
   37MOL   C29326285   1.187   7.442   1.678  0.0867  0.2966 -0.2829
   37MOL   C29426286   1.255   7.570   1.669  0.3833  0.6734 -0.9200
   37MOL   C29526287   1.326   7.628   1.777 -0.6855  0.4246 -0.2049
   37MOL   C29626288   1.412   7.748   1.750 -0.2792 -0.1707  0.1793
   37MOL   O29726289   1.460   7.769   1.636  0.5256  0.0543 -0.0100
   37MOL   N29826290   1.433   7.836   1.853  0.8539 -0.2419 -0.3825
   37MOL   C29926291   1.535   0.054   1.853  0.5793 -0.7556  0.0472
   37MOL   C30026292   1.514   0.141   1.985 -0.0312  0.4406  0.4898
   37MOL   C30126293   1.591   0.267   1.984 -0.9312 -0.6390 -0.1184
   37MOL   C30226294   1.567   0.360   1.859 -0.1328 -0.3265 -0.2940
   37MOL   C30326295   1.643   0.488   1.882  0.0742 -0.1941  0.0476
   37MOL   C30426296   1.626   0.582   1.758 -0.3719  0.2647 -0.3848
   37MOL   N30526297   1.680   0.716   1.784  0.4531 -0.2401 -0.7527
   37MOL   C30626298   1.332   7.555   1.896  0.6009  0.0634 -0.8354
   37MOL   C30726299   1.267   7.430   1.910  0.2223 -0.1786 -0.0467
   37MOL   H30826300   1.142   7.406   1.587 -1.5551  1.3686  0.0791
   37MOL   H30926301   1.249   7.623   1.575  0.9225  0.6288 -0.9847
   37MOL   H31026302   1.385   7.820   1.940  1.2441  0.2618 -0.0737
   37MOL   H31126303   1.641   0.032   1.844  0.8237  0.5051 -0.2988
   37MOL   H31226304   1.520   0.122   1.769  1.1421  0.3975  0.8513
   37MOL   H31326305   1.549   0.083   2.071 -0.6698 -0.4064  0.1749
   37MOL   H31426306   1.410   0.167   2.002 -0.6892 -0.4280 -1.9657
   37MOL   H31526307   1.568   0.325   2.073 -2.4076 -4.0967  1.8744
   37MOL   H31626308   1.698   0.245   1.987 -1.0709 -1.3798 -0.3344
   37MOL   H31726309   1.462   0.386   1.852 -0.7476 -2.8489 -1.0656
   37MOL   H31826310   1.616   0.316   1.772  2.7741 -0.5656  1.3680
   37MOL   H31926311   1.750   0.467   1.891 -0.0871 -0.3656  1.7474
   37MOL   H32026312   1.612   0.533   1.977 -2.3268 -0.5847 -0.5329
   37MOL   H32126313   1.681   0.557   1.667  2.0578 -0.8865  1.3548
   37MOL   H32226314   1.522   0.583   1.726 -0.8683  0.6309  1.1944
   37MOL   H32326315   1.752   0.723   1.854 -0.6311 -2.3829  0.6233
   37MOL   H32426316   1.390   7.591   1.979  2.0331 -1.2905 -1.2222
   37MOL   H32526317   1.286   7.383   2.005  1.0737  0.9957  0.3791
   37MOL   C32626318   1.619   0.838   1.753  0.7953 -0.0065 -0.9340
   37MOL   O32726319   1.527   0.850   1.675  0.8341 -0.0808 -0.0896
   37MOL   C32826320   1.683   0.953   1.823 -0.5698  0.8465  0.4313
   37MOL   C32926321   1.679   1.078   1.766 -0.5889  0.2156 -0.3124
   37MOL   C33026322   1.738   1.195   1.823 -0.6508  0.2323 -0.3307
   37MOL   C33126323   1.800   1.182   1.947 -0.1682  1.3277  0.3583
   37MOL   C33226324   1.855   1.297   2.025 -0.4425 -0.0501 -0.4520
   37MOL   O33326325   1.906   1.283   2.137 -0.3355 -0.6127 -0.9064
   37MOL   N33426326   1.836   1.421   1.974  0.3235  0.3747 -0.0974
   37MOL   C33526327   1.869   1.544   2.045 -0.2300 -0.4741 -0.3508
   37MOL   C33626328   1.859   1.663   1.943 -0.1152 -0.4823  0.1497
   37MOL   C33726329   1.734   1.657   1.855 -0.0611  0.1578 -0.0648
   37MOL   C33826330   1.744   1.770   1.748  0.2557  0.2210  0.0152
   37MOL   C33926331   1.607   1.795   1.674  0.1657  0.4773  0.3623
   37MOL   C34026332   1.632   1.879   1.545 -0.0698 -0.7016 -0.3359
   37MOL   N34126333   1.508   1.934   1.496 -0.3108 -0.0981  0.1243
   37MOL   C34226334   1.820   1.053   1.999  0.0744 -0.0049  0.0967
   37MOL   C34326335   1.755   0.941   1.943 -0.6137  0.4708  0.2595
   37MOL   H34426336   1.614   1.088   1.680 -1.3409 -1.3379  0.0642
   37MOL   H34526337   1.725   1.291   1.775  2.9516  1.2436  0.5477
   37MOL   H34626338   1.797   1.430   1.882  1.1321  0.0172 -0.4824
   37MOL   H34726339   1.790   1.549   2.120  0.1334  0.8777 -0.0408
   37MOL   H34826340   1.964   1.542   2.100 -0.1090 -1.8593 -0.6049
   37MOL   H34926341   1.951   1.672   1.885  0.6623 -0.7634  1.3255
   37MOL   H35026342   1.849   1.760   1.993 -2.4205  0.7691 -2.5763
   37MOL   H35126343   1.713   1.565   1.800  0.3612 -0.7964  1.3374
   37MOL   H35226344   1.640   1.672   1.908  0.1377 -1.1643  0.6734
   37MOL   H35326345   1.820   1.724   1.685  0.1565  1.3113 -0.9116
   37MOL   H35426346   1.784   1.863   1.788 -0.4806  0.6734 -0.2930
   37MOL   H35526347   1.532   1.843   1.737 -0.3011  0.4312 -0.1572
   37MOL   H35626348   1.565   1.697   1.652 -0.8745  1.1651 -0.7394
   37MOL   H35726349   1.692   1.969   1.560  2.2486 -2.0444 -1.3411
   37MOL   H35826350   1.681   1.820   1.467 -0.3571 -2.1605  0.5812
   37MOL   H35926351   1.466   1.876   1.425 -1.9242 -0.6849  1.4956
   37MOL   H36026352   1.872   1.036   2.092  1.1204 -1.8590 -0.7847
   37MOL   H36126353   1.762   0.847   1.996  0.9279  0.4297 -0.0113
   37MOL   C36226354   1.451   2.048   1.543  0.9656 -0.6305 -0.0670
   37MOL   O36326355   1.492   2.098   1.649 -0.3316 -0.8645 -0.0328
   37MOL   C36426356   1.310   2.082   1.497 -0.1437 -0.5554  0.0426
   37MOL   C36526357   1.260   2.066   1.360  0.5601  0.1017  0.6706
   37MOL   C36626358   1.126   2.086   1.318 -1.0762  0.4193 -0.1475
   37MOL   C36726359   1.040   2.141   1.414 -0.5074 -0.0728 -0.2594
   37MOL   C36826360   0.911   2.194   1.368  0.3811 -0.5023 -0.4724
   37MOL   O36926361   0.898   2.253   1.261  0.5310  0.4671 -0.4347
   37MOL   N37026362   0.802   2.180   1.452 -0.0250 -0.5370  0.4715
   37MOL   C37126363   0.666   2.228   1.417  0.0137  0.5814  0.3759
   37MOL   C37226364   0.562   2.157   1.508 -1.1047  0.7793 -0.0769
   37MOL   C37326365   0.594   2.167   1.657 -0.2578  0.0734 -0.8672
   37MOL   C37426366   0.654   2.036   1.715  0.1326  0.1915  0.6531
   37MOL   C37526367   0.760   2.052   1.823  0.0786  0.0567  0.5980
   37MOL   C37626368   0.752   1.931   1.922 -0.0454  0.1410 -0.1942
   37MOL   N37726369   0.874   1.907   2.003  0.2605 -0.2904  0.0158
   37MOL   C37826370   1.078   2.164   1.549 -0.5722 -0.4161  0.2731
   37MOL   C37926371   1.213   2.126   1.588 -0.4078 -0.1416 -0.0796
   37MOL   H38026372   1.335   2.037   1.287 -1.2290  0.1372 -1.2274
   37MOL   H38126373   1.100   2.074   1.214 -2.5772  0.1597  0.2376
   37MOL   H38226374   0.816   2.136   1.542 -0.2447 -1.8136 -0.1167
   37MOL   H38326375   0.669   2.336   1.432 -0.5627  0.9202 -1.7635
   37MOL   H38426376   0.651   2.216   1.310 -0.3885 -1.7469  0.6804
   37MOL   H38526377   0.559   2.055   1.470 -2.7555  1.0950 -0.8290
   37MOL   H38626378   0.466   2.202   1.486 -1.3757 -0.0232 -0.5517
   37MOL   H38726379   0.661   2.251   1.675 -0.8887  0.4725 -0.3698
   37MOL   H38826380   0.506   2.199   1.714 -0.6077 -1.3389 -0.6072
   37MOL   H38926381   0.676   1.956   1.644 -1.8892 -1.4027  1.7807
   37MOL   H39026382   0.560   1.994   1.749 -0.9433  0.4335 -1.9245
   37MOL   H39126383   0.761   2.146   1.878  1.8449  0.5512 -0.2218
   37MOL   H39226384   0.859   2.064   1.778  1.2253 -1.1326  2.6867
   37MOL   H39326385   0.667   1.933   1.989 -0.5901  2.4348 -0.9282
   37MOL   H39426386   0.721   1.845   1.863 -2.0931  0.4224  0.4523
   37MOL   H39526387   0.958   1.954   1.971 -0.0271  2.0502  2.5665
   37MOL   H39626388   1.023   2.209   1.631 -0.3383  1.6118 -0.6530
   37MOL   H39726389   1.249   2.145   1.688 -0.0504  0.6043 -0.3394
   37MOL   C39826390   0.864   1.839   2.121  0.1014 -0.0192  0.1403
   37MOL   O39926391   0.769   1.782   2.170  0.3416  0.0746  0.4639
   37MOL   C40026392   1.000   1.818   2.184 -0.6783 -0.9394  0.2777
   37MOL   C40126393   1.029   1.693   2.239  0.1803 -0.2359  0.6217
   37MOL   C40226394   1.145   1.671   2.321  0.5141  0.2335  0.3523
   37MOL   C40326395   1.233   1.778   2.346  0.5327  0.7725  0.6203
   37MOL   C40426396   1.362   1.760   2.420  0.2847  0.0257 -0.8972
   37MOL   O40526397   1.422   1.859   2.458  0.4739 -0.6484  0.1850
   37MOL   N40626398   1.409   1.637   2.436  0.3042  0.0340 -0.0906
   37MOL   C40726399   1.521   1.589   2.509 -0.2094  0.0331  0.0615
   37MOL   C40826400   1.489   1.534   2.644 -0.3201 -0.0196  0.2217
   37MOL   C40926401   1.611   1.481   2.726  0.3164  0.1746  0.5936
   37MOL   C41026402   1.581   1.401   2.859 -0.3313 -0.1990  0.0119
   37MOL   C41126403   1.555   1.250   2.840 -0.0323 -0.4281  0.4533
   37MOL   C41226404   1.566   1.171   2.972  0.3578 -0.4330 -0.4380
   37MOL   N41326405   1.548   1.022   2.948  0.5532  0.1578  0.0337
   37MOL   C41426406   1.211   1.904   2.281 -0.0568  0.2844 -0.0186
   37MOL   C41526407   1.090   1.925   2.208 -0.1356 -0.1505 -0.0379
   37MOL   H41626408   0.962   1.610   2.221 -1.5410  1.0528  0.9141
   37MOL   H41726409   1.173   1.577   2.366  0.8438 -0.5480 -1.4407
   37MOL   H41826410   1.351   1.566   2.395  0.5764  0.4717 -1.2602
   37MOL   H41926411   1.585   1.524   2.450 -0.3871  1.5603 -1.8728
   37MOL   H42026412   1.592   1.669   2.530 -1.0905  0.0958  2.9221
   37MOL   H42126413   1.420   1.452   2.629 -1.2391  1.1987 -2.5340
   37MOL   H42226414   1.430   1.607   2.700 -0.1917 -0.3561  0.8049
   37MOL   H42326415   1.682   1.423   2.667  0.3121  0.4175  0.3528
   37MOL   H42426416   1.666   1.572   2.750  3.0077 -1.2429  0.0615
   37MOL   H42526417   1.511   1.450   2.927 -0.9458  1.0855 -1.5037
   37MOL   H42626418   1.674   1.408   2.915  0.2443 -0.2332 -0.9193
   37MOL   H42726419   1.615   1.208   2.759 -0.7323 -0.9783  0.2172
   37MOL   H42826420   1.454   1.219   2.815 -0.2054 -1.2771  2.1552
   37MOL   H42926421   1.668   1.183   3.011  0.5048 -3.1981  0.2083
   37MOL   H43026422   1.502   1.216   3.048  1.8055 -1.3104  1.3575
   37MOL   H43126423   1.559   0.984   2.855  2.9037  0.1302  0.3148
   37MOL   H43226424   1.275   1.987   2.306 -1.2909  1.2774 -0.0878
   37MOL   H43326425   1.071   2.018   2.157 -2.5199 -1.1884 -1.1149
   37MOL   C43426426   1.507   0.937   3.041  0.6066 -0.9745 -0.0419
   37MOL   O43526427   1.487   0.978   3.150  0.1113 -0.1593 -0.3997
   37MOL   C43626428   1.478   0.797   3.014  0.1328  0.2945 -0.1233
   37MOL   C43726429   1.503   0.696   3.107  0.5278  0.1996  0.2984
   37MOL   C43826430   1.472   0.561   3.081 -0.5167  0.3755  0.5951
   37MOL   C43926431   1.402   0.528   2.960  1.0305 -0.5313 -1.2321
   37MOL   C44026432   1.355   0.390   2.925 -0.3458 -0.0105 -0.6989
   37MOL   O44126433   1.376   0.337   2.814  0.3940 -0.4877 -0.0724
   37MOL   N44226434   1.289   0.328   3.021  0.0600 -0.6758 -0.0613
   37MOL   C44326435   1.238   0.195   3.005  0.2584 -0.2819 -0.7927
   37MOL   C44426436   1.100   0.186   2.927  0.0403  0.1309  0.0726
   37MOL   C44526437   0.979   0.243   2.992  0.0879 -0.3241 -0.6430
   37MOL   C44626438   0.842   0.199   2.937  0.3843  0.0748 -0.7198
   37MOL   C44726439   0.728   0.276   2.997  0.3636 -0.4250 -0.6394
   37MOL   C44826440   0.592   0.199   2.969 -0.9621  0.0817  0.4568
   37MOL   N44926441   0.485   0.268   3.035  0.1639 -0.2415  0.2097
   37MOL   C45026442   1.375   0.637   2.865  0.5036 -0.8817  0.3520
   37MOL   C45126443   1.424   0.768   2.889 -0.7387 -0.0870 -0.9246
   37MOL   H45226444   1.544   0.715   3.205 -0.8972 -0.5462  1.0672
   37MOL   H45326445   1.509   0.483   3.147  0.4283  0.6115  0.3588
   37MOL   H45426446   1.276   0.378   3.108 -1.4029 -1.5555  0.2465
   37MOL   H45526447   1.313   0.140   2.948  0.2396 -0.1656 -0.9300
   37MOL   H45626448   1.224   0.165   3.109  0.5305  1.5210 -0.1991
   37MOL   H45726449   1.074   0.080   2.932 -0.4679  0.1538 -1.7001
   37MOL   H45826450   1.107   0.207   2.820 -1.1043  0.0790 -0.0115
   37MOL   H45926451   0.981   0.230   3.101 -1.0027  1.0353 -0.4403
   37MOL   H46026452   0.979   0.352   2.985 -1.6547 -0.3190 -0.7109
   37MOL   H46126453   0.836   0.095   2.971  3.7261  0.8107  2.3098
   37MOL   H46226454   0.828   0.204   2.829 -1.5563  0.6075 -0.4577
   37MOL   H46326455   0.734   0.381   2.968 -3.6751  0.4759  1.3725
   37MOL   H46426456   0.752   0.275   3.103 -0.2672  1.0108 -0.4657
   37MOL   H46526457   0.579   0.198   2.861  1.5630  2.2950  0.0642
   37MOL   H46626458   0.596   0.094   2.998 -2.1182  0.0005  0.3478
   37MOL   H46726459   0.468   0.240   3.131  2.6764  0.2748  0.8323
   37MOL   H46826460   1.332   0.627   2.766  0.6555 -0.6535  0.2637
   37MOL   H46926461   1.410   0.838   2.808 -0.1717  0.8326 -0.2357
   37MOL   C47026462   0.430   0.388   2.995 -0.3012  0.3340  0.3513
   37MOL   O47126463   0.450   0.448   2.891 -0.0272 -0.7935  0.1986
   37MOL   C47226464   0.323   0.447   3.079  0.1250 -0.3192 -0.5979
   37MOL   C47326465   0.208   0.510   3.024 -0.1094  0.5087 -0.9657
   37MOL   C47426466   0.114   0.566   3.113 -0.4916  0.6527 -0.0563
   37MOL   C47526467   0.144   0.576   3.254  0.0315 -0.1000  0.6296
   37MOL   C47626468   0.049   0.648   3.352 -0.2955  0.0843 -0.2519
   37MOL   O47726469   0.096   0.689   3.452 -0.0350 -0.1670 -0.1011
   37MOL   N47826470   7.808   0.630   3.335  0.6424 -0.3486  0.1615
   37MOL   C47926471   7.708   0.645   3.434 -1.0240 -0.6625 -0.0183
   37MOL   C48026472   7.568   0.602   3.399  0.7780  0.8575  0.6382
   37MOL   C48126473   7.467   0.631   3.514  0.1937 -0.1911  0.2611
   37MOL   C48226474   7.343   0.547   3.501 -0.7156  0.1861 -0.5375
   37MOL   C48326475   7.224   0.580   3.588  0.3260 -0.3583 -0.5704
   37MOL   C48426476   7.098   0.482   3.582  0.4750 -0.4894 -0.1682
   37MOL   N48526477   7.127   0.343   3.600  0.2220  0.2593  0.3279
   37MOL   C48626478   0.269   0.527   3.303 -0.2615  0.2368  0.1252
   37MOL   C48726479   0.357   0.456   3.220 -1.2268 -0.6736 -0.8057
   37MOL   H48826480   0.195   0.507   2.917 -2.3864 -2.6785 -0.6935
   37MOL   H48926481   0.022   0.609   3.079  0.0694  1.1446 -0.9680
   37MOL   H49026482   7.768   0.598   3.248  1.1057  0.6164 -0.4013
   37MOL   H49126483   7.730   0.604   3.533 -0.8958  0.9479  0.6358
   37MOL   H49226484   7.718   0.750   3.463 -3.3887 -0.8913  1.7961
   37MOL   H49326485   7.557   0.496   3.376  2.4823  0.6376  0.7970
   37MOL   H49426486   7.534   0.662   3.314 -0.3438  0.8602  1.0877
   37MOL   H49526487   7.514   0.628   3.612 -1.1528  2.0009  1.0107
   37MOL   H49626488   7.445   0.737   3.501 -2.4246 -0.7358 -0.0805
   37MOL   H49726489   7.370   0.445   3.529 -0.3961  0.2495 -0.6247
   37MOL   H49826490   7.303   0.557   3.400 -1.1180  0.3929 -0.3613
   37MOL   H49926491   7.193   0.680   3.558 -0.1339  0.0760  1.2645
   37MOL   H50026492   7.257   0.591   3.691 -2.1462  0.5811  0.1623
   37MOL   H50126493   7.024   0.501   3.659  1.1740 -1.1081  0.6688
   37MOL   H50226494   7.048   0.493   3.486 -0.0331 -0.1204  0.1380
   37MOL   H50326495   7.165   0.293   3.522  1.8602  1.8072  0.0862
   37MOL   H50426496   0.299   0.536   3.406  0.2259  0.0368 -0.0023
   37MOL   H50526497   0.446   0.417   3.267 -2.9394 -1.0283  2.2885
   37MOL   C50626498   7.119   0.269   3.709 -0.1047  0.2791 -0.2247
   37MOL   O50726499   7.056   0.314   3.807 -0.3135 -0.8619 -0.1419
   37MOL   C50826500   7.173   0.131   3.699 -0.2429  1.2778  0.4581
   37MOL   C50926501   7.127   0.030   3.787 -0.0035  0.6437 -0.2339
   37MOL   C51026502   7.164   7.779   3.775  0.4335  0.3453 -0.6159
   37MOL   C51126503   7.263   7.745   3.678 -0.4780 -0.5070  0.5147
   37MOL   C51226504   7.313   7.602   3.666  0.5371  0.0764  0.8421
   37MOL   O51326505   7.435   7.579   3.654 -0.6376  0.1395  0.1586
   37MOL   N51426506   7.221   7.508   3.657 -0.3488  0.1702 -0.2537
   37MOL   C51526507   7.253   7.367   3.631 -0.1547  0.1914 -0.4552
   37MOL   C51626508   7.219   7.319   3.497  0.1852  0.1379 -1.1140
   37MOL   C51726509   7.264   7.180   3.476  0.4371  0.0249  0.0074
   37MOL   C51826510   7.176   7.077   3.541  0.5619 -0.3496 -0.3039
   37MOL   C51926511   7.206   6.928   3.504  0.0595  0.4194 -0.4191
   37MOL   C52026512   7.108   6.828   3.570 -0.0486 -0.6694  0.5855
   37MOL   N52126513   7.144   6.688   3.536 -0.3592 -0.5767  0.4123
   37MOL   C52226514   7.315   7.842   3.593  0.0234  0.3278  0.3439
   37MOL   C52326515   7.269   0.090   3.605  0.5979  0.0064 -0.4280
   37MOL   H52426516   7.048   0.052   3.857 -0.0909  1.0623 -0.4634
   37MOL   H52526517   7.133   7.702   3.845 -0.6565  0.3192 -1.1240
   37MOL   H52626518   7.124   7.524   3.680 -0.4709  0.0324 -0.6742
   37MOL   H52726519   7.361   7.350   3.639 -0.1441  0.2625 -0.4491
   37MOL   H52826520   7.198   7.303   3.699  1.8356 -2.0108 -0.8305
   37MOL   H52926521   7.269   7.384   3.425  2.0326 -1.2698 -1.1263
   37MOL   H53026522   7.114   7.345   3.478 -0.2576 -0.7846  0.0131
   37MOL   H53126523   7.280   7.164   3.370 -0.0006  1.1947 -0.2511
   37MOL   H53226524   7.363   7.146   3.507 -0.2478 -2.6106 -0.6063
   37MOL   H53326525   7.069   7.085   3.521  0.3734 -1.2041  0.3210
   37MOL   H53426526   7.188   7.078   3.650  4.1498 -0.1026 -0.6437
   37MOL   H53526527   7.307   6.913   3.543  0.7454  1.2783 -1.8170
   37MOL   H53626528   7.214   6.922   3.396  1.0202  1.0537 -0.3895
   37MOL   H53726529   7.104   6.841   3.679  1.5940 -1.3032  0.7286
   37MOL   H53826530   7.008   6.850   3.535  1.4326  2.0645 -2.1319
   37MOL   H53926531   7.238   6.664   3.506 -0.5448 -0.0858 -0.6005
   37MOL   H54026532   7.396   7.814   3.527  1.1498 -0.1926  1.9135
   37MOL   H54126533   7.315   0.161   3.538  3.1750 -1.1516  0.0747
   37MOL   C54226534   7.062   6.586   3.557  0.6400  0.3126  0.3998
   37MOL   O54326535   6.941   6.609   3.577 -0.4142 -0.3570  0.3796
   37MOL   C54426536   7.117   6.447   3.556  0.2571 -0.4781 -0.9506
   37MOL   C54526537   7.234   6.429   3.632 -0.6516  0.4124 -0.0331
   37MOL   C54626538   7.296   6.302   3.638 -0.3823  0.1903  0.7161
   37MOL   C54726539   7.231   6.195   3.577 -0.4714  0.2637 -0.0824
   37MOL   C54826540   7.283   6.050   3.595  0.0177  0.5417 -0.3482
   37MOL   O54926541   7.407   6.023   3.597 -0.2133 -0.1988  0.8010
   37MOL   N55026542   7.185   5.957   3.623  0.5596  0.0021 -0.4001
   37MOL   C55126543   7.194   5.813   3.649 -0.1867  0.0726  0.4346
   37MOL   C55226544   7.116   5.742   3.528 -0.5849  0.6210  0.4431
   37MOL   C55326545   6.961   5.760   3.533 -0.8503 -0.1015  0.4444
   37MOL   C55426546   6.888   5.652   3.449 -0.3421 -0.1812  0.0472
   37MOL   C55526547   6.732   5.670   3.453  0.1658 -0.2943 -0.1667
   37MOL   C55626548   6.679   5.557   3.372  0.1859 -0.2630  0.3995
   37MOL   N55726549   6.551   5.586   3.327 -0.1014 -0.3378 -0.0996
   37MOL   C55826550   7.112   6.217   3.499  0.3157 -0.1590  0.0919
   37MOL   C55926551   7.052   6.346   3.485  0.1986  0.2604 -0.3691
   37MOL   H56026552   7.285   6.503   3.691 -2.0792  2.3945 -1.2169
   37MOL   H56126553   7.385   6.287   3.697  0.4945 -1.3810 -0.9654
   37MOL   H56226554   7.093   5.996   3.611  0.0312 -1.1458 -0.1426
   37MOL   H56326555   7.294   5.773   3.666 -0.3695  0.5144  2.8072
   37MOL   H56426556   7.147   5.787   3.744  0.7645 -2.5931  0.2059
   37MOL   H56526557   7.138   5.635   3.537  1.6433  1.0111 -0.0787
   37MOL   H56626558   7.161   5.776   3.434 -0.9470  2.5715  0.9636
   37MOL   H56726559   6.936   5.755   3.639  2.0021 -0.1530  1.1552
   37MOL   H56826560   6.936   5.864   3.511 -1.1538  0.0456  1.4513
   37MOL   H56926561   6.906   5.551   3.487  1.4178 -0.6185 -1.8725
   37MOL   H57026562   6.935   5.639   3.352 -0.7708 -2.4401  0.1089
   37MOL   H57126563   6.708   5.764   3.403  1.1295  0.3402  0.5510
   37MOL   H57226564   6.699   5.664   3.557  1.0186 -0.2727  0.1040
   37MOL   H57326565   6.732   5.561   3.277  1.2355 -2.0463  0.8911
   37MOL   H57426566   6.699   5.458   3.412 -0.0647  0.1358  1.5408
   37MOL   H57526567   6.501   5.672   3.347  1.5215  0.5105  0.4089
   37MOL   H57626568   7.071   6.141   3.435  2.3901 -2.2382  1.1569
   37MOL   H57726569   6.959   6.361   3.433 -0.8122  0.4955  1.4616
   37MOL   C57826570   6.481   5.498   3.249  0.0741  0.6811 -0.7335
   37MOL   O57926571   6.522   5.384   3.216  0.2528  0.3224 -0.1590
   37MOL   C58026572   6.352   5.546   3.195  0.1677  0.7838  0.4917
   37MOL   C58126573   6.289   5.657   3.255  0.5004 -0.3565 -0.2853
   37MOL   C58226574   6.168   5.712   3.199  0.5941  0.5177 -0.0482
   37MOL   C58326575   6.102   5.643   3.092 -0.3599 -0.0098  0.4470
   37MOL   C58426576   5.974   5.693   3.029  0.3642 -0.1783 -0.8442
   37MOL   O58526577   5.921   5.644   2.926  0.5713 -0.1094  0.6398
   37MOL   N58626578   5.927   5.804   3.084  0.0410 -0.4295  0.1791
   37MOL   C58726579   5.802   5.860   3.050 -0.7943  0.3209 -0.4064
   37MOL   C58826580   5.776   6.001   3.105  0.1155 -0.2189  0.0763
   37MOL   C58926581   5.803   6.011   3.253 -0.0055 -0.1307  0.0224
   37MOL   C59026582   5.749   6.147   3.311 -0.0859 -0.8953  0.1938
   37MOL   C59126583   5.757   6.159   3.472 -0.4863  0.1443  0.8651
   37MOL   C59226584   5.903   6.141   3.528 -0.8894  0.6146  0.6912
   37MOL   N59326585   5.898   6.166   3.676  0.0653  0.0402  0.1620
   37MOL   C59426586   6.168   5.531   3.036  0.2923  0.3166  0.2878
   37MOL   C59526587   6.291   5.484   3.084  0.3263 -0.5330 -0.2842
   37MOL   H59626588   6.328   5.702   3.345 -1.7300  1.0348  0.0093
   37MOL   H59726589   6.124   5.802   3.240  0.5524  0.6675 -0.4248
   37MOL   H59826590   5.987   5.852   3.149 -0.9777  0.0267  0.7878
   37MOL   H59926591   5.801   5.875   2.942 -0.7162  0.1895 -0.4254
   37MOL   H60026592   5.722   5.798   3.090  0.6802 -0.4426  1.4720
   37MOL   H60126593   5.672   6.027   3.085  0.5044  0.9535 -0.4639
   37MOL   H60226594   5.845   6.069   3.055 -1.0595 -0.7773 -2.3734
   37MOL   H60326595   5.751   5.929   3.304 -1.6624  1.0731  0.3011
   37MOL   H60426596   5.909   5.997   3.274  0.6795 -0.6217 -3.5047
   37MOL   H60526597   5.647   6.168   3.280  0.0638 -0.4960 -0.0380
   37MOL   H60626598   5.786   6.235   3.257 -2.1967 -0.7785 -1.1251
   37MOL   H60726599   5.694   6.082   3.515 -0.1850 -1.1167 -0.8670
   37MOL   H60826600   5.712   6.253   3.503  0.5006  1.2143 -0.8109
   37MOL   H60926601   5.947   6.044   3.506 -1.5997  0.5815 -0.6754
   37MOL   H61026602   5.981   6.207   3.489 -0.4573  0.8679  1.9768
   37MOL   H61126603   5.929   6.255   3.712 -0.3947  0.5503 -0.6901
   37MOL   H61226604   6.130   5.482   2.947  1.3449 -0.1936  0.1176
   37MOL   H61326605   6.356   5.411   3.038  1.3457 -1.3767  2.4088
   37MOL   C61426606   5.857   6.077   3.763 -0.5863  0.1495 -0.8415
   37MOL   O61526607   5.817   5.964   3.731  0.0903 -0.5310 -0.2694
   37MOL   C61626608   5.858   6.120   3.909  0.6503  0.9454  0.1354
   37MOL   C61726609   5.960   6.204   3.966  0.3873 -0.2049  0.5269
   37MOL   C61826610   5.967   6.227   4.105 -0.3976  0.0497  0.3035
   37MOL   C61926611   5.873   6.167   4.190  0.0862  0.9824 -0.1515
   37MOL   C62026612   5.883   6.182   4.339 -0.0361 -0.1795  0.6682
   37MOL   O62126613   5.960   6.254   4.395 -0.0593  0.3101 -0.1910
   37MOL   N62226614   5.785   6.119   4.408 -0.1439  0.1216 -0.2863
   37MOL   C62326615   5.776   6.113   4.554 -0.3075  0.1350  0.0782
   37MOL   C62426616   5.703   5.985   4.599  0.3555 -0.2121 -0.0198
   37MOL   C62526617   5.700   5.968   4.750 -0.0576 -0.1992  0.0303
   37MOL   C62626618   5.678   5.824   4.798  0.9057 -0.5871  0.4245
   37MOL   C62726619   5.687   5.821   4.952 -0.0473 -0.5630 -0.3753
   37MOL   C62826620   5.694   5.679   5.021 -0.5185  0.9967  0.1353
   37MOL   N62926621   5.790   5.593   4.945  0.8083  0.3403 -0.4942
   37MOL   C63026622   5.771   6.081   4.132  0.6481  0.4537 -0.3015
   37MOL   C63126623   5.767   6.060   3.993 -0.2281 -0.5742 -0.5914
   37MOL   H63226624   6.034   6.239   3.895  2.2108 -2.1700  1.3983
   37MOL   H63326625   6.044   6.291   4.148 -2.6449  2.8750  0.2497
   37MOL   H63426626   5.733   6.053   4.352 -0.7976  0.8087 -0.4892
   37MOL   H63526627   5.875   6.117   4.601 -1.1879 -1.4731  2.1860
   37MOL   H63626628   5.719   6.197   4.592  0.1778 -0.8576  3.1767
   37MOL   H63726629   5.740   5.895   4.550 -3.7683 -0.9562 -1.9276
   37MOL   H63826630   5.600   5.997   4.566  0.8022  1.6894 -0.8156
   37MOL   H63926631   5.796   6.000   4.790 -0.7789  3.2770 -0.8111
   37MOL   H64026632   5.625   6.034   4.794 -1.5236 -0.5843 -1.8119
   37MOL   H64126633   5.751   5.755   4.755 -1.2825 -2.8940  0.3017
   37MOL   H64226634   5.590   5.776   4.755  0.2401 -0.3805  1.5269
   37MOL   H64326635   5.609   5.886   4.990 -1.4844 -1.2808 -2.0269
   37MOL   H64426636   5.781   5.874   4.966  0.5864 -1.1469 -2.2918
   37MOL   H64526637   5.711   5.685   5.129 -1.1041 -1.3988  0.3834
   37MOL   H64626638   5.594   5.637   5.011  0.3996 -0.9588 -1.0536
   37MOL   H64726639   5.860   5.636   4.886  1.2771  0.7921  0.3820
   37MOL   H64826640   5.701   6.025   4.192 -0.3087  0.6950 -1.1707
   37MOL   H64926641   5.690   5.994   3.956  3.2302 -3.4364 -3.0615
   37MOL   C65026642   5.810   5.461   4.969 -0.2530 -0.2004 -0.3122
   37MOL   O65126643   5.740   5.399   5.055  0.0706  0.1998  0.3049
   37MOL   C65226644   5.922   5.396   4.893 -0.2193  0.0673 -0.0351
   37MOL   C65326645   5.985   5.461   4.785 -0.0845  0.4317  0.1867
   37MOL   C65426646   6.077   5.395   4.708 -0.4564  0.3647  0.4645
   37MOL   C65526647   6.119   5.260   4.732  0.5022 -0.1569  0.2487
   37MOL   C65626648   6.213   5.184   4.641  0.7446 -0.2400 -0.4631
   37MOL   O65726649   6.293   5.106   4.686 -0.5291  0.3530 -0.1213
   37MOL   N65826650   6.195   5.217   4.513 -0.6340 -0.3609 -0.2623
   37MOL   C65926651   6.237   5.131   4.405  0.4454  0.9260  0.2114
   37MOL   C66026652   6.382   5.148   4.387 -0.2946  0.4362 -0.2942
   37MOL   C66126653   6.430   5.064   4.270  0.0794  0.5273 -0.1142
   37MOL   C66226654   6.572   5.091   4.230 -0.6187  0.2822 -0.0864
   37MOL   C66326655   6.622   4.984   4.123 -0.3172 -0.2174 -0.2754
   37MOL   C66426656   6.732   5.039   4.036  0.0005 -0.3319  0.4011
   37MOL   N66526657   6.853   5.055   4.116 -0.3559 -0.3919 -0.3036
   37MOL   C66626658   6.065   5.201   4.844 -0.1746 -0.0002  0.2061
   37MOL   C66726659   5.961   5.264   4.918  0.5843  0.6761 -0.5215
   37MOL   H66826660   5.938   5.552   4.750  1.8065  1.2374 -0.3226
   37MOL   H66926661   6.116   5.456   4.628  1.1237  1.6371  2.1680
   37MOL   H67026662   6.131   5.293   4.493  0.5311  1.5338  2.8052
   37MOL   H67126663   6.203   5.031   4.431  1.6718  0.0986 -1.3050
   37MOL   H67226664   6.173   5.156   4.320  1.0005  0.0272 -0.4834
   37MOL   H67326665   6.438   5.115   4.475  1.3195 -1.6100 -2.0336
   37MOL   H67426666   6.404   5.252   4.363 -2.6283  0.3900 -2.9143
   37MOL   H67526667   6.416   4.958   4.291  0.5006  0.8722  2.0414
   37MOL   H67626668   6.366   5.087   4.185 -0.3030  0.4771  0.1581
   37MOL   H67726669   6.646   5.082   4.310 -0.4176  1.3439 -0.1458
   37MOL   H67826670   6.585   5.196   4.204  1.2011  0.8679  2.9321
   37MOL   H67926671   6.537   4.968   4.055 -1.9381 -1.1570  1.9046
   37MOL   H68026672   6.648   4.887   4.164  2.2524  1.1355  1.4097
   37MOL   H68126673   6.760   4.978   3.949 -0.6545 -1.6612  1.1076
   37MOL   H68226674   6.700   5.132   3.988 -1.3309 -1.4913 -1.0130
   37MOL   H68326675   6.902   4.973   4.149  0.1330  0.0918  0.1743
   37MOL   H68426676   6.089   5.105   4.886 -1.2586 -0.3718 -0.0142
   37MOL   H68526677   5.911   5.216   5.001 -0.0991  2.2103 -0.0222
   37MOL   C68626678   6.918   5.175   4.135 -0.8821 -0.4721 -0.1161
   37MOL   O68726679   6.884   5.276   4.073 -0.2188 -0.2633  0.5742
   37MOL   C68826680   7.045   5.176   4.212  0.4276  0.2343  0.2055
   37MOL   C68926681   7.038   5.109   4.335  0.4863  0.3728  0.4373
   37MOL   C69026682   7.151   5.124   4.422  0.2248  0.1804 -0.9606
   37MOL   C69126683   7.266   5.190   4.376  0.3500 -0.0991  0.0675
   37MOL   C69226684   7.390   5.194   4.458 -0.6325  0.5827  0.1193
   37MOL   O69326685   7.500   5.182   4.400 -0.1309  0.4492 -0.1675
   37MOL   N69426686   7.368   5.200   4.586  0.1436 -0.7298 -0.0711
   37MOL   C69526687   7.479   5.194   4.680  0.1422 -0.2715  0.5524
   37MOL   C69626688   7.560   5.323   4.704 -0.2629 -0.3365 -0.9531
   37MOL   C69726689   7.479   5.444   4.735  0.5385 -0.2107  0.0077
   37MOL   C69826690   7.553   5.572   4.754 -0.1658  0.2290 -0.2408
   37MOL   C69926691   7.605   5.625   4.616  0.3811 -0.0070  0.5704
   37MOL   C70026692   7.712   5.733   4.637 -0.3861  0.0847  0.1001
   37MOL   N70126693   7.729   5.820   4.518  0.0702 -0.2507 -0.1550
   37MOL   C70226694   7.275   5.246   4.246  0.2148 -0.2794 -0.0396
   37MOL   C70326695   7.160   5.241   4.166  0.1808  0.7829 -0.1111
   37MOL   H70426696   6.937   5.076   4.357  0.5068 -0.3230 -0.4731
   37MOL   H70526697   7.150   5.080   4.521 -2.2622  1.4481 -0.3734
   37MOL   H70626698   7.286   5.253   4.612 -0.2943 -1.3586 -0.1477
   37MOL   H70726699   7.441   5.161   4.777 -2.2142 -1.7447 -0.8272
   37MOL   H70826700   7.556   5.119   4.657  0.0766  0.3507 -1.7283
   37MOL   H70926701   7.625   5.351   4.621  0.3599  0.9698 -0.0389
   37MOL   H71026702   7.641   5.305   4.775  0.2598  0.2586 -1.3910
   37MOL   H71126703   7.405   5.458   4.656  1.6645 -1.2677 -1.2537
   37MOL   H71226704   7.421   5.421   4.825  2.1793 -0.4143  1.0381
   37MOL   H71326705   7.638   5.557   4.821  1.0003 -2.1107 -2.1310
   37MOL   H71426706   7.496   5.651   4.803 -1.1771 -0.8963  0.4269
   37MOL   H71526707   7.515   5.658   4.564 -0.6463 -1.4526  1.3834
   37MOL   H71626708   7.646   5.545   4.553  1.3689  1.0641 -0.1715
   37MOL   H71726709   7.702   5.805   4.717  0.7847 -1.5486  1.7695
   37MOL   H71826710   7.806   5.680   4.656 -0.7660 -0.4439  0.5364
   37MOL   H71926711   7.646   5.875   4.504 -0.3471 -0.1875  2.3485
   37MOL   H72026712   7.360   5.305   4.215 -0.2711  0.1823 -0.5026
   37MOL   H72126713   7.168   5.291   4.071  1.3411  0.5034 -0.1694
   37MOL   H72226714   7.740   5.762   4.436  2.8866 -1.6952  1.1572
   38MOL     C126715   2.515   4.684   5.594 -0.4104  1.0207 -0.6229
   38MOL     O226716   2.571   4.659   5.484  0.1655  0.2766 -0.4127
   38MOL     C326717   2.581   4.667   5.717 -0.5517 -0.3721  0.6906
   38MOL     C426718   2.507   4.654   5.837 -0.3105 -0.5021 -0.9191
   38MOL     C526719   2.585   4.636   5.958  0.9292  0.5438 -0.1511
   38MOL     C626720   2.724   4.633   5.960 -0.3302 -0.5404  0.3597
   38MOL     C726721   2.802   4.626   6.089 -0.1259 -0.2943 -0.3084
   38MOL     O826722   2.906   4.685   6.106 -0.2245  0.6073  0.2932
   38MOL     N926723   2.748   4.555   6.186 -0.1381  0.1188  0.3129
   38MOL    C1026724   2.795   4.536   6.332  0.3401 -0.0868 -0.7356
   38MOL    C1126725   2.896   4.434   6.353 -0.5595 -0.0012 -0.2949
   38MOL    C1226726   2.886   4.297   6.284 -0.4450 -0.2550 -0.2039
   38MOL    C1326727   2.983   4.288   6.161 -0.0808 -0.1720 -0.4342
   38MOL    C1426728   2.959   4.158   6.078  0.4487 -0.0642 -0.5403
   38MOL    C1526729   3.038   4.153   5.947  0.3308 -0.0629 -0.3312
   38MOL    N1626730   3.003   4.252   5.853  0.1682  0.1110 -0.5465
   38MOL    C1726731   2.789   4.660   5.840 -0.9865  0.6762 -0.1845
   38MOL    C1826732   2.723   4.677   5.719  1.1174  0.5825  0.0678
   38MOL    H1926733   2.399   4.653   5.836 -0.4454  2.3325  2.3079
   38MOL    H2026734   2.536   4.634   6.054  0.3273  3.0495 -0.3585
   38MOL    H2126735   2.689   4.479   6.155  0.5777 -0.0095 -0.7446
   38MOL    H2226736   2.827   4.622   6.391 -0.1774  1.1153 -2.1935
   38MOL    H2326737   2.707   4.496   6.383  0.0122  1.2058 -0.2695
   38MOL    H2426738   2.915   4.427   6.460  0.9205 -3.4351 -0.6933
   38MOL    H2526739   2.994   4.472   6.322 -1.1066  0.1691 -1.8542
   38MOL    H2626740   2.919   4.225   6.359 -0.4559 -0.6488 -0.5750
   38MOL    H2726741   2.784   4.269   6.262 -0.5745  0.6889 -0.8280
   38MOL    H2826742   3.089   4.289   6.188 -0.1195 -1.6988 -0.1698
   38MOL    H2926743   2.978   4.374   6.094  2.6840  1.9204  1.9307
   38MOL    H3026744   2.856   4.152   6.042 -1.3150 -1.1929  4.4042
   38MOL    H3126745   2.977   4.065   6.131 -2.0446 -1.5987 -2.2925
   38MOL    H3226746   3.139   4.180   5.978  0.1946  1.1886 -0.9621
   38MOL    H3326747   3.030   4.055   5.898  2.5343 -0.2501 -0.3614
   38MOL    H3426748   2.916   4.233   5.806 -1.2103 -0.8396  2.2498
   38MOL    H3526749   2.897   4.662   5.833 -1.0480 -0.1333 -1.4771
   38MOL    H3626750   2.781   4.686   5.628  0.3929  3.3506 -0.1595
   38MOL    H3726751   2.409   4.709   5.591 -0.9535 -1.2034 -0.1924
   38MOL    C3826752   3.078   4.355   5.796  0.0892 -0.0748 -0.2406
   38MOL    O3926753   3.177   4.407   5.855 -0.2007 -0.0699 -1.2505
   38MOL    C4026754   3.022   4.406   5.671 -0.6106  0.1501 -0.0217
   38MOL    C4126755   3.082   4.516   5.612 -0.1735 -0.2117 -0.0700
   38MOL    C4226756   3.031   4.574   5.495  0.0649  0.3682  0.3484
   38MOL    C4326757   2.916   4.518   5.431  0.3821 -0.3662 -0.5129
   38MOL    C4426758   2.864   4.586   5.311 -0.5832  0.0094  0.6176
   38MOL    O4526759   2.895   4.701   5.282  0.3275  0.1138 -0.0336
   38MOL    N4626760   2.775   4.511   5.233 -0.7913 -0.3992 -0.3250
   38MOL    C4726761   2.718   4.540   5.092 -0.3139  0.5503 -0.3455
   38MOL    C4826762   2.579   4.606   5.093  0.8764  0.7036 -0.2425
   38MOL    C4926763   2.523   4.632   4.956 -0.0868 -0.2597  0.5579
   38MOL    C5026764   2.508   4.784   4.918 -0.2995 -0.4363  0.7057
   38MOL    C5126765   2.622   4.829   4.826 -0.7112 -0.0579  0.7684
   38MOL    C5226766   2.588   4.960   4.765  0.0542 -0.1907  0.4375
   38MOL    N5326767   2.690   5.015   4.674 -0.1869  0.0276  0.2368
   38MOL    C5426768   2.855   4.408   5.491 -0.4173  0.4045 -0.1002
   38MOL    C5526769   2.908   4.347   5.607  0.2038 -0.7710 -0.2316
   38MOL    H5626770   3.166   4.558   5.666  0.7013  0.4552 -1.8998
   38MOL    H5726771   3.083   4.663   5.463 -0.1210  0.1444 -0.5971
   38MOL    H5826772   2.752   4.421   5.273  0.0896  0.1218  1.3978
   38MOL    H5926773   2.792   4.610   5.051  0.7064  1.3476  2.7274
   38MOL    H6026774   2.714   4.447   5.034 -1.5351 -0.4104  1.2532
   38MOL    H6126775   2.590   4.703   5.142  0.9229  0.3999  0.3491
   38MOL    H6226776   2.527   4.541   5.162  1.4156 -0.8337 -1.2692
   38MOL    H6326777   2.574   4.578   4.877  0.8772  2.6409 -0.8610
   38MOL    H6426778   2.423   4.588   4.953 -0.4656  0.6644 -1.3168
   38MOL    H6526779   2.505   4.843   5.009 -0.6328 -0.0013  0.4146
   38MOL    H6626780   2.410   4.802   4.874  0.1281 -0.8520 -0.4321
   38MOL    H6726781   2.633   4.757   4.745  0.4068 -1.3687  2.0593
   38MOL    H6826782   2.710   4.834   4.891  2.4225 -0.1966 -3.3127
   38MOL    H6926783   2.497   4.946   4.707  0.3166 -0.3701  0.0679
   38MOL    H7026784   2.589   5.041   4.839 -1.0911 -1.1988  1.5856
   38MOL    H7126785   2.680   4.982   4.579 -1.2874  2.0597 -0.3774
   38MOL    H7226786   2.762   4.372   5.449 -0.3013  0.5796 -0.5073
   38MOL    H7326787   2.863   4.257   5.645  0.4995 -0.8555 -0.0781
   38MOL    C7426788   2.792   5.094   4.698 -0.9031  0.7822 -0.1130
   38MOL    O7526789   2.806   5.146   4.813  0.0202  0.3812 -0.6076
   38MOL    C7626790   2.884   5.125   4.584 -0.1618  0.7419  0.5703
   38MOL    C7726791   2.945   5.250   4.570  0.4982  0.1308 -0.5882
   38MOL    C7826792   3.025   5.277   4.455  0.1405  0.2659 -0.2542
   38MOL    C7926793   3.047   5.179   4.359  0.7135 -0.3405  0.0586
   38MOL    C8026794   3.132   5.212   4.240 -0.2204  0.2365 -0.1403
   38MOL    O8126795   3.149   5.129   4.152  0.3482 -0.1552  0.1778
   38MOL    N8226796   3.203   5.331   4.245 -0.3144  0.6613  0.1346
   38MOL    C8326797   3.307   5.355   4.148  0.3210  0.3261 -0.1615
   38MOL    C8426798   3.253   5.452   4.041 -0.4430 -0.2301 -0.5561
   38MOL    C8526799   3.355   5.439   3.920  0.3747 -0.3365  0.9177
   38MOL    C8626800   3.326   5.543   3.807 -0.4501  0.1067  0.3639
   38MOL    C8726801   3.185   5.529   3.751 -0.2167  1.0491  0.6784
   38MOL    C8826802   3.141   5.603   3.629 -0.1821 -0.3499 -0.0403
   38MOL    N8926803   3.212   5.564   3.507 -0.6993 -0.1448  0.1734
   38MOL    C9026804   2.996   5.050   4.382 -0.5087 -0.0107 -0.2692
   38MOL    C9126805   2.915   5.024   4.490  0.2605 -0.0116  0.2402
   38MOL    H9226806   2.922   5.328   4.640  1.8341 -0.4780  0.5589
   38MOL    H9326807   3.048   5.382   4.444 -2.2046  1.0534  1.7536
   38MOL    H9426808   3.191   5.390   4.326 -2.4321 -1.2981  1.3283
   38MOL    H9526809   3.382   5.402   4.212  1.6771 -0.5596 -1.0663
   38MOL    H9626810   3.353   5.262   4.115  0.7137  0.3791  0.2381
   38MOL    H9726811   3.248   5.553   4.080  1.9082 -0.1380 -0.3698
   38MOL    H9826812   3.154   5.418   4.010  0.8522 -2.9064 -1.9555
   38MOL    H9926813   3.457   5.468   3.948  1.0740 -0.5650 -1.2242
   38MOL   H10026814   3.359   5.343   3.869  1.1499  0.4315 -0.5212
   38MOL   H10126815   3.397   5.523   3.726 -0.4906 -1.8849  0.7961
   38MOL   H10226816   3.333   5.642   3.850 -1.5870  1.8415 -3.2352
   38MOL   H10326817   3.104   5.548   3.822 -0.9255 -1.0227  0.4475
   38MOL   H10426818   3.173   5.422   3.737 -1.3537  1.1599  0.7122
   38MOL   H10526819   3.035   5.586   3.614 -0.3264  0.4175  0.1287
   38MOL   H10626820   3.159   5.706   3.659  2.4459 -0.5866 -0.6554
   38MOL   H10726821   3.189   5.474   3.468  1.0178 -0.9068  0.8655
   38MOL   H10826822   3.008   4.981   4.300  0.1668  1.5145 -1.4532
   38MOL   H10926823   2.878   4.924   4.502 -0.1628  0.2129  0.8122
   38MOL   C11026824   3.317   5.626   3.450  0.0664 -0.3191 -0.3995
   38MOL   O11126825   3.353   5.734   3.491 -0.5274 -0.6325 -0.2328
   38MOL   C11226826   3.374   5.552   3.332 -0.2361  0.4105 -0.2461
   38MOL   C11326827   3.454   5.629   3.243  0.3006 -0.3929  0.4208
   38MOL   C11426828   3.497   5.566   3.126 -0.3563 -0.0885  0.4195
   38MOL   C11526829   3.458   5.437   3.091 -0.1808  0.2813 -0.0212
   38MOL   C11626830   3.482   5.379   2.954 -0.4979  0.4123  0.5394
   38MOL   O11726831   3.483   5.456   2.857 -0.1984  0.3710  0.5066
   38MOL   N11826832   3.514   5.249   2.938  0.1693 -0.7070 -0.4207
   38MOL   C11926833   3.545   5.190   2.811  0.0370 -0.2528 -0.6343
   38MOL   C12026834   3.578   5.039   2.821  0.0050 -0.0977  0.2883
   38MOL   C12126835   3.604   4.985   2.677 -0.1104 -0.2369 -0.0471
   38MOL   C12226836   3.640   4.835   2.686 -0.2723  0.4858  0.3416
   38MOL   C12326837   3.522   4.744   2.681 -0.2901  0.4398 -0.1834
   38MOL   C12426838   3.574   4.599   2.688 -0.2854  0.1897 -0.4076
   38MOL   N12526839   3.457   4.516   2.655 -0.3061  1.2308 -1.1187
   38MOL   C12626840   3.389   5.357   3.185  0.0403 -0.1454  0.9248
   38MOL   C12726841   3.340   5.418   3.303  0.9114  1.2080 -0.1881
   38MOL   H12826842   3.467   5.735   3.258  0.1036  0.0509 -2.2275
   38MOL   H12926843   3.559   5.618   3.055  0.5621  0.0403  1.2939
   38MOL   H13026844   3.524   5.197   3.024  1.8893 -0.4090 -0.4135
   38MOL   H13126845   3.467   5.218   2.739  1.3777  2.2629 -1.1751
   38MOL   H13226846   3.634   5.240   2.772  0.7535 -0.8108  0.2954
   38MOL   H13326847   3.493   4.992   2.870 -0.5965  1.5851  0.8860
   38MOL   H13426848   3.663   5.013   2.884  1.5924 -1.1218 -2.1970
   38MOL   H13526849   3.527   5.010   2.605 -0.1045  0.0935  0.0577
   38MOL   H13626850   3.687   5.047   2.644  1.0639 -0.4607  2.3369
   38MOL   H13726851   3.700   4.826   2.777  0.7508 -1.0337 -0.4556
   38MOL   H13826852   3.712   4.811   2.607  0.8127  0.2420  1.3754
   38MOL   H13926853   3.477   4.771   2.585 -1.5015 -2.0892 -0.3844
   38MOL   H14026854   3.465   4.768   2.771  0.7671 -0.9167  0.8643
   38MOL   H14126855   3.651   4.586   2.613  0.0997  0.0148  0.0133
   38MOL   H14226856   3.607   4.560   2.785  0.0416 -1.5940 -1.2240
   38MOL   H14326857   3.363   4.553   2.651 -1.1728 -0.4950  1.5165
   38MOL   H14426858   3.355   5.256   3.170  0.9373 -0.1147 -1.5817
   38MOL   H14526859   3.277   5.365   3.374 -1.5579  3.7145 -0.4040
   38MOL   C14626860   3.462   4.386   2.615 -0.1001  0.1109 -0.0168
   38MOL   O14726861   3.564   4.319   2.593  0.3108 -0.4581 -0.0900
   38MOL   C14826862   3.327   4.348   2.568  0.8332 -0.0907 -0.5276
   38MOL   C14926863   3.208   4.392   2.635 -0.1222  0.1580 -0.0714
   38MOL   C15026864   3.084   4.340   2.593 -0.4496  1.3748 -0.5750
   38MOL   C15126865   3.076   4.242   2.488 -0.3409  0.6760 -0.2821
   38MOL   C15226866   2.949   4.179   2.441 -0.4936 -0.3950 -0.4560
   38MOL   O15326867   2.853   4.189   2.516 -0.4968 -0.6935  0.1835
   38MOL   N15426868   2.949   4.118   2.319 -0.7916  0.3902  0.0982
   38MOL   C15526869   2.837   4.067   2.243 -0.7361 -0.1304 -0.0897
   38MOL   C15626870   2.879   4.058   2.094 -0.1715 -0.1909 -0.0479
   38MOL   C15726871   2.768   4.004   2.006  0.2008 -0.3229 -0.9724
   38MOL   C15826872   2.803   3.999   1.861 -0.3583 -0.4574 -0.6905
   38MOL   C15926873   2.680   3.942   1.789  0.1764 -0.2672  0.8132
   38MOL   C16026874   2.701   3.955   1.642  0.1833  0.9405  0.1635
   38MOL   N16126875   2.600   3.883   1.563  0.8176 -0.0335  0.1301
   38MOL   C16226876   3.194   4.203   2.425 -0.6500  0.3999 -0.2531
   38MOL   C16326877   3.320   4.256   2.463  0.3423 -0.3802  0.5839
   38MOL   H16426878   3.217   4.468   2.712  0.5433  2.8666 -2.7439
   38MOL   H16526879   2.991   4.379   2.632 -0.4202  1.5029 -0.6297
   38MOL   H16626880   3.040   4.123   2.276 -0.1297  1.0181  1.5511
   38MOL   H16726881   2.797   3.969   2.269 -0.4763 -0.7351 -1.8628
   38MOL   H16826882   2.748   4.130   2.250 -1.6162 -1.5464  1.8703
   38MOL   H16926883   2.972   4.003   2.078 -1.0256 -1.6758 -0.0434
   38MOL   H17026884   2.901   4.158   2.058  1.0378 -0.2235  0.5939
   38MOL   H17126885   2.740   3.915   2.061 -1.4991  0.1556 -1.0462
   38MOL   H17226886   2.691   4.079   2.023 -0.5856 -1.3951  0.3002
   38MOL   H17326887   2.894   3.941   1.849 -0.5547 -0.7901 -0.5786
   38MOL   H17426888   2.822   4.098   1.821  1.6440 -0.6586 -0.2714
   38MOL   H17526889   2.588   3.995   1.812 -0.9446 -1.3827 -0.9640
   38MOL   H17626890   2.676   3.836   1.817  0.1676 -0.8541 -1.2856
   38MOL   H17726891   2.702   4.062   1.626  0.1620  0.9698  0.3608
   38MOL   H17826892   2.799   3.915   1.615 -0.6506 -0.0106 -1.5919
   38MOL   H17926893   2.607   3.784   1.578  0.5074  0.0457  0.8311
   38MOL   H18026894   3.190   4.131   2.344 -1.2949  1.7245 -1.4224
   38MOL   H18126895   3.416   4.214   2.438  0.6384 -0.0083  1.0890
   38MOL   C18226896   2.497   3.932   1.496  0.0783  0.0573  0.3554
   38MOL   O18326897   2.495   4.058   1.475  0.3702  0.2175  0.1010
   38MOL   C18426898   2.394   3.841   1.443 -0.1935  0.0611  0.5977
   38MOL   C18526899   2.366   3.716   1.507 -0.1743  0.4417 -0.1537
   38MOL   C18626900   2.267   3.637   1.453  0.0960  0.0311  0.5291
   38MOL   C18726901   2.199   3.668   1.333 -0.1286 -0.5007  0.2317
   38MOL   C18826902   2.111   3.564   1.264  0.2092  0.5273 -0.1461
   38MOL   O18926903   2.104   3.555   1.142  0.1322 -0.2289 -0.5017
   38MOL   N19026904   2.035   3.484   1.344 -0.0691  0.2018  0.4369
   38MOL   C19126905   1.954   3.368   1.306 -0.3291  0.5521 -1.0175
   38MOL   C19226906   1.999   3.247   1.384 -0.1617  0.0146 -0.5421
   38MOL   C19326907   2.144   3.209   1.341  0.6113  0.9872 -0.5424
   38MOL   C19426908   2.185   3.072   1.398  0.2893 -0.0536 -0.3562
   38MOL   C19526909   2.078   2.956   1.371 -0.5210 -1.0532  0.2764
   38MOL   C19626910   2.142   2.821   1.391 -0.0558 -0.7788  0.2571
   38MOL   N19726911   2.067   2.720   1.324  0.1470  0.3430 -0.1254
   38MOL   C19826912   2.225   3.794   1.266  0.7152 -0.6103  0.6911
   38MOL   C19926913   2.319   3.879   1.327  0.3439  0.1338  0.8130
   38MOL   H20026914   2.418   3.676   1.593 -0.0509 -0.8132 -0.8011
   38MOL   H20126915   2.264   3.538   1.498  0.3969 -0.9563 -1.5657
   38MOL   H20226916   2.053   3.502   1.442 -0.6464 -0.6866  0.7040
   38MOL   H20326917   1.854   3.392   1.341 -0.7493 -0.4375 -1.5259
   38MOL   H20426918   1.957   3.356   1.198 -0.5266 -0.2137 -0.9405
   38MOL   H20526919   1.932   3.163   1.363  0.8240 -1.0104  0.3253
   38MOL   H20626920   1.995   3.262   1.492 -0.1992  0.0821 -0.5524
   38MOL   H20726921   2.158   3.212   1.233 -1.4391 -1.5654 -0.9240
   38MOL   H20826922   2.210   3.284   1.387  1.8661 -0.6306  0.3379
   38MOL   H20926923   2.182   3.077   1.506 -0.8313 -2.0642 -0.2872
   38MOL   H21026924   2.285   3.038   1.371 -0.9363 -2.8591 -1.5897
   38MOL   H21126925   2.027   2.965   1.274  0.8826 -1.4104 -0.5052
   38MOL   H21226926   1.996   2.956   1.442 -1.1180 -1.8581 -0.3960
   38MOL   H21326927   2.239   2.813   1.342 -1.1817 -1.2343 -1.9912
   38MOL   H21426928   2.152   2.810   1.499  0.3051 -1.2081  0.1835
   38MOL   H21526929   2.088   2.715   1.225  0.5239  1.0126 -0.0765
   38MOL   H21626930   2.170   3.831   1.181  0.9738  0.0307  0.7977
   38MOL   H21726931   2.344   3.975   1.285 -1.4667 -0.2563 -1.2212
   38MOL   C21826932   1.965   2.640   1.361 -0.8257 -0.0629  0.0664
   38MOL   O21926933   1.936   2.626   1.474 -0.5799  0.3767 -0.2059
   38MOL   C22026934   1.909   2.558   1.257 -0.1684  0.0292  0.0845
   38MOL   C22126935   1.844   2.432   1.286  0.8975 -0.3572 -0.2438
   38MOL   C22226936   1.800   2.353   1.180 -0.4407  0.1233  0.3188
   38MOL   C22326937   1.802   2.401   1.051 -0.7882  0.0412  0.6199
   38MOL   C22426938   1.738   2.322   0.942  0.2220  0.0714 -0.3344
   38MOL   O22526939   1.657   2.230   0.956  0.2273 -0.2212 -0.1390
   38MOL   N22626940   1.787   2.355   0.819  0.3361  0.1220  0.3959
   38MOL   C22726941   1.748   2.284   0.700  0.4004  0.1048  0.5076
   38MOL   C22826942   1.817   2.335   0.577  0.3925  0.2028 -0.7900
   38MOL   C22926943   1.746   2.272   0.458  0.2378 -0.2482 -0.4406
   38MOL   C23026944   1.775   2.332   0.319 -0.8152 -0.1905 -0.5365
   38MOL   C23126945   1.688   2.286   0.205 -0.7715 -0.3382  0.0653
   38MOL   C23226946   1.701   2.368   0.077  0.1335 -0.2730  0.3651
   38MOL   N23326947   1.846   2.371   0.041 -0.0602  1.0204  0.0010
   38MOL   C23426948   1.854   2.526   1.024  0.4716  0.7578  0.3605
   38MOL   C23526949   1.898   2.608   1.126 -0.7437 -0.4165 -0.9509
   38MOL   H23626950   1.838   2.390   1.386 -0.4288  1.5817  0.5288
   38MOL   H23726951   1.755   2.257   1.199 -0.4705 -0.5129 -2.6968
   38MOL   H23826952   1.842   2.437   0.796 -1.4559  0.7214 -1.9827
   38MOL   H23926953   1.773   2.178   0.705 -1.1695 -0.3730 -1.4610
   38MOL   H24026954   1.639   2.292   0.703  0.3379 -0.8918  1.0388
   38MOL   H24126955   1.923   2.311   0.569  0.5691  0.2763  1.1338
   38MOL   H24226956   1.791   2.440   0.574 -2.0164 -0.3421 -0.1274
   38MOL   H24326957   1.773   2.166   0.453 -0.5417 -0.5177  0.8313
   38MOL   H24426958   1.637   2.273   0.464  0.3245  0.2339  1.3862
   38MOL   H24526959   1.881   2.317   0.302  0.1484  2.5655  2.4655
   38MOL   H24626960   1.767   2.440   0.321  1.6621  0.0084  1.8791
   38MOL   H24726961   1.587   2.288   0.247 -1.0979 -0.5429 -0.6944
   38MOL   H24826962   1.706   2.182   0.176 -1.9490 -0.9345  1.4205
   38MOL   H24926963   1.636   2.322   0.002  0.2561 -0.1882  0.2058
   38MOL   H25026964   1.672   2.472   0.096  0.1746 -0.0234 -0.8965
   38MOL   H25126965   1.915   2.329   0.102 -0.4602  3.3934  2.1711
   38MOL   H25226966   1.847   2.562   0.922  0.8369  0.9117  0.3902
   38MOL   H25326967   1.928   2.709   1.103  0.3140 -0.1973  1.2563
   38MOL   C25426968   1.887   2.455   7.828 -0.1266 -0.0293 -0.4961
   38MOL   O25526969   1.809   2.514   7.751 -0.3522  0.1002  0.1754
   38MOL   C25626970   2.038   2.475   7.820  0.4158  0.3179  0.0640
   38MOL   C25726971   2.119   2.438   0.046 -0.7697  0.0059 -0.0907
   38MOL   C25826972   2.258   2.440   0.036 -0.7348  0.0397  0.4093
   38MOL   C25926973   2.313   2.476   7.797  0.1253 -0.3734 -0.2857
   38MOL   C26026974   2.461   2.492   7.788 -0.6983  0.3852  0.9204
   38MOL   O26126975   2.525   2.478   7.682 -0.9601 -0.5207  0.1287
   38MOL   N26226976   2.515   2.549   0.011  0.2191  0.1912 -0.2333
   38MOL   C26326977   2.645   2.605   0.033 -0.2468 -0.0488  0.0903
   38MOL   C26426978   2.754   2.502   0.037 -0.2015  0.3695  0.5034
   38MOL   C26526979   2.887   2.556   0.097  0.9494  0.0198  0.1070
   38MOL   C26626980   2.987   2.450   0.151 -0.0416  0.1488  0.1419
   38MOL   C26726981   2.946   2.352   0.264  0.5352 -0.1519  0.3862
   38MOL   C26826982   2.935   2.419   0.404  0.1680 -0.2431  0.3300
   38MOL   N26926983   2.853   2.344   0.500  0.0155 -0.4049 -0.3056
   38MOL   C27026984   2.232   2.516   7.687  0.1754 -0.0933  0.1296
   38MOL   C27126985   2.095   2.510   7.701  0.0260  0.1525  0.6587
   38MOL   H27226986   2.072   2.415   0.140 -0.8082  0.5270  0.0233
   38MOL   H27326987   2.318   2.412   0.121 -0.7297 -4.0886 -0.8601
   38MOL   H27426988   2.446   2.572   0.081  1.2245  2.7680 -0.0542
   38MOL   H27526989   2.662   2.672   7.835  1.5223  0.4083  0.7898
   38MOL   H27626990   2.652   2.663   0.126 -1.3990 -1.3403  1.0047
   38MOL   H27726991   2.764   2.446   7.830  2.7062  0.7498  0.5425
   38MOL   H27826992   2.721   2.415   0.093 -0.7411  0.3034  0.0819
   38MOL   H27926993   2.938   2.616   0.022  2.3827  1.5082  2.1844
   38MOL   H28026994   2.855   2.615   0.183 -2.6804 -1.8210  0.0816
   38MOL   H28126995   3.073   2.504   0.189 -0.7890  1.3983  0.0871
   38MOL   H28226996   3.026   2.396   0.065  1.5358  4.1172 -1.7455
   38MOL   H28326997   3.020   2.272   0.274 -1.3223 -1.5772  3.3312
   38MOL   H28426998   2.859   2.291   0.240  0.6392 -0.2661  0.2921
   38MOL   H28526999   3.027   2.451   0.452 -0.6466  2.8581 -0.1060
   38MOL   H28627000   2.891   2.514   0.376 -4.4254 -2.3621 -0.1232
   38MOL   H28727001   2.883   2.250   0.520 -0.3870 -0.2280  1.1997
   38MOL   H28827002   2.271   2.542   7.590  0.9035  0.7908  0.6533
   38MOL   H28927003   2.037   2.536   7.613  0.5414 -0.7522  0.0541
   38MOL   C29027004   2.749   2.397   0.564  0.1418  0.0777 -1.1686
   38MOL   O29127005   2.710   2.515   0.546  0.0007 -0.0638  0.1905
   38MOL   C29227006   2.673   2.308   0.659 -0.3769  0.1749 -0.1134
   38MOL   C29327007   2.739   2.215   0.736  0.0073  0.0294  0.3439
   38MOL   C29427008   2.672   2.145   0.838  0.0553 -0.3859 -0.4471
   38MOL   C29527009   2.532   2.153   0.849  0.7841  0.5826 -0.0062
   38MOL   C29627010   2.459   2.053   0.940 -0.2075 -0.3217 -0.1678
   38MOL   O29727011   2.505   1.944   0.971  0.4007  0.0404 -0.1949
   38MOL   N29827012   2.341   2.103   0.974  0.8973  0.7915  0.0572
   38MOL   C29927013   2.238   2.039   1.049  0.6289 -0.3704  0.1961
   38MOL   C30027014   2.098   2.054   0.983  0.8968  0.0267  0.0032
   38MOL   C30127015   2.070   1.976   0.863 -0.0187 -0.0249  0.2627
   38MOL   C30227016   2.158   2.010   0.741 -0.0423  0.0638  0.5073
   38MOL   C30327017   2.131   1.955   0.605  0.1835  0.8697  0.6447
   38MOL   C30427018   2.247   1.963   0.494  0.4085  0.2927 -0.2336
   38MOL   N30527019   2.285   2.101   0.470 -1.0420 -0.2726 -0.2703
   38MOL   C30627020   2.462   2.241   0.763 -0.0341  0.4950  0.0715
   38MOL   C30727021   2.534   2.324   0.673 -0.5514  0.0002 -0.0515
   38MOL   H30827022   2.842   2.187   0.719 -0.4028 -0.4237 -1.4914
   38MOL   H30927023   2.725   2.071   0.896 -0.4967 -0.2958  0.1815
   38MOL   H31027024   2.326   2.198   0.944  0.4638  0.7146  0.0197
   38MOL   H31127025   2.269   1.937   1.069 -0.9701 -1.2918 -1.8140
   38MOL   H31227026   2.228   2.076   1.151  0.6538 -0.3818  0.2028
   38MOL   H31327027   2.074   2.159   0.967  0.0757 -0.0123  0.9278
   38MOL   H31427028   2.032   2.012   1.059  0.2235 -0.7893 -1.0344
   38MOL   H31527029   2.076   1.868   0.875  0.9165 -0.4349 -3.1860
   38MOL   H31627030   1.966   1.991   0.831  0.6294  0.6862 -1.6196
   38MOL   H31727031   2.254   1.963   0.764 -0.1440 -0.8205 -0.8498
   38MOL   H31827032   2.181   2.114   0.717  1.3969 -0.3821 -0.1084
   38MOL   H31927033   2.036   2.000   0.577 -2.1200 -3.5491  0.8328
   38MOL   H32027034   2.119   1.847   0.609  0.6348  0.8783  2.6655
   38MOL   H32127035   2.334   1.906   0.526  1.7002  1.7066 -1.1838
   38MOL   H32227036   2.209   1.913   0.405  0.3179  1.1433 -0.6800
   38MOL   H32327037   2.364   2.145   0.514 -2.4980  1.0527  1.0926
   38MOL   H32427038   2.356   2.254   0.748 -0.3189 -0.1507  1.4371
   38MOL   H32527039   2.481   2.406   0.626 -0.8204  0.7827  1.5840
   38MOL   C32627040   2.216   2.190   0.396 -0.6244 -0.2610 -0.5908
   38MOL   O32727041   2.107   2.157   0.353  0.3053  0.1955 -0.3543
   38MOL   C32827042   2.271   2.326   0.379 -0.6343  0.4242  0.3118
   38MOL   C32927043   2.406   2.338   0.349  0.1844  0.1108 -0.4698
   38MOL   C33027044   2.465   2.464   0.328 -0.3730 -0.1169 -0.5914
   38MOL   C33127045   2.385   2.579   0.347  0.7216  0.2531 -0.0036
   38MOL   C33227046   2.447   2.718   0.322  0.5620  0.3445  0.6058
   38MOL   O33327047   2.391   2.794   0.244  0.1516 -0.1370 -0.5542
   38MOL   N33427048   2.561   2.751   0.386  0.5736 -0.2346  0.6609
   38MOL   C33527049   2.620   2.883   0.373 -0.5838  0.5911  0.2894
   38MOL   C33627050   2.762   2.886   0.329 -0.2939  0.5406  0.8511
   38MOL   C33727051   2.860   2.829   0.434 -0.6255 -0.3414  0.6771
   38MOL   C33827052   3.004   2.837   0.375 -0.6514  0.4345  0.0601
   38MOL   C33927053   3.100   2.777   0.473 -0.4240  0.1244  0.2135
   38MOL   C34027054   3.236   2.755   0.417 -0.7572  0.1921 -0.1110
   38MOL   N34127055   3.321   2.691   0.513 -0.4621 -0.5669 -0.1527
   38MOL   C34227056   2.253   2.569   0.387  0.3683 -0.6806  0.4193
   38MOL   C34327057   2.193   2.442   0.397 -0.6760 -0.0012 -0.1364
   38MOL   H34427058   2.473   2.254   0.352  0.1498  0.0257 -1.8271
   38MOL   H34527059   2.569   2.478   0.302 -0.2228 -1.5995 -0.8292
   38MOL   H34627060   2.605   2.672   0.430  2.5375  0.3407 -0.2586
   38MOL   H34727061   2.565   2.948   0.304  0.5335 -0.1709 -1.3636
   38MOL   H34827062   2.620   2.929   0.471  0.1631 -0.4805  0.8053
   38MOL   H34927063   2.784   2.993   0.319 -0.8194  0.6512  0.8620
   38MOL   H35027064   2.777   2.841   0.231  1.6210 -0.3075  1.5247
   38MOL   H35127065   2.850   2.881   0.529 -0.5958  0.6802  0.1196
   38MOL   H35227066   2.843   2.723   0.454  0.1422 -0.6840 -0.4492
   38MOL   H35327067   3.038   2.940   0.376  0.7811 -0.0358  0.6049
   38MOL   H35427068   3.009   2.797   0.274 -1.1145  1.8602 -0.5416
   38MOL   H35527069   3.061   2.678   0.498  1.2488 -1.1394 -2.0794
   38MOL   H35627070   3.118   2.841   0.560  1.4374  0.9554 -0.7534
   38MOL   H35727071   3.231   2.681   0.337 -0.9899 -0.5697  0.6038
   38MOL   H35827072   3.284   2.846   0.381  0.5935 -0.2406  0.5717
   38MOL   H35927073   3.300   2.706   0.611  1.0297  2.0500 -0.2007
   38MOL   H36027074   2.193   2.654   0.416  0.5943 -0.0260 -1.0178
   38MOL   H36127075   2.089   2.438   0.426 -1.4659  0.0191 -2.8680
   38MOL   C36227076   3.429   2.626   0.475 -0.1815 -0.7940  0.5420
   38MOL   O36327077   3.474   2.622   0.361 -0.4056  1.0512  0.6355
   38MOL   C36427078   3.500   2.560   0.587 -0.3833  0.8803  0.3154
   38MOL   C36527079   3.644   2.540   0.584  0.1203  0.3973  1.1966
   38MOL   C36627080   3.710   2.445   0.665  0.4649 -0.6847 -0.0148
   38MOL   C36727081   3.638   2.380   0.765 -0.2108  0.0575 -0.0841
   38MOL   C36827082   3.719   2.276   0.847  0.9482 -0.8376 -0.4554
   38MOL   O36927083   3.832   2.251   0.809 -0.0705 -0.0525  0.1328
   38MOL   N37027084   3.662   2.228   0.952  0.0896 -0.1569  0.0556
   38MOL   C37127085   3.727   2.129   1.034 -0.0432 -0.1052 -0.5807
   38MOL   C37227086   3.637   2.002   1.036  0.5485  0.2955 -0.1381
   38MOL   C37327087   3.584   1.958   0.900 -0.3224  0.0839 -0.3972
   38MOL   C37427088   3.495   1.834   0.905 -0.1310 -0.5139  0.7481
   38MOL   C37527089   3.429   1.815   0.770 -0.4101 -0.0374  0.1509
   38MOL   C37627090   3.308   1.723   0.772 -0.0659 -0.2113  0.3615
   38MOL   N37727091   3.227   1.715   0.649 -0.9105 -0.3315 -0.0103
   38MOL   C37827092   3.502   2.412   0.781 -0.7369 -0.0894 -0.5070
   38MOL   C37927093   3.432   2.494   0.690  0.0765  0.6218  0.3383
   38MOL   H38027094   3.706   2.592   0.512  1.2650 -1.1856  1.0329
   38MOL   H38127095   3.816   2.430   0.663  0.4932 -0.5201 -3.7699
   38MOL   H38227096   3.588   2.281   0.995 -2.9805 -3.0621 -1.4401
   38MOL   H38327097   3.829   2.104   1.004  1.0046  1.9776  1.0907
   38MOL   H38427098   3.744   2.161   1.137  0.5533  0.6704 -0.9177
   38MOL   H38527099   3.551   2.027   1.099  1.8181  2.1159  0.9393
   38MOL   H38627100   3.690   1.913   1.071  0.8952 -1.1295 -4.1177
   38MOL   H38727101   3.513   2.033   0.864 -1.1107 -0.1542  0.6267
   38MOL   H38827102   3.660   1.954   0.822 -0.7877 -0.3338 -0.8404
   38MOL   H38927103   3.422   1.852   0.984  0.7877  1.0017  1.2742
   38MOL   H39027104   3.554   1.747   0.931  2.5021  0.1774 -2.4920
   38MOL   H39127105   3.496   1.805   0.684 -2.4920  1.1070 -1.6465
   38MOL   H39227106   3.385   1.909   0.739 -0.2645  0.0131  0.0953
   38MOL   H39327107   3.337   1.621   0.798 -0.9812  0.0329  2.4587
   38MOL   H39427108   3.248   1.770   0.850 -0.2323 -0.4978  0.4046
   38MOL   H39527109   3.223   1.797   0.590 -1.0002 -0.9771 -0.9205
   38MOL   H39627110   3.450   2.368   0.865 -2.3684  2.1381 -0.2956
   38MOL   H39727111   3.325   2.500   0.702 -0.2051 -2.3065 -0.5398
   38MOL   C39827112   3.182   1.600   0.598  0.1161 -0.3401 -0.5958
   38MOL   O39927113   3.181   1.498   0.665 -0.4777  0.3921 -0.1003
   38MOL   C40027114   3.105   1.614   0.469 -0.1429  0.4041  0.2939
   38MOL   C40127115   2.987   1.533   0.463  0.2248 -0.3889 -0.8724
   38MOL   C40227116   2.898   1.551   0.356  0.2862  0.3451 -0.2634
   38MOL   C40327117   2.913   1.655   0.265  0.1108 -0.3005  0.1384
   38MOL   C40427118   2.807   1.685   0.157 -0.1883  0.4460 -0.7586
   38MOL   O40527119   2.840   1.709   0.043 -0.2583  0.3071  0.2232
   38MOL   N40627120   2.680   1.705   0.204 -0.5894 -0.4503 -0.5914
   38MOL   C40727121   2.569   1.773   0.137  0.1673  1.2412  0.2259
   38MOL   C40827122   2.469   1.667   0.070  0.1024  0.8190 -0.0526
   38MOL   C40927123   2.354   1.746   0.005 -0.5876  0.4264 -0.4811
   38MOL   C41027124   2.233   1.662   7.864 -0.2247  0.8016  0.8826
   38MOL   C41127125   2.257   1.549   7.760  0.6805  0.5407  0.7367
   38MOL   C41227126   2.120   1.491   7.699 -0.0305 -0.4823  0.0008
   38MOL   N41327127   2.081   1.587   7.597  0.0482  0.2337  0.0726
   38MOL   C41427128   3.031   1.732   0.267  0.6330  0.6789 -0.1067
   38MOL   C41527129   3.130   1.713   0.370 -0.1421  0.0573 -0.6556
   38MOL   H41627130   2.969   1.459   0.539 -0.0034  1.8156  1.2948
   38MOL   H41727131   2.808   1.491   0.356 -1.0229  2.2468 -0.8855
   38MOL   H41827132   2.674   1.683   0.303  1.1523  0.9184 -0.1636
   38MOL   H41927133   2.517   1.824   0.219  0.1528 -0.8860  1.5933
   38MOL   H42027134   2.600   1.842   0.059  0.4789 -2.6346 -3.2584
   38MOL   H42127135   2.437   1.599   0.148  1.0199 -0.0935 -0.4629
   38MOL   H42227136   2.525   1.613   7.880  0.8647  0.4551  0.7545
   38MOL   H42327137   2.318   1.815   0.081 -2.4660 -0.5546 -0.4510
   38MOL   H42427138   2.387   1.813   7.812 -1.9198  1.0693 -0.5118
   38MOL   H42527139   2.159   1.731   7.823  0.4106  1.3374  0.6319
   38MOL   H42627140   2.195   1.611   0.067  1.2562  0.3301  1.2495
   38MOL   H42727141   2.315   1.477   7.818  1.3509  1.1125  0.7835
   38MOL   H42827142   2.330   1.589   7.690  1.4810 -0.9703  0.6847
   38MOL   H42927143   2.140   1.397   7.649  4.0606 -0.8028  2.1048
   38MOL   H43027144   2.040   1.482   7.773  1.2935  0.8819  1.6244
   38MOL   H43127145   2.151   1.648   7.558  1.5323 -0.7196  1.1758
   38MOL   H43227146   3.047   1.811   0.195  2.0036  0.4660 -0.0468
   38MOL   H43327147   3.224   1.766   0.382 -0.1619 -0.4986  2.4599
   38MOL   C43427148   1.968   1.574   7.527 -0.2549  0.8529  0.2597
   38MOL   O43527149   1.883   1.483   7.545  0.2195  0.1417  0.2900
   38MOL   C43627150   1.960   1.662   7.406 -1.1612  0.3535 -0.0887
   38MOL   C43727151   1.915   1.607   7.287  0.0031 -0.8537  0.4017
   38MOL   C43827152   1.879   1.688   7.179 -0.0155 -0.4531  0.5312
   38MOL   C43927153   1.877   1.828   7.197  0.1056 -0.9519  0.0866
   38MOL   C44027154   1.834   1.910   7.084 -0.2898 -0.3550  0.9971
   38MOL   O44127155   1.862   1.871   6.969 -0.1910 -0.4696 -0.7184
   38MOL   N44227156   1.763   2.027   7.111 -0.3594  0.4707  1.2198
   38MOL   C44327157   1.717   2.116   7.009  0.1575  0.1662 -0.3302
   38MOL   C44427158   1.571   2.152   7.037 -0.2299  0.3761 -0.2424
   38MOL   C44527159   1.504   2.251   6.943  0.0623  0.1800  0.5715
   38MOL   C44627160   1.577   2.385   6.926  0.0096  0.2063 -0.3098
   38MOL   C44727161   1.516   2.486   6.824 -0.4389  0.0009 -0.9899
   38MOL   C44827162   1.511   2.438   6.676  0.9044 -0.3554 -0.3192
   38MOL   N44927163   1.610   2.341   6.643  0.4725 -0.3165  0.1014
   38MOL   C45027164   1.924   1.883   7.317 -0.1798 -0.1202  0.2516
   38MOL   C45127165   1.971   1.804   7.419  0.2548 -0.3040  0.0277
   38MOL   H45227166   1.902   1.500   7.286 -1.5537 -0.7341  2.6482
   38MOL   H45327167   1.864   1.652   7.078 -0.5017  0.0300  0.4258
   38MOL   H45427168   1.715   2.036   7.199 -1.3431 -0.3617  0.7750
   38MOL   H45527169   1.775   2.209   7.012 -1.5153  1.2124  1.0016
   38MOL   H45627170   1.727   2.080   6.907  0.7390 -3.1178  0.8283
   38MOL   H45727171   1.565   2.187   7.140  1.4585  1.0030 -0.3461
   38MOL   H45827172   1.506   2.064   7.043 -0.1415  0.1744 -2.0614
   38MOL   H45927173   1.485   2.203   6.847  1.1450  1.6486 -0.3971
   38MOL   H46027174   1.406   2.278   6.983 -0.3478  0.3554 -0.5421
   38MOL   H46127175   1.678   2.360   6.894 -1.3301 -3.4382 -1.9150
   38MOL   H46227176   1.582   2.429   7.026  2.0366  2.4114 -1.3523
   38MOL   H46327177   1.582   2.572   6.839 -1.0707  0.2899  0.2086
   38MOL   H46427178   1.421   2.514   6.869 -0.9863  0.5001 -2.4391
   38MOL   H46527179   1.412   2.399   6.653  0.6131  1.1165 -1.6708
   38MOL   H46627180   1.522   2.515   6.599  1.3120 -0.4438 -0.3495
   38MOL   H46727181   1.703   2.375   6.626 -0.0020  0.6361 -0.6509
   38MOL   H46827182   1.931   1.989   7.337 -0.1486 -0.4948  2.2937
   38MOL   H46927183   2.013   1.845   7.509 -0.2348 -1.2071  0.6704
   38MOL   C47027184   1.593   2.211   6.615 -0.3302  0.4334  0.2107
   38MOL   O47127185   1.481   2.156   6.601  0.3299 -0.1325 -0.3113
   38MOL   C47227186   1.716   2.122   6.595 -0.2798  0.2330 -0.4203
   38MOL   C47327187   1.717   2.006   6.514  0.0741  0.6398  0.0988
   38MOL   C47427188   1.826   1.916   6.509  0.2744 -0.2612 -0.3587
   38MOL   C47527189   1.945   1.943   6.583  0.0748 -0.6080  0.3369
   38MOL   C47627190   2.069   1.855   6.578  0.4577  0.0671 -0.2785
   38MOL   O47727191   2.069   1.759   6.494  0.3662  0.6670 -0.0137
   38MOL   N47827192   2.173   1.885   6.651  0.3969  0.0186 -0.0586
   38MOL   C47927193   2.292   1.807   6.659 -0.6886 -0.1479  0.0508
   38MOL   C48027194   2.358   1.839   6.796  0.5313  0.0528  0.1654
   38MOL   C48127195   2.269   1.823   6.924  0.7541  0.5451  0.3873
   38MOL   C48227196   2.340   1.870   7.048  0.4746 -0.1950  0.1496
   38MOL   C48327197   2.243   1.893   7.162  0.2611 -0.2955 -0.0263
   38MOL   C48427198   2.301   1.970   7.285  0.2054  0.0413  0.1182
   38MOL   N48527199   2.426   1.911   7.342  0.8137 -0.2543  0.3583
   38MOL   C48627200   1.951   2.060   6.660 -0.1478  0.2883 -0.0439
   38MOL   C48727201   1.835   2.148   6.666 -0.7943  0.2943 -0.3690
   38MOL   H48827202   1.633   1.981   6.452  1.0562 -0.8090 -0.6836
   38MOL   H48927203   1.807   1.827   6.451  0.3917  0.0212 -0.8368
   38MOL   H49027204   2.165   1.950   6.728 -1.1614  0.4711 -0.5925
   38MOL   H49127205   2.275   1.700   6.657  0.2324 -0.3095  0.7177
   38MOL   H49227206   2.361   1.846   6.583 -0.7456 -0.3707 -0.1154
   38MOL   H49327207   2.384   1.943   6.777  0.4011 -0.5850 -4.0522
   38MOL   H49427208   2.455   1.789   6.796  0.5902  0.1589  1.3838
   38MOL   H49527209   2.170   1.868   6.930  0.1101 -1.0558  2.4561
   38MOL   H49627210   2.256   1.716   6.938  0.9023  0.5010  0.1770
   38MOL   H49727211   2.402   1.958   7.031 -0.4308  0.5442  0.5982
   38MOL   H49827212   2.416   1.796   7.076 -1.0367 -1.0659  2.1184
   38MOL   H49927213   2.211   1.792   7.186  0.3287 -0.8024 -2.0333
   38MOL   H50027214   2.152   1.942   7.128 -0.7595  1.1078  4.3897
   38MOL   H50127215   2.321   2.075   7.262  0.5233 -0.0765 -0.1297
   38MOL   H50227216   2.218   1.980   7.355 -1.6292  2.9514 -2.3343
   38MOL   H50327217   2.502   1.976   7.326 -0.0682  1.0863  1.4483
   38MOL   H50427218   2.037   2.097   6.714  0.6325  2.0396 -2.4305
   38MOL   H50527219   1.838   2.244   6.715 -2.0498 -0.8270  1.9860
   38MOL   C50627220   2.423   1.798   7.418  0.2159 -0.6898 -0.5793
   38MOL   O50727221   2.324   1.731   7.448 -0.1921 -0.3852 -0.3604
   38MOL   C50827222   2.563   1.757   7.461 -0.0498 -0.4042 -0.8645
   38MOL   C50927223   2.650   1.716   7.358  0.3575 -0.2700  0.1598
   38MOL   C51027224   2.780   1.700   7.398 -0.1873 -0.1727 -0.0124
   38MOL   C51127225   2.826   1.732   7.529  1.1008  0.4588  0.1996
   38MOL   C51227226   2.969   1.705   7.563 -0.1476  0.2892  0.4261
   38MOL   O51327227   3.045   1.684   7.472 -0.4374 -0.0310 -0.1608
   38MOL   N51427228   3.002   1.707   7.692  0.4247  0.3024  0.3101
   38MOL   C51527229   3.142   1.721   7.736  0.1927 -0.5910 -0.6458
   38MOL   C51627230   3.186   1.628   7.849  0.2884 -0.2733  0.4571
   38MOL   C51727231   3.330   1.683   0.008 -0.2450  0.0576  0.4201
   38MOL   C51827232   3.368   1.603   0.136 -0.3129  0.0463 -0.1796
   38MOL   C51927233   3.516   1.606   0.174  0.1352  0.4395  1.3546
   38MOL   C52027234   3.551   1.488   0.276  0.5246  0.8133  0.8338
   38MOL   N52127235   3.669   1.515   0.354  0.0677 -0.3800 -0.5594
   38MOL   C52227236   2.735   1.775   7.625 -0.2702  0.5641 -0.3171
   38MOL   C52327237   2.600   1.793   7.594  0.1464  1.0682  0.2933
   38MOL   H52427238   2.622   1.699   7.255  0.7569  1.0398 -0.1728
   38MOL   H52527239   2.855   1.660   7.332  0.8121 -0.0414  1.0214
   38MOL   H52627240   2.928   1.708   7.761  0.2579 -0.5988  0.1449
   38MOL   H52727241   3.211   1.690   7.658  0.6657 -0.7101 -0.1852
   38MOL   H52827242   3.162   1.827   7.749  1.7557 -1.0117  0.5770
   38MOL   H52927243   3.193   1.522   7.828  1.7855  0.2548 -1.8738
   38MOL   H53027244   3.105   1.648   0.033  0.2410 -1.2714  0.6843
   38MOL   H53127245   3.411   1.678   7.822 -0.8917  1.2976 -0.4290
   38MOL   H53227246   3.330   1.790   0.031 -1.0137  0.2180 -0.2839
   38MOL   H53327247   3.340   1.500   0.112  1.1183 -0.3811 -0.0793
   38MOL   H53427248   3.310   1.631   0.223 -1.6442  1.3186 -1.4476
   38MOL   H53527249   3.548   1.702   0.214  0.8076  1.1002 -0.7275
   38MOL   H53627250   3.570   1.579   0.084  0.9771  1.3061  1.5949
   38MOL   H53727251   3.464   1.478   0.342 -0.8219  1.7508 -0.7416
   38MOL   H53827252   3.557   1.390   0.230  0.1530  1.2412 -0.1490
   38MOL   H53927253   3.655   1.576   0.433  1.5409  0.6543 -1.0540
   38MOL   H54027254   2.764   1.815   7.721 -0.4342  1.3176 -0.5738
   38MOL   H54127255   2.533   1.826   7.673  0.7055 -1.9265  2.1507
   38MOL   C54227256   3.798   1.497   0.309  0.4566  0.1423 -0.0928
   38MOL   O54327257   3.816   1.441   0.206  0.7130  1.3657  0.3001
   38MOL   C54427258   3.907   1.542   0.398  0.0797  0.3434 -0.6343
   38MOL   C54527259   3.908   1.673   0.456  0.8666  0.5469 -0.9177
   38MOL   C54627260   4.026   1.721   0.526 -0.5556 -0.1494 -0.2640
   38MOL   C54727261   4.130   1.633   0.552  0.1361 -0.5204  0.9831
   38MOL   C54827262   4.239   1.678   0.642  0.5326  0.5001  0.1953
   38MOL   O54927263   4.221   1.765   0.728  0.5026  0.2871  0.3526
   38MOL   N55027264   4.360   1.636   0.610  0.5289  0.5085 -0.2960
   38MOL   C55127265   4.474   1.657   0.695  0.1622  0.3371 -0.1692
   38MOL   C55227266   4.544   1.794   0.669 -0.9488  0.1605  0.7178
   38MOL   C55327267   4.674   1.825   0.736 -0.4291 -0.2576 -0.9107
   38MOL   C55427268   4.754   1.945   0.679  0.0177 -0.8640  0.1328
   38MOL   C55527269   4.690   2.086   0.703 -0.1229 -0.0458  0.3547
   38MOL   C55627270   4.790   2.189   0.641 -0.5349  1.0889 -0.3854
   38MOL   N55727271   4.787   2.176   0.494 -0.6721  0.1614 -0.3573
   38MOL   C55827272   4.124   1.499   0.510  0.6585  0.7732 -0.1681
   38MOL   C55927273   4.014   1.454   0.435  0.6051 -0.1944  0.2156
   38MOL   H56027274   3.831   1.743   0.427  0.8988  1.6951  1.5900
   38MOL   H56127275   4.018   1.822   0.563 -1.5387 -0.0047 -0.8489
   38MOL   H56227276   4.366   1.579   0.527  1.9284  0.7552 -0.3794
   38MOL   H56327277   4.447   1.658   0.800  0.0034 -1.7556 -0.1572
   38MOL   H56427278   4.546   1.575   0.689  0.2125  0.2251  1.6382
   38MOL   H56527279   4.470   1.874   0.679 -1.2765 -0.0098 -0.3321
   38MOL   H56627280   4.575   1.794   0.564  0.4276  1.1466  1.1000
   38MOL   H56727281   4.650   1.850   0.839 -3.0080 -1.8190 -1.0864
   38MOL   H56827282   4.737   1.736   0.741 -1.8718 -1.3703 -2.1667
   38MOL   H56927283   4.766   1.932   0.571 -0.3699  1.9946 -0.2931
   38MOL   H57027284   4.857   1.947   0.716 -0.2342  1.0703  0.7985
   38MOL   H57127285   4.675   2.117   0.806 -1.1162  2.5211 -0.5066
   38MOL   H57227286   4.591   2.102   0.660 -0.4333 -0.3346  0.9634
   38MOL   H57327287   4.758   2.289   0.671  0.3648  0.6718  2.1020
   38MOL   H57427288   4.888   2.171   0.684 -0.0514  1.7418 -1.2059
   38MOL   H57527289   4.847   2.116   0.439 -1.6183  0.1791 -1.4433
   38MOL   H57627290   4.202   1.428   0.535 -0.7044 -1.4795 -2.1284
   38MOL   H57727291   4.002   1.357   0.389  2.8362  0.0935 -1.1136
   38MOL   C57827292   4.698   2.237   0.419 -0.5077 -0.1743  0.4630
   38MOL   O57927293   4.613   2.307   0.464  0.6812 -0.8743  0.6018
   38MOL   C58027294   4.705   2.204   0.274 -0.7764 -0.0869  0.0839
   38MOL   C58127295   4.731   2.074   0.227 -0.5629 -0.2933  0.7214
   38MOL   C58227296   4.739   2.046   0.089 -0.6574  0.2245  0.4818
   38MOL   C58327297   4.722   2.143   7.878  0.2374  0.1369 -0.0164
   38MOL   C58427298   4.712   2.110   7.732  0.5892  0.1708 -0.0232
   38MOL   O58527299   4.714   2.195   7.645 -0.3126 -0.5482 -0.0452
   38MOL   N58627300   4.697   1.973   7.710 -0.1820 -0.0882  0.1971
   38MOL   C58727301   4.709   1.906   7.587 -0.0162 -0.0130  0.4649
   38MOL   C58827302   4.829   1.803   7.569  0.5768 -0.5993  0.0714
   38MOL   C58927303   4.869   1.787   7.423 -0.1164  0.0349  0.3208
   38MOL   C59027304   4.999   1.710   7.394  0.2795 -0.0768 -0.0492
   38MOL   C59127305   4.969   1.555   7.407  0.2344 -0.1374 -0.0008
   38MOL   C59227306   5.099   1.468   7.371  0.7767 -0.1127  0.0813
   38MOL   N59327307   5.085   1.322   7.381 -0.0631  0.8546  0.1004
   38MOL   C59427308   4.693   2.272   0.040  0.2257  0.5613  0.4121
   38MOL   C59527309   4.683   2.298   0.175  0.0581  0.3457 -0.4463
   38MOL   H59627310   4.757   1.997   0.299 -1.2578  0.2005  1.5204
   38MOL   H59727311   4.756   1.945   0.054  1.5131  0.8665 -0.3986
   38MOL   H59827312   4.684   1.918   7.794  0.3760  0.4696  0.6517
   38MOL   H59927313   4.616   1.858   7.557 -1.1000 -0.4484  4.3339
   38MOL   H60027314   4.723   1.986   7.514 -0.8083  0.2758  0.6255
   38MOL   H60127315   4.796   1.708   7.610  2.4489 -2.0181 -1.5823
   38MOL   H60227316   4.918   1.835   7.624  3.0821 -0.8133 -3.6866
   38MOL   H60327317   4.780   1.754   7.369  0.7207  0.2020 -1.1727
   38MOL   H60427318   4.893   1.884   7.379  0.7841 -0.2536  0.1696
   38MOL   H60527319   5.079   1.749   7.458  0.5283  1.2600 -1.1358
   38MOL   H60627320   5.031   1.746   7.296 -1.7958 -0.8199 -1.0174
   38MOL   H60727321   4.874   1.537   7.358  0.8060 -0.1989 -1.1085
   38MOL   H60827322   4.943   1.531   7.510  0.6991  0.5318  0.2753
   38MOL   H60927323   5.133   1.497   7.271 -1.2305 -1.8063 -1.1578
   38MOL   H61027324   5.183   1.502   7.430 -0.0839 -0.0326  1.2867
   38MOL   H61127325   4.998   1.278   7.408 -0.1398  1.5220  0.9684
   38MOL   H61227326   4.675   2.357   7.861  0.0238 -0.3039 -0.6768
   38MOL   H61327327   4.669   2.397   0.215 -0.4536 -0.9820  2.8599
   38MOL   C61427328   5.190   1.242   7.391  0.5748  0.0862  0.3894
   38MOL   O61527329   5.304   1.282   7.369 -0.0685  0.1185  0.4958
   38MOL   C61627330   5.148   1.103   7.415 -0.2647  0.0926  0.2674
   38MOL   C61727331   5.207   1.004   7.337  1.5174 -0.4347  0.9267
   38MOL   C61827332   5.150   0.870   7.346  0.3420 -0.6606  0.1440
   38MOL   C61927333   5.040   0.839   7.428  0.3977 -0.0461 -0.4008
   38MOL   C62027334   4.969   0.707   7.409 -0.2478  0.3936  0.7628
   38MOL   O62127335   4.978   0.645   7.305 -0.2560  0.1477 -0.2736
   38MOL   N62227336   4.914   0.664   7.517  0.6044  0.3370  0.6057
   38MOL   C62327337   4.843   0.535   7.539 -0.7894 -0.0587 -0.0770
   38MOL   C62427338   4.692   0.545   7.498 -0.4338 -0.4354 -0.0787
   38MOL   C62527339   4.613   0.424   7.549 -0.7543  0.4414  1.0409
   38MOL   C62627340   4.464   0.436   7.518 -0.3898  0.6093 -0.2176
   38MOL   C62727341   4.389   0.311   7.550 -0.0084 -0.5917 -0.1012
   38MOL   C62827342   4.394   0.283   7.702  0.5478 -0.4584 -0.2046
   38MOL   N62927343   4.289   0.188   7.736  0.1076  0.4686 -0.1730
   38MOL   C63027344   4.988   0.943   7.512 -0.3193  0.4375  0.2789
   38MOL   C63127345   5.046   1.072   7.504 -0.1567  0.3149 -0.5565
   38MOL   H63227346   5.280   1.032   7.263  2.7483  0.4072  2.4495
   38MOL   H63327347   5.195   0.802   7.274  1.7235  0.7692 -0.3818
   38MOL   H63427348   4.923   0.723   7.599 -1.3891  0.7170  0.5754
   38MOL   H63527349   4.892   0.460   7.477 -0.2511  1.3166 -1.3375
   38MOL   H63627350   4.849   0.520   7.647  0.0172  0.0533 -0.1025
   38MOL   H63727351   4.680   0.551   7.390 -0.1126  1.9143  0.0053
   38MOL   H63827352   4.655   0.637   7.542  1.6946  0.6743 -0.5339
   38MOL   H63927353   4.661   0.334   7.510 -0.2448  1.1362  0.0675
   38MOL   H64027354   4.621   0.411   7.657 -1.8565 -1.5379  0.9085
   38MOL   H64127355   4.453   0.461   7.412  0.2582  0.1211 -0.4041
   38MOL   H64227356   4.421   0.523   7.567 -2.4358 -0.5240  0.0424
   38MOL   H64327357   4.441   0.229   7.500 -0.0363 -0.9692  0.4846
   38MOL   H64427358   4.290   0.313   7.506  0.8452 -1.3711 -2.1025
   38MOL   H64527359   4.496   0.267   7.739  0.1043  1.0381  1.7402
   38MOL   H64627360   4.372   0.362   7.773  0.2222  0.0429 -0.8613
   38MOL   H64727361   4.209   0.184   7.675  0.7788  1.0675 -1.1089
   38MOL   H64827362   4.900   0.934   7.575 -1.4225 -1.4902 -1.4586
   38MOL   H64927363   5.005   1.149   7.568  1.1081  1.3181 -0.9169
   38MOL   C65027364   4.309   0.096   7.834 -0.4461 -0.1452 -0.0621
   38MOL   O65127365   4.417   0.073   0.003  0.1878 -0.2324  0.6436
   38MOL   C65227366   4.188   0.028   0.004 -0.1537  0.0744 -0.0039
   38MOL   C65327367   4.059   0.054   7.849 -0.0548  0.6319  0.1685
   38MOL   C65427368   3.942   7.884   0.021  0.1209  0.5879 -0.3787
   38MOL   C65527369   3.959   7.790   0.126  0.9792 -0.4643 -0.3595
   38MOL   C65627370   3.836   7.738   0.193 -0.5319  0.4123 -0.3117
   38MOL   O65727371   3.729   7.747   0.135 -0.4740 -0.2901  0.4628
   38MOL   N65827372   3.857   7.679   0.311  0.0241 -0.0225 -0.3664
   38MOL   C65927373   3.754   7.598   0.376  0.2870 -1.3115 -0.0872
   38MOL   C66027374   3.799   7.555   0.525 -0.2605 -0.4462  0.4183
   38MOL   C66127375   3.692   7.465   0.599  0.0138 -0.4443 -0.0758
   38MOL   C66227376   3.727   7.447   0.751  0.3540  0.9263  0.4171
   38MOL   C66327377   3.628   7.346   0.809 -0.2261 -0.0668 -0.6908
   38MOL   C66427378   3.659   7.307   0.951  0.0540  0.2320 -0.0997
   38MOL   N66527379   3.584   7.184   0.980  0.1746  0.3777  0.1409
   38MOL   C66627380   4.091   7.746   0.161 -0.2237  0.4170 -0.6985
   38MOL   C66727381   4.202   7.808   0.094  0.1587 -0.2283  0.4965
   38MOL   H66827382   4.036   0.125   7.771 -2.1278 -0.8577 -0.6235
   38MOL   H66927383   3.847   0.029   7.867  0.7218  0.8704 -1.6105
   38MOL   H67027384   3.948   7.669   0.352 -1.5670 -1.0118  3.1096
   38MOL   H67127385   3.663   7.656   0.387  0.3755 -0.8035 -1.8986
   38MOL   H67227386   3.725   7.515   0.312 -3.2404 -1.2735  1.3620
   38MOL   H67327387   3.811   7.648   0.581  0.5055  0.0433 -0.5442
   38MOL   H67427388   3.897   7.509   0.516  1.3595  2.3923  2.5882
   38MOL   H67527389   3.597   7.518   0.587  0.1472  0.1891  1.5219
   38MOL   H67627390   3.682   7.370   0.546 -0.2410  0.6210 -1.9444
   38MOL   H67727391   3.717   7.539   0.808 -0.6988  1.2341 -0.2366
   38MOL   H67827392   3.831   7.418   0.762  0.8463  2.4838  0.0253
   38MOL   H67927393   3.629   7.260   0.741  0.8762  0.2946 -1.1459
   38MOL   H68027394   3.524   7.376   0.807 -0.0640  0.5064 -0.5758
   38MOL   H68127395   3.764   7.282   0.969 -0.0755 -0.4286 -0.2375
   38MOL   H68227396   3.617   7.376   1.023 -0.8507  0.0903 -0.4874
   38MOL   H68327397   3.499   7.196   1.032  0.0439  0.0084  0.0146
   38MOL   H68427398   4.099   7.667   0.234 -0.8406 -0.9539 -2.0894
   38MOL   H68527399   4.299   7.783   0.133 -0.2185 -0.6419  1.1966
   38MOL   C68627400   3.626   7.062   0.963  0.5120  0.1306 -0.2819
   38MOL   O68727401   3.730   7.028   0.916  0.2623  0.5345 -0.3668
   38MOL   C68827402   3.521   6.961   1.007  0.3851  0.2161  0.1555
   38MOL   C68927403   3.555   6.847   1.078 -0.0253 -0.5701  0.1646
   38MOL   C69027404   3.458   6.752   1.117  0.1593 -0.8092 -0.1588
   38MOL   C69127405   3.320   6.776   1.081  0.2864  0.7116  0.2686
   38MOL   C69227406   3.215   6.667   1.118 -0.0976  0.0464 -0.8080
   38MOL   O69327407   3.227   6.597   1.220 -0.3845  0.2619 -0.5916
   38MOL   N69427408   3.103   6.674   1.043  0.4348 -0.4065 -0.2411
   38MOL   C69527409   2.969   6.622   1.068  0.5036 -0.2222 -0.0685
   38MOL   C69627410   2.848   6.713   1.027 -0.2311 -0.5285 -0.2397
   38MOL   C69727411   2.705   6.657   1.063 -0.3009 -0.4160  0.0823
   38MOL   C69827412   2.580   6.734   1.008  0.2602  0.0428 -0.5046
   38MOL   C69927413   2.530   6.685   0.873 -0.3548 -0.6314  0.9768
   38MOL   C70027414   2.407   6.755   0.821  0.3136 -0.1615 -0.5457
   38MOL   N70127415   2.391   6.708   0.682 -0.4132  0.6284 -0.0852
   38MOL   C70227416   3.279   6.900   1.026  0.3831 -0.2666 -0.7747
   38MOL   C70327417   3.383   6.988   0.975 -0.7400 -0.0458 -1.0584
   38MOL   H70427418   3.659   6.821   1.087 -0.1618 -0.6008  1.8072
   38MOL   H70527419   3.480   6.666   1.177  0.6483 -1.4956 -1.3037
   38MOL   H70627420   3.085   6.755   0.986 -1.6100 -1.7126 -1.5156
   38MOL   H70727421   2.956   6.521   1.029  3.6762 -1.0606  0.9084
   38MOL   H70827422   2.963   6.619   1.177 -0.4706  1.3247 -0.0571
   38MOL   H70927423   2.851   6.727   0.919 -0.3380 -0.7878 -0.2778
   38MOL   H71027424   2.860   6.815   1.061  0.6858 -0.5155 -0.5828
   38MOL   H71127425   2.705   6.549   1.050  0.2602 -0.3773 -0.2209
   38MOL   H71227426   2.702   6.657   1.172  0.4975  0.6360  0.1151
   38MOL   H71327427   2.604   6.840   1.017  0.0476  0.0628 -0.1519
   38MOL   H71427428   2.507   6.701   1.082 -0.6550  2.8820 -0.0960
   38MOL   H71527429   2.505   6.581   0.890 -1.9658 -0.3106  0.6192
   38MOL   H71627430   2.608   6.697   0.797 -2.2714 -0.8330 -1.0576
   38MOL   H71727431   2.315   6.734   0.875  0.8630 -1.9027 -0.2812
   38MOL   H71827432   2.408   6.864   0.821 -1.4531 -0.1265 -2.5480
   38MOL   H71927433   2.324   6.761   0.628 -0.9573  0.8613  0.8092
   38MOL   H72027434   3.176   6.923   1.003  0.4122 -0.1451 -0.7878
   38MOL   H72127435   3.355   7.072   0.913  0.7207  1.5966  0.4494
   38MOL   H72227436   2.479   6.725   0.636 -1.9659 -0.1469 -3.4733
   39MOL     C127437   3.163   3.486   1.880  0.0578 -0.0679 -0.2027
   39MOL     O227438   3.244   3.391   1.889  0.3630 -0.4344  0.0652
   39MOL     C327439   3.202   3.627   1.925 -0.5157  0.1145 -0.0011
   39MOL     C427440   3.311   3.636   2.016 -0.2685 -0.1331  0.1394
   39MOL     C527441   3.349   3.764   2.057 -0.1487 -0.0054 -0.0467
   39MOL     C627442   3.271   3.876   2.025 -0.1173  0.1291  0.2920
   39MOL     C727443   3.322   4.012   2.060 -0.3446  0.3427  0.0857
   39MOL     O827444   3.408   4.033   2.141 -0.5252  0.1611 -0.1488
   39MOL     N927445   3.258   4.120   2.007 -0.3186 -0.0932 -0.5071
   39MOL    C1027446   3.276   4.258   2.055  0.0170  0.5659  0.0727
   39MOL    C1127447   3.145   4.335   2.074  0.4159 -0.0497 -0.9648
   39MOL    C1227448   3.149   4.459   2.161  0.2863 -0.8777 -0.2940
   39MOL    C1327449   3.025   4.548   2.167 -0.0451  0.3465 -0.2342
   39MOL    C1427450   3.049   4.678   2.246  0.1403  0.2595 -0.6102
   39MOL    C1527451   3.094   4.662   2.389 -0.7133  0.1693  0.0395
   39MOL    N1627452   3.093   4.785   2.467  0.3398  0.1806  0.1563
   39MOL    C1727453   3.161   3.863   1.939 -0.0007  0.0566 -0.1070
   39MOL    C1827454   3.126   3.741   1.889 -0.3652 -0.4277  0.0200
   39MOL    H1927455   3.376   3.555   2.043  0.3367  0.1609 -0.4136
   39MOL    H2027456   3.441   3.783   2.110 -1.3818  0.4929  1.9812
   39MOL    H2127457   3.181   4.109   1.942 -0.6390 -0.7434 -0.0243
   39MOL    H2227458   3.343   4.275   2.140 -0.3341 -2.2171  0.9731
   39MOL    H2327459   3.331   4.319   1.983  1.2116  0.5214  0.9224
   39MOL    H2427460   3.081   4.262   2.125  2.8821 -1.8810 -0.4109
   39MOL    H2527461   3.102   4.347   1.974  1.3065  1.1887 -1.2090
   39MOL    H2627462   3.174   4.429   2.263  3.1521  1.6653 -0.1641
   39MOL    H2727463   3.225   4.528   2.123 -0.0929 -0.6918 -0.7202
   39MOL    H2827464   2.946   4.492   2.218  0.0426  0.7081  0.3003
   39MOL    H2927465   2.992   4.569   2.065  0.4243 -0.6246 -0.5987
   39MOL    H3027466   2.955   4.733   2.237 -0.9173 -1.3850  0.0961
   39MOL    H3127467   3.121   4.740   2.192  0.4336  1.7919  1.4915
   39MOL    H3227468   3.027   4.584   2.425 -0.9016  0.4669  0.3298
   39MOL    H3327469   3.195   4.623   2.394 -1.1307 -0.7037  2.1748
   39MOL    H3427470   3.046   4.867   2.430 -0.9545 -0.3354  0.6138
   39MOL    H3527471   3.104   3.950   1.912 -0.8929  0.2380  2.2798
   39MOL    H3627472   3.045   3.741   1.818 -0.6406  0.6096  0.3340
   39MOL    H3727473   3.059   3.471   1.852 -0.4273 -0.3602  1.6394
   39MOL    C3827474   3.152   4.796   2.584  0.1915 -0.5371  0.5227
   39MOL    O3927475   3.221   4.708   2.636  0.3396  0.3702 -0.2098
   39MOL    C4027476   3.127   4.936   2.643  0.4484  0.8874  1.2431
   39MOL    C4127477   2.999   4.993   2.643  0.4874 -0.1973  0.1900
   39MOL    C4227478   2.964   5.106   2.720 -0.1068  0.3364 -0.3501
   39MOL    C4327479   3.068   5.170   2.791  0.0436 -0.9827 -0.4591
   39MOL    C4427480   3.043   5.288   2.885  0.1794 -0.1502  0.1139
   39MOL    O4527481   3.125   5.378   2.902  0.0367 -0.2083  0.3599
   39MOL    N4627482   2.935   5.274   2.967 -0.2658  0.1131 -0.4757
   39MOL    C4727483   2.899   5.376   3.067  0.4117 -0.3851  0.0063
   39MOL    C4827484   2.970   5.347   3.200  0.0797  1.1785  0.1749
   39MOL    C4927485   2.909   5.226   3.272 -0.5129  0.3746 -0.2281
   39MOL    C5027486   2.933   5.213   3.418 -0.0947 -0.3124 -0.1011
   39MOL    C5127487   2.831   5.126   3.491 -0.9071  0.2559 -0.3914
   39MOL    C5227488   2.708   5.206   3.542 -0.5006 -0.2043 -0.7958
   39MOL    N5327489   2.606   5.128   3.614 -0.4502  0.1259  0.8347
   39MOL    C5427490   3.200   5.122   2.786 -0.8067  0.7195 -0.0910
   39MOL    C5527491   3.233   5.009   2.707 -0.0653  0.4559  0.0199
   39MOL    H5627492   2.927   4.943   2.580  0.9599 -0.7160  0.0523
   39MOL    H5727493   2.861   5.139   2.723  0.1588  1.2761 -1.4488
   39MOL    H5827494   2.887   5.186   2.966 -1.5639  0.8138 -0.0951
   39MOL    H5927495   2.937   5.472   3.033 -0.9590  1.0988  2.5774
   39MOL    H6027496   2.790   5.372   3.076  0.5395  1.6280  3.0653
   39MOL    H6127497   2.951   5.433   3.265 -0.4700 -1.0429  3.0886
   39MOL    H6227498   3.075   5.338   3.173 -0.1634  2.4756 -1.2416
   39MOL    H6327499   2.802   5.244   3.263 -0.7889 -1.2127 -0.4007
   39MOL    H6427500   2.947   5.134   3.228 -0.6233 -0.0078  0.4642
   39MOL    H6527501   2.926   5.308   3.470  0.1814 -0.7595  0.7818
   39MOL    H6627502   3.036   5.183   3.439 -0.3765 -1.4661 -0.2861
   39MOL    H6727503   2.866   5.078   3.582 -2.4889 -1.6463 -0.7590
   39MOL    H6827504   2.812   5.039   3.428  2.8121 -0.6486 -0.4005
   39MOL    H6927505   2.742   5.288   3.605  1.3485 -0.9026 -0.8401
   39MOL    H7027506   2.658   5.245   3.454 -1.1496  1.5853  0.3421
   39MOL    H7127507   2.605   5.154   3.711 -1.2646  2.4158  0.2526
   39MOL    H7227508   3.281   5.167   2.842  0.5799 -1.4253 -0.2830
   39MOL    H7327509   3.333   4.969   2.714 -0.6658 -0.9746  0.7849
   39MOL    C7427510   2.515   5.048   3.567  0.3766 -0.6025  0.4794
   39MOL    O7527511   2.510   5.016   3.448 -0.3665  0.2229 -0.4700
   39MOL    C7627512   2.430   4.978   3.675 -0.7579  0.2259  0.1195
   39MOL    C7727513   2.343   4.869   3.646 -0.3110 -0.7493  0.1882
   39MOL    C7827514   2.257   4.824   3.749  0.8247 -0.0457 -0.1476
   39MOL    C7927515   2.274   4.867   3.886  0.1784 -0.2680 -0.0946
   39MOL    C8027516   2.187   4.815   3.999  0.0198  0.4086 -0.0082
   39MOL    O8127517   2.114   4.882   4.074 -0.1273  0.0524  0.4852
   39MOL    N8227518   2.199   4.682   4.011 -0.3423 -0.0460 -0.3050
   39MOL    C8327519   2.134   4.605   4.118 -1.0673  0.2295  0.5747
   39MOL    C8427520   2.131   4.460   4.080 -0.0164 -0.6717 -0.2058
   39MOL    C8527521   2.025   4.438   3.977 -0.1561 -0.3391  0.6640
   39MOL    C8627522   2.026   4.312   3.892 -0.0977  0.4205 -0.2085
   39MOL    C8727523   2.154   4.298   3.798  0.9591  0.6529 -0.4924
   39MOL    C8827524   2.163   4.402   3.684 -0.1035 -0.1093  0.6425
   39MOL    N8927525   2.296   4.437   3.643 -0.6689 -0.7045 -0.0498
   39MOL    C9027526   2.366   4.967   3.914 -0.1383 -0.2915  0.1868
   39MOL    C9127527   2.439   5.027   3.810 -0.1711  0.0796  0.3451
   39MOL    H9227528   2.335   4.833   3.544 -0.1298  1.1818 -0.5256
   39MOL    H9327529   2.189   4.741   3.736  0.5284 -0.4470  3.3724
   39MOL    H9427530   2.265   4.637   3.949  0.7512 -0.5191  1.1831
   39MOL    H9527531   2.193   4.615   4.210 -1.6877 -1.3629  1.1523
   39MOL    H9627532   2.033   4.642   4.132 -1.4543 -0.3860 -0.5809
   39MOL    H9727533   2.109   4.391   4.161  3.3668  0.8990  2.1551
   39MOL    H9827534   2.224   4.417   4.044  1.3377 -0.5054  2.9158
   39MOL    H9927535   1.931   4.438   4.033 -0.6123 -0.5360 -0.0956
   39MOL   H10027536   2.006   4.527   3.917 -0.1593  0.7629  2.2442
   39MOL   H10127537   1.946   4.295   3.820 -0.4240  1.1277 -0.0087
   39MOL   H10227538   2.017   4.225   3.958 -0.6610  1.9188  1.7234
   39MOL   H10327539   2.176   4.199   3.758  1.6738  0.0854  1.2210
   39MOL   H10427540   2.237   4.309   3.868  2.9653  3.3428 -3.1741
   39MOL   H10527541   2.129   4.366   3.587 -0.9900  2.3532  0.0078
   39MOL   H10627542   2.111   4.493   3.716  0.3004  0.0040  0.9735
   39MOL   H10727543   2.307   4.445   3.543 -0.6522 -0.6775 -0.0456
   39MOL   H10827544   2.372   5.005   4.015 -1.3484  1.2217 -0.3014
   39MOL   H10927545   2.502   5.113   3.830  2.7054 -1.7756 -0.4130
   39MOL   C11027546   2.395   4.496   3.712 -0.4620 -0.4336  0.3501
   39MOL   O11127547   2.385   4.532   3.827  0.9787 -0.4541 -0.4077
   39MOL   C11227548   2.510   4.550   3.639  0.0229  0.4178  0.1558
   39MOL   C11327549   2.548   4.495   3.515  0.2584  0.6769 -0.1309
   39MOL   C11427550   2.660   4.531   3.445  0.7355 -0.4860 -0.4755
   39MOL   C11527551   2.730   4.649   3.486  0.0543  0.3697 -0.3898
   39MOL   C11627552   2.836   4.697   3.400  0.7710  0.3209  0.5609
   39MOL   O11727553   2.844   4.661   3.284  0.0231  0.0182 -0.1574
   39MOL   N11827554   2.932   4.766   3.458 -0.7488 -0.2301  0.0775
   39MOL   C11927555   3.044   4.813   3.376 -0.3049 -0.8380  0.2288
   39MOL   C12027556   3.160   4.885   3.459 -0.1416  0.2791 -0.1744
   39MOL   C12127557   3.281   4.929   3.378  0.4713 -0.3794 -1.0676
   39MOL   C12227558   3.394   4.984   3.469  0.5674  0.2774 -0.3823
   39MOL   C12327559   3.523   5.012   3.396 -0.1825 -0.5297 -0.1896
   39MOL   C12427560   3.638   5.052   3.486  0.0538  0.1565  0.2223
   39MOL   N12527561   3.668   4.966   3.601 -1.0399  0.2530 -0.0904
   39MOL   C12627562   2.695   4.713   3.606  0.3387 -0.6447  0.1208
   39MOL   C12727563   2.587   4.659   3.683  0.0196 -0.9331  0.5085
   39MOL   H12827564   2.490   4.412   3.477  2.8205 -0.3759 -1.8191
   39MOL   H12927565   2.685   4.493   3.347 -0.0032  0.4211 -1.0180
   39MOL   H13027566   2.947   4.781   3.557  1.0553 -2.8590  0.2583
   39MOL   H13127567   3.093   4.731   3.324 -0.0848 -0.8424  0.4423
   39MOL   H13227568   3.002   4.883   3.304 -0.3443  0.1477  1.1916
   39MOL   H13327569   3.188   4.821   3.543  2.6813  0.5406 -0.8492
   39MOL   H13427570   3.124   4.976   3.505  0.6173 -1.5994  4.3582
   39MOL   H13527571   3.330   4.850   3.321 -0.6544 -0.8655 -1.3768
   39MOL   H13627572   3.244   5.005   3.308  0.0250 -0.5166 -0.9873
   39MOL   H13727573   3.416   4.915   3.550 -0.2050 -0.1871 -0.5621
   39MOL   H13827574   3.362   5.073   3.523 -0.6000 -0.2324 -0.2145
   39MOL   H13927575   3.497   5.080   3.315 -0.9625  1.4240  1.6660
   39MOL   H14027576   3.553   4.920   3.346  1.6724  0.8996 -1.7666
   39MOL   H14127577   3.729   5.062   3.427 -0.4239  0.9899 -0.4032
   39MOL   H14227578   3.608   5.153   3.516  1.6317  0.9527 -0.8062
   39MOL   H14327579   3.621   4.983   3.688  0.1381 -1.7869  0.9998
   39MOL   H14427580   2.740   4.805   3.641 -0.3546 -0.1321 -0.3136
   39MOL   H14527581   2.550   4.717   3.766  0.8313  0.3306 -0.0003
   39MOL   C14627582   3.751   4.863   3.612  0.2021 -0.4331 -0.5236
   39MOL   O14727583   3.752   4.799   3.718  0.2671  0.5131  0.1821
   39MOL   C14827584   3.842   4.831   3.495 -0.1686 -0.5968 -0.1441
   39MOL   C14927585   3.978   4.820   3.513  0.3832 -0.2791 -0.3033
   39MOL   C15027586   4.067   4.780   3.410 -0.1701 -0.1379 -0.7341
   39MOL   C15127587   4.015   4.750   3.282 -0.2053 -0.2633 -0.2725
   39MOL   C15227588   4.103   4.722   3.169 -0.0370 -0.4102  0.0093
   39MOL   O15327589   4.058   4.672   3.068  0.1264  0.0003 -0.3504
   39MOL   N15427590   4.234   4.756   3.176  0.2766  0.4782 -0.7107
   39MOL   C15527591   4.329   4.764   3.064  0.3339 -0.4879 -0.1651
   39MOL   C15627592   4.381   4.627   3.024  0.2054  0.2005 -0.1146
   39MOL   C15727593   4.468   4.624   2.897 -0.6607 -0.2620  0.3244
   39MOL   C15827594   4.387   4.604   2.764  0.2518 -0.1351 -0.4469
   39MOL   C15927595   4.485   4.613   2.641  0.1186 -0.4695  0.6411
   39MOL   C16027596   4.418   4.571   2.513 -0.3066 -0.4475 -0.1663
   39MOL   N16127597   4.417   4.424   2.488  0.1608 -0.2345 -0.0080
   39MOL   C16227598   3.874   4.739   3.268 -0.5727  0.2240 -0.4927
   39MOL   C16327599   3.786   4.788   3.369  0.4277 -0.1088 -0.0645
   39MOL   H16427600   4.022   4.838   3.610  1.1758 -1.3133 -0.4608
   39MOL   H16527601   4.173   4.796   3.415 -0.4276  1.0577  1.7886
   39MOL   H16627602   4.263   4.795   3.265 -0.2577  0.1243 -0.3753
   39MOL   H16727603   4.276   4.812   2.981  1.3934 -0.7797 -1.0115
   39MOL   H16827604   4.416   4.822   3.094  0.8573 -2.2565  1.8451
   39MOL   H16927605   4.312   4.545   3.003  1.1171 -0.2516 -1.5026
   39MOL   H17027606   4.451   4.604   3.104  0.3915  0.4471 -0.2047
   39MOL   H17127607   4.528   4.714   2.886 -1.1603  0.2046  1.4114
   39MOL   H17227608   4.537   4.540   2.907 -0.3515  0.0281  0.6183
   39MOL   H17327609   4.315   4.685   2.750  0.2882 -0.1956 -1.0016
   39MOL   H17427610   4.336   4.508   2.758  0.5687 -0.2487 -1.4149
   39MOL   H17527611   4.567   4.549   2.675 -0.5830 -1.0936  1.2159
   39MOL   H17627612   4.529   4.712   2.630  2.1196 -1.7482 -3.7524
   39MOL   H17727613   4.321   4.618   2.498  0.2858  0.5712 -0.8811
   39MOL   H17827614   4.478   4.631   2.445  0.4680 -0.9766  0.0503
   39MOL   H17927615   4.386   4.363   2.563  2.0857 -1.7205 -0.3776
   39MOL   H18027616   3.836   4.692   3.178 -0.1333  1.5722 -1.3995
   39MOL   H18127617   3.679   4.769   3.363  0.0362  1.0630  2.4018
   39MOL   C18227618   4.463   4.382   2.372  0.3618  0.0210 -0.0863
   39MOL   O18327619   4.495   4.455   2.271 -0.6608 -0.3305 -0.2299
   39MOL   C18427620   4.491   4.231   2.368  0.4469 -0.0951  0.0424
   39MOL   C18527621   4.619   4.180   2.327 -0.4889 -0.4289 -0.0625
   39MOL   C18627622   4.633   4.040   2.330  0.8659 -0.4358 -0.0433
   39MOL   C18727623   4.524   3.954   2.360 -0.9702  0.2891  0.2574
   39MOL   C18827624   4.546   3.809   2.359 -0.6831  0.1202 -0.2588
   39MOL   O18927625   4.658   3.763   2.329  0.1098  0.1366  0.5251
   39MOL   N19027626   4.436   3.735   2.388 -0.1966 -0.6150  0.3448
   39MOL   C19127627   4.450   3.593   2.436  0.4229  0.3436  0.5148
   39MOL   C19227628   4.393   3.490   2.329  0.5718  0.3924 -0.5371
   39MOL   C19327629   4.236   3.480   2.338  0.2866  0.9761 -0.4169
   39MOL   C19427630   4.171   3.384   2.243  0.3228  0.1145  0.0799
   39MOL   C19527631   4.020   3.401   2.243 -0.0857 -0.2828  0.1919
   39MOL   C19627632   3.950   3.363   2.370  0.6083 -0.0611 -0.6986
   39MOL   N19727633   3.802   3.347   2.351 -0.2540 -0.1319 -0.2946
   39MOL   C19827634   4.404   4.004   2.405 -0.2455 -0.6745 -0.5065
   39MOL   C19927635   4.389   4.142   2.405  0.5186  0.2039  0.3267
   39MOL   H20027636   4.705   4.243   2.310  1.3673 -2.4809  1.3571
   39MOL   H20127637   4.727   3.993   2.306  0.5419  0.5809 -3.5312
   39MOL   H20227638   4.341   3.767   2.396  0.0762 -0.3182  2.5590
   39MOL   H20327639   4.552   3.567   2.464 -0.7638 -2.0839  2.8328
   39MOL   H20427640   4.399   3.578   2.531  0.9112  2.0224  1.0583
   39MOL   H20527641   4.437   3.393   2.351  2.1283  1.1435 -0.2547
   39MOL   H20627642   4.430   3.521   2.232  0.9655  1.3233 -0.0980
   39MOL   H20727643   4.193   3.464   2.437  2.2469 -2.0896 -0.0167
   39MOL   H20827644   4.207   3.579   2.302  1.9075  1.1120 -1.3630
   39MOL   H20927645   4.196   3.282   2.274 -1.9864 -0.3071  0.6412
   39MOL   H21027646   4.218   3.396   2.145  0.9350 -1.6600  0.1345
   39MOL   H21127647   4.000   3.332   2.161 -1.5955  2.2657 -1.6653
   39MOL   H21227648   3.978   3.489   2.194  0.2150 -1.2408 -1.8503
   39MOL   H21327649   3.997   3.272   2.406 -0.7695 -0.7016 -0.4830
   39MOL   H21427650   3.959   3.437   2.449  1.4499 -1.7488  0.8264
   39MOL   H21527651   3.751   3.385   2.429  0.7119  2.1757 -0.7384
   39MOL   H21627652   4.328   3.939   2.445 -1.4206  0.9368 -0.0576
   39MOL   H21727653   4.289   4.166   2.437  1.4004  2.6165  1.3573
   39MOL   C21827654   3.722   3.295   2.252 -0.8673 -0.1155  0.5395
   39MOL   O21927655   3.767   3.256   2.145  0.4229 -0.0586 -0.4795
   39MOL   C22027656   3.571   3.277   2.274 -0.9161 -0.1975 -0.8393
   39MOL   C22127657   3.483   3.279   2.163  0.3625  0.2097 -0.2576
   39MOL   C22227658   3.345   3.254   2.180 -0.5309  0.6510 -0.1803
   39MOL   C22327659   3.299   3.233   2.314  0.4288  0.1618  0.4479
   39MOL   C22427660   3.153   3.223   2.336 -0.1214  0.4962 -0.2262
   39MOL   O22527661   3.072   3.299   2.287  0.2578  0.5631  0.0290
   39MOL   N22627662   3.112   3.132   2.422  0.2497  0.1509  0.0801
   39MOL   C22727663   2.973   3.088   2.435 -0.8718 -0.0967 -0.7528
   39MOL   C22827664   2.943   3.040   2.575  0.4800 -0.5433 -0.2698
   39MOL   C22927665   3.008   3.132   2.684 -0.3039 -0.2405 -0.7734
   39MOL   C23027666   2.993   3.283   2.688 -0.3165  0.7291 -0.0919
   39MOL   C23127667   3.115   3.349   2.749  0.3491  0.2106 -0.8935
   39MOL   C23227668   3.116   3.510   2.744  0.9930  0.5714 -0.0997
   39MOL   N23327669   3.227   3.569   2.809  0.3860  0.0129 -0.3506
   39MOL   C23427670   3.387   3.222   2.424 -0.3249  0.2002 -0.5422
   39MOL   C23527671   3.523   3.240   2.400 -0.7161  0.0668 -0.5088
   39MOL   H23627672   3.515   3.312   2.066  0.5967  1.8499  0.3724
   39MOL   H23727673   3.274   3.261   2.099  0.0172  1.0631 -0.6358
   39MOL   H23827674   3.177   3.071   2.469  0.7372  0.3718 -0.3019
   39MOL   H23927675   2.902   3.160   2.393  0.2027  0.4190 -1.6903
   39MOL   H24027676   2.963   2.998   2.374  0.9844 -0.9183  0.1090
   39MOL   H24127677   2.970   2.935   2.586  0.4779 -0.6365 -1.1035
   39MOL   H24227678   2.835   3.035   2.592  0.5835  1.1152  0.9275
   39MOL   H24327679   2.993   3.076   2.776  1.2944  1.6758  0.7003
   39MOL   H24427680   3.116   3.120   2.679  0.1420  2.2034  1.7117
   39MOL   H24527681   2.911   3.297   2.758 -0.1597  1.7871 -0.1115
   39MOL   H24627682   2.949   3.330   2.600  1.8958 -0.0904 -1.6737
   39MOL   H24727683   3.204   3.323   2.692  1.2310  1.3664 -0.0761
   39MOL   H24827684   3.146   3.318   2.849 -2.9065  0.2407  0.2111
   39MOL   H24927685   3.106   3.533   2.638 -3.6993 -0.7728 -0.0286
   39MOL   H25027686   3.023   3.553   2.779 -0.7975 -2.6184 -0.7615
   39MOL   H25127687   3.306   3.584   2.748  1.7400  0.5978  1.5004
   39MOL   H25227688   3.354   3.212   2.526  0.1042 -0.4323 -0.4661
   39MOL   H25327689   3.588   3.242   2.486 -2.6975 -0.8514  1.0539
   39MOL   C25427690   3.235   3.614   2.937  0.2918 -0.4072 -0.0946
   39MOL   O25527691   3.129   3.612   3.004 -0.0676 -0.0286  0.4411
   39MOL   C25627692   3.366   3.646   3.006  0.5888  0.3154  0.9106
   39MOL   C25727693   3.486   3.644   2.928  0.1429 -0.5642  0.0349
   39MOL   C25827694   3.596   3.708   2.982 -0.6189 -0.2073 -0.4673
   39MOL   C25927695   3.601   3.766   3.110  0.1067  0.5570  0.1776
   39MOL   C26027696   3.720   3.840   3.151  0.1186  0.0137 -0.5289
   39MOL   O26127697   3.755   3.835   3.274  0.0061  0.3880  0.0309
   39MOL   N26227698   3.777   3.915   3.057  0.3942 -0.1123 -0.2372
   39MOL   C26327699   3.866   4.025   3.075 -0.0958  0.3442  0.0319
   39MOL   C26427700   3.787   4.160   3.059 -0.7702  0.4697  0.0271
   39MOL   C26527701   3.645   4.174   3.134 -0.1593  1.1073 -0.2829
   39MOL   C26627702   3.590   4.317   3.142 -0.1752  0.2408  0.4929
   39MOL   C26727703   3.604   4.408   3.016  0.4912  0.0011 -0.4887
   39MOL   C26827704   3.595   4.557   3.048  0.7224  0.2099 -0.3836
   39MOL   N26927705   3.466   4.618   3.017  0.1418 -0.2395  0.1544
   39MOL   C27027706   3.490   3.740   3.192  0.2580 -0.0589  0.4169
   39MOL   C27127707   3.367   3.702   3.137 -0.4546  0.1573 -0.0207
   39MOL   H27227708   3.488   3.605   2.827  2.2285 -1.9493  0.5928
   39MOL   H27327709   3.690   3.695   2.931 -0.2437  2.0835 -0.4253
   39MOL   H27427710   3.760   3.906   2.958  3.4291 -0.9478 -0.7438
   39MOL   H27527711   3.922   4.016   3.167  2.2308 -0.1011 -1.3916
   39MOL   H27627712   3.948   4.028   3.003  0.5007 -2.2074  0.5731
   39MOL   H27727713   3.777   4.195   2.956 -1.2582 -0.3034 -0.1895
   39MOL   H27827714   3.857   4.235   3.097 -0.9980  0.0934  1.1937
   39MOL   H27927715   3.561   4.121   3.089 -1.3541  4.0571 -1.6384
   39MOL   H28027716   3.651   4.142   3.238  0.7559 -0.3670 -0.7599
   39MOL   H28127717   3.628   4.352   3.238  0.4217 -0.7457  0.6237
   39MOL   H28227718   3.483   4.324   3.166  0.1535 -1.2421  2.4436
   39MOL   H28327719   3.526   4.382   2.944 -0.3371  2.8420 -0.6660
   39MOL   H28427720   3.708   4.408   2.984  2.0803 -1.6896  4.2322
   39MOL   H28527721   3.618   4.590   3.150  0.7892  1.2682 -0.7366
   39MOL   H28627722   3.672   4.613   2.996  0.9886  0.1930 -0.0145
   39MOL   H28727723   3.401   4.551   2.978 -0.6221  1.5339 -1.7288
   39MOL   H28827724   3.479   3.781   3.291  3.9808  2.9676 -0.3027
   39MOL   H28927725   3.274   3.716   3.191 -0.6579 -0.9919 -0.0734
   39MOL   C29027726   3.431   4.740   3.062 -0.8519  0.3408  0.8157
   39MOL   O29127727   3.510   4.824   3.103  1.0051 -0.1527 -0.4568
   39MOL   C29227728   3.286   4.776   3.051  0.1082  0.8621  0.4010
   39MOL   C29327729   3.191   4.677   3.046  0.2875  0.0647  0.0076
   39MOL   C29427730   3.052   4.712   3.040  0.1825  0.2013 -0.3271
   39MOL   C29527731   3.009   4.848   3.038  0.0502 -0.0417 -0.3304
   39MOL   C29627732   2.869   4.900   3.020  0.1488 -0.0080  0.2926
   39MOL   O29727733   2.840   5.020   3.009  0.1351  0.0775 -0.0252
   39MOL   N29827734   2.775   4.807   3.013  0.1247 -0.8738 -0.2208
   39MOL   C29927735   2.634   4.837   3.006  0.2615  0.0378 -0.3641
   39MOL   C30027736   2.548   4.733   3.076 -0.2248  1.1935 -0.2551
   39MOL   C30127737   2.585   4.588   3.038  0.2012  0.3209 -0.3097
   39MOL   C30227738   2.470   4.490   3.070  0.6547  0.6605  0.0145
   39MOL   C30327739   2.496   4.348   3.029 -1.3244 -0.3770  0.0320
   39MOL   C30427740   2.470   4.330   2.873 -0.0389  0.4916  0.2253
   39MOL   N30527741   2.507   4.190   2.842 -0.2250 -0.2585  0.4692
   39MOL   C30627742   3.110   4.940   3.047  0.0371  0.4483 -1.3082
   39MOL   C30727743   3.246   4.905   3.051 -0.2688  0.0917  0.0326
   39MOL   H30827744   3.216   4.577   3.014 -2.0560 -0.7315  0.5799
   39MOL   H30927745   2.982   4.632   3.016 -0.5778  0.4189  1.1205
   39MOL   H31027746   2.815   4.714   3.022 -0.2406 -0.8363  2.0107
   39MOL   H31127747   2.621   4.935   3.053  4.4484  0.5260 -0.0469
   39MOL   H31227748   2.620   4.860   2.901  1.1100 -1.4008 -0.8037
   39MOL   H31327749   2.444   4.750   3.046 -0.9043 -3.2397 -0.8755
   39MOL   H31427750   2.555   4.739   3.184 -0.3859  0.6084 -0.2076
   39MOL   H31527751   2.609   4.589   2.932 -0.0206  2.2269 -0.3637
   39MOL   H31627752   2.674   4.554   3.091 -1.2294 -0.4017  1.6834
   39MOL   H31727753   2.373   4.524   3.032  1.4219  3.2502  0.2877
   39MOL   H31827754   2.443   4.487   3.176  2.5824  1.2738  0.5331
   39MOL   H31927755   2.422   4.285   3.078 -0.3373 -1.1940  0.4863
   39MOL   H32027756   2.590   4.304   3.063 -1.4906 -1.4069 -0.8350
   39MOL   H32127757   2.368   4.344   2.839 -0.1492  0.3265  0.4839
   39MOL   H32227758   2.534   4.390   2.809 -0.2191  1.2140  0.7186
   39MOL   H32327759   2.545   4.132   2.915  1.1604 -0.4346 -0.3773
   39MOL   H32427760   3.086   5.045   3.042 -2.6565 -0.0853 -0.0547
   39MOL   H32527761   3.313   4.989   3.039  1.5865 -1.5246 -1.1198
   39MOL   C32627762   2.490   4.137   2.718 -0.2714  0.5087 -0.1585
   39MOL   O32727763   2.457   4.201   2.613 -0.3931 -0.7129  0.0325
   39MOL   C32827764   2.519   3.996   2.703  0.3162  1.0337 -0.2475
   39MOL   C32927765   2.439   3.902   2.767  0.4548  1.3208 -0.0572
   39MOL   C33027766   2.468   3.766   2.751  0.1390  0.3029  0.1477
   39MOL   C33127767   2.566   3.719   2.657  1.2313  0.8285 -0.2610
   39MOL   C33227768   2.583   3.570   2.633  0.0235  0.9378 -0.2798
   39MOL   O33327769   2.571   3.485   2.724 -0.5110  0.2765  0.3554
   39MOL   N33427770   2.595   3.538   2.499 -0.4862  0.3026 -0.4881
   39MOL   C33527771   2.615   3.404   2.455 -0.2461  0.1884 -0.2387
   39MOL   C33627772   2.569   3.393   2.306  0.3769 -1.0328 -0.2500
   39MOL   C33727773   2.619   3.265   2.238 -0.0059  0.2090  0.1018
   39MOL   C33827774   2.577   3.254   2.086 -0.2294  0.5268  0.2580
   39MOL   C33927775   2.609   3.121   2.028  0.4035 -0.0062  0.0299
   39MOL   C34027776   2.763   3.101   2.008 -0.2377 -0.0724 -0.2692
   39MOL   N34127777   2.826   3.201   1.918 -0.6608  0.5632 -0.4777
   39MOL   C34227778   2.641   3.817   2.586  0.6637  0.0418 -0.1244
   39MOL   C34327779   2.619   3.957   2.608  0.2051  0.4961  0.4213
   39MOL   H34427780   2.353   3.921   2.829 -0.1189 -2.4970  0.4412
   39MOL   H34527781   2.408   3.692   2.802  2.1575 -0.2704  1.7526
   39MOL   H34627782   2.599   3.621   2.441 -0.8233  1.1268  0.6520
   39MOL   H34727783   2.716   3.370   2.481 -0.7397  0.7898  2.5891
   39MOL   H34827784   2.555   3.336   2.515  1.2123 -0.0385  0.9802
   39MOL   H34927785   2.608   3.480   2.253  0.7631 -1.1039 -0.0887
   39MOL   H35027786   2.461   3.393   2.298  0.3558 -0.7726  0.0308
   39MOL   H35127787   2.726   3.265   2.256 -0.2378 -2.3517  1.6788
   39MOL   H35227788   2.573   3.178   2.284 -1.5410  1.4127  0.8875
   39MOL   H35327789   2.620   3.337   2.030 -0.3790  1.5974  1.7054
   39MOL   H35427790   2.470   3.275   2.090 -0.8483 -2.7160  2.5975
   39MOL   H35527791   2.556   3.102   1.935  1.8722 -0.2820 -0.7716
   39MOL   H35627792   2.576   3.039   2.092  0.3377 -0.9884 -1.2300
   39MOL   H35727793   2.818   3.122   2.099 -0.2147 -0.5692 -0.1689
   39MOL   H35827794   2.788   2.998   1.984 -0.8447 -0.3551  0.3234
   39MOL   H35927795   2.848   3.290   1.960 -0.7042 -0.4035  1.6518
   39MOL   H36027796   2.713   3.774   2.518  1.1003  1.5046 -0.6097
   39MOL   H36127797   2.675   4.039   2.567  1.8505  0.1016  1.8592
   39MOL   C36227798   2.865   3.178   1.794 -0.1771 -1.0949 -0.1919
   39MOL   O36327799   2.884   3.072   1.745 -0.3062  0.0155 -0.3224
   39MOL   C36427800   2.886   3.302   1.718 -0.3943  0.0909 -0.0665
   39MOL   C36527801   2.799   3.410   1.730 -0.6171  0.0209 -1.1021
   39MOL   C36627802   2.824   3.535   1.658  0.3477 -0.2871  0.0374
   39MOL   C36727803   2.935   3.539   1.565 -0.0450 -1.2319  0.1737
   39MOL   C36827804   2.951   3.659   1.474  0.4287  0.5661  0.0435
   39MOL   O36927805   2.869   3.749   1.463  0.4834  0.4283  0.6701
   39MOL   N37027806   3.070   3.668   1.413 -0.0884 -0.7778 -0.4001
   39MOL   C37127807   3.117   3.787   1.344 -0.2846  0.0217  0.3336
   39MOL   C37227808   3.046   3.813   1.207  0.2555 -0.1570  0.1335
   39MOL   C37327809   3.087   3.950   1.145  0.4427 -0.5498 -0.2304
   39MOL   C37427810   3.031   4.075   1.217 -1.0258  0.0933  0.1651
   39MOL   C37527811   2.876   4.084   1.212  0.3999 -0.2653 -0.0599
   39MOL   C37627812   2.817   4.196   1.293 -0.1361  0.8543 -0.1256
   39MOL   N37727813   2.675   4.217   1.249  0.3051  0.7119  0.6854
   39MOL   C37827814   3.013   3.421   1.551 -0.2647  0.1671 -0.4662
   39MOL   C37927815   2.996   3.304   1.626 -0.0433 -0.5038 -0.2117
   39MOL   H38027816   2.716   3.397   1.798  1.6275 -1.3727  1.4737
   39MOL   H38127817   2.759   3.619   1.674  0.2242 -0.3585 -0.0844
   39MOL   H38227818   3.135   3.591   1.412  1.9521  0.8568  1.6427
   39MOL   H38327819   3.109   3.865   1.420 -0.3226 -0.1423  0.4999
   39MOL   H38427820   3.223   3.786   1.321 -0.0251  1.8587  1.3250
   39MOL   H38527821   2.937   3.810   1.212  0.2883 -0.2687  0.9437
   39MOL   H38627822   3.092   3.745   1.136  2.7005  1.0307  0.5075
   39MOL   H38727823   3.194   3.968   1.139  0.1419  1.6562  0.6661
   39MOL   H38827824   3.061   3.955   1.039 -0.2821  1.4007  0.0172
   39MOL   H38927825   3.087   4.159   1.178  3.6026 -2.4350  1.0238
   39MOL   H39027826   3.060   4.064   1.322  0.0242 -1.3193 -0.2596
   39MOL   H39127827   2.843   3.984   1.241 -2.2045  0.0168 -1.8905
   39MOL   H39227828   2.858   4.075   1.105  0.6926 -0.9962 -0.0508
   39MOL   H39327829   2.815   4.168   1.398 -0.4706  2.9571  0.4476
   39MOL   H39427830   2.873   4.289   1.291  1.0442  0.2776  3.2686
   39MOL   H39527831   2.608   4.154   1.290  0.9345 -1.2561 -1.2528
   39MOL   H39627832   3.100   3.427   1.486 -0.8444  0.8448 -1.1961
   39MOL   H39727833   3.067   3.224   1.614  2.1851  1.1300  1.5599
   39MOL   C39827834   2.639   4.287   1.140  0.8590  0.2261  0.4147
   39MOL   O39927835   2.718   4.351   1.072  0.1843  0.1775  0.3778
   39MOL   C40027836   2.490   4.293   1.112 -0.1947 -0.4583 -0.2075
   39MOL   C40127837   2.396   4.246   1.201  0.8013  0.4269  0.1231
   39MOL   C40227838   2.261   4.256   1.160 -0.0899 -0.7374 -0.0422
   39MOL   C40327839   2.222   4.309   1.033 -0.7566  0.5244  0.0316
   39MOL   C40427840   2.083   4.298   0.997 -0.1881 -0.1537  0.5694
   39MOL   O40527841   2.033   4.384   0.926  0.1111  0.1708 -0.1422
   39MOL   N40627842   2.027   4.187   1.037  0.0454 -0.2444 -0.0136
   39MOL   C40727843   1.902   4.133   0.990  0.2951  0.4391  0.0054
   39MOL   C40827844   1.882   3.989   1.035 -0.2933 -0.4342 -0.8035
   39MOL   C40927845   1.744   3.931   1.013  0.4401  0.5249 -0.6000
   39MOL   C41027846   1.713   3.804   1.089  0.1073  0.3812  0.2815
   39MOL   C41127847   1.808   3.688   1.084 -1.0463 -0.0235 -0.3465
   39MOL   C41227848   1.821   3.616   0.953 -0.0919 -0.0870  0.2549
   39MOL   N41327849   1.899   3.500   0.976 -0.0993  0.9395 -0.6085
   39MOL   C41427850   2.319   4.374   0.953 -0.2581 -0.4328  0.2987
   39MOL   C41527851   2.454   4.363   0.994 -0.4049 -0.1561 -0.5674
   39MOL   H41627852   2.422   4.196   1.293 -1.2790 -1.6104 -0.3518
   39MOL   H41727853   2.186   4.221   1.231 -0.1063 -0.1740  0.2172
   39MOL   H41827854   2.075   4.133   1.108 -1.1309 -1.5338 -0.1547
   39MOL   H41927855   1.813   4.188   1.022 -0.3670  0.7199 -2.1958
   39MOL   H42027856   1.895   4.126   0.881 -1.9076  0.6006  0.1151
   39MOL   H42127857   1.896   3.969   1.141 -1.3617  0.4082 -0.5038
   39MOL   H42227858   1.958   3.925   0.990  1.1524 -0.9868  2.3195
   39MOL   H42327859   1.686   4.018   1.044 -0.8263 -0.2344 -0.8075
   39MOL   H42427860   1.711   3.917   0.910  2.6328  1.1376 -1.4215
   39MOL   H42527861   1.610   3.771   1.078  0.2737  0.4427 -1.7293
   39MOL   H42627862   1.712   3.847   1.189 -2.5461  0.9286  0.0493
   39MOL   H42727863   1.779   3.612   1.156  0.0662 -0.7165 -0.6109
   39MOL   H42827864   1.908   3.723   1.109 -1.1125  0.0943 -0.2462
   39MOL   H42927865   1.717   3.592   0.929 -0.1159  0.5505 -0.2769
   39MOL   H43027866   1.859   3.685   0.879 -1.3424 -0.9269 -1.1865
   39MOL   H43127867   1.990   3.507   1.019 -1.6149  0.4383  2.8528
   39MOL   H43227868   2.288   4.422   0.862 -2.6496  2.3805  2.4686
   39MOL   H43327869   2.533   4.396   0.928  0.4483 -3.8456 -1.4970
   39MOL   C43427870   1.869   3.381   0.919  0.0834 -0.1811 -0.8696
   39MOL   O43527871   1.770   3.361   0.859 -0.4356  0.3546  0.2498
   39MOL   C43627872   1.975   3.278   0.933  0.2434  0.0783 -0.1538
   39MOL   C43727873   1.942   3.143   0.961 -0.3050  0.3526 -0.0849
   39MOL   C43827874   2.045   3.046   0.980 -0.0636  0.0816 -0.5043
   39MOL   C43927875   2.176   3.079   0.963 -0.6761  0.3548 -0.4337
   39MOL   C44027876   2.286   2.987   1.020 -0.1589  0.7205  0.3204
   39MOL   O44127877   2.262   2.873   1.047 -0.2272  0.0091  0.2590
   39MOL   N44227878   2.404   3.045   1.043  0.6549 -0.4183  0.1278
   39MOL   C44327879   2.507   3.012   1.137  0.3206 -0.0205  0.1145
   39MOL   C44427880   2.576   2.884   1.097  0.5693  0.4945 -0.5366
   39MOL   C44527881   2.634   2.896   0.954  0.5205  0.5848 -0.5118
   39MOL   C44627882   2.720   2.773   0.919 -0.1132  0.0099  0.0342
   39MOL   C44727883   2.804   2.787   0.793 -0.3964  0.7294 -0.2536
   39MOL   C44827884   2.919   2.686   0.783 -0.2748 -0.0302 -0.3998
   39MOL   N44927885   3.017   2.720   0.888  0.0248  0.0828  0.4937
   39MOL   C45027886   2.207   3.210   0.921  0.1980 -0.5346  0.1771
   39MOL   C45127887   2.106   3.308   0.908  0.4228  0.1097 -1.0394
   39MOL   H45227888   1.836   3.126   0.973 -0.3862  1.0653  0.2398
   39MOL   H45327889   2.015   2.954   1.027 -0.7933  0.4492 -0.2467
   39MOL   H45427890   2.375   3.140   1.022 -0.1507 -0.7613 -0.3487
   39MOL   H45527891   2.574   3.098   1.135  0.9023 -0.4812 -0.2292
   39MOL   H45627892   2.483   3.007   1.244 -2.1588  0.0080 -0.4248
   39MOL   H45727893   2.496   2.812   1.110  0.0050  0.9593 -1.3560
   39MOL   H45827894   2.645   2.860   1.178 -1.5184  1.9044  1.7258
   39MOL   H45927895   2.552   2.900   0.883 -0.8166  1.1880  1.0387
   39MOL   H46027896   2.695   2.986   0.945  2.5347 -0.6840 -0.0639
   39MOL   H46127897   2.669   2.676   0.916  1.1891 -0.6918  0.3789
   39MOL   H46227898   2.789   2.758   1.001  1.2984 -1.9165 -1.4534
   39MOL   H46327899   2.825   2.892   0.775  2.9037  0.3010  0.7604
   39MOL   H46427900   2.742   2.759   0.708  1.7618 -2.5876 -0.8180
   39MOL   H46527901   2.889   2.582   0.798 -2.0637  0.4947 -0.2430
   39MOL   H46627902   2.967   2.687   0.685  1.2179  0.3843  0.3082
   39MOL   H46727903   2.981   2.742   0.979  0.0228  1.4418  0.1643
   39MOL   H46827904   2.311   3.236   0.919 -0.1322  0.8507  0.8253
   39MOL   H46927905   2.127   3.411   0.882 -0.2604  0.4125 -0.4138
   39MOL   C47027906   3.144   2.739   0.863 -0.8175 -0.4832  0.0656
   39MOL   O47127907   3.200   2.720   0.754  0.2538  0.1457  0.5799
   39MOL   C47227908   3.222   2.795   0.979  0.6076  0.0990  0.3952
   39MOL   C47327909   3.359   2.810   0.962 -0.3022  0.3741 -0.6698
   39MOL   C47427910   3.429   2.864   1.069  0.3079 -1.3000 -0.1052
   39MOL   C47527911   3.369   2.885   1.196  0.4015  0.2691 -0.1647
   39MOL   C47627912   3.455   2.920   1.313  0.3219  0.7376  1.0680
   39MOL   O47727913   3.420   3.010   1.382 -0.4169  0.2222 -0.3321
   39MOL   N47827914   3.577   2.872   1.312 -1.1211  0.3412 -0.0011
   39MOL   C47927915   3.682   2.912   1.409 -1.2480  0.7563  0.1570
   39MOL   C48027916   3.750   2.781   1.460  0.1107  0.6665  0.1217
   39MOL   C48127917   3.855   2.788   1.573 -0.8349  0.4210 -0.5744
   39MOL   C48227918   4.002   2.815   1.529  0.3543 -0.4813 -0.5400
   39MOL   C48327919   4.030   2.928   1.439  0.3084 -0.3800  0.3799
   39MOL   C48427920   4.178   2.971   1.418 -0.1946 -0.0470  0.2012
   39MOL   N48527921   4.234   3.043   1.532 -0.3554 -0.2757  0.2095
   39MOL   C48627922   3.229   2.876   1.212  0.9189  0.0659  0.1169
   39MOL   C48727923   3.159   2.831   1.102 -0.5961  0.0996  0.1822
   39MOL   H48827924   3.409   2.793   0.868  0.6713  0.5075 -0.1855
   39MOL   H48927925   3.535   2.880   1.054  0.6300 -2.5239  0.7816
   39MOL   H49027926   3.617   2.819   1.235 -0.6903  0.2643  0.2698
   39MOL   H49127927   3.745   2.986   1.359 -0.3048  1.0413  1.6995
   39MOL   H49227928   3.636   2.971   1.489 -0.7438 -0.8988  1.7112
   39MOL   H49327929   3.795   2.727   1.377  0.4430 -0.6612  1.1446
   39MOL   H49427930   3.669   2.714   1.492  1.0998  0.5433  2.4446
   39MOL   H49527931   3.844   2.872   1.642  0.5313  0.4306 -0.3521
   39MOL   H49627932   3.841   2.694   1.626 -0.4419 -0.6852 -2.3905
   39MOL   H49727933   4.041   2.723   1.485 -0.1398 -0.1629 -1.6742
   39MOL   H49827934   4.063   2.827   1.618 -0.5271 -0.4826  0.0716
   39MOL   H49927935   3.969   3.011   1.473 -0.8347 -0.0929 -2.2418
   39MOL   H50027936   3.995   2.907   1.338  2.4491 -1.9206 -0.0863
   39MOL   H50127937   4.238   2.882   1.401 -1.8256 -0.6863 -2.5679
   39MOL   H50227938   4.192   3.038   1.333 -1.2662 -1.2438 -0.9517
   39MOL   H50327939   4.177   3.048   1.615 -1.0299  0.6130 -0.2981
   39MOL   H50427940   3.179   2.898   1.305 -2.5663  0.2281 -1.7256
   39MOL   H50527941   3.051   2.829   1.104 -0.6042 -0.2717 -0.3573
   39MOL   C50627942   4.361   3.077   1.540  1.0320 -0.2435 -0.1584
   39MOL   O50727943   4.442   3.043   1.457  0.0074 -0.0245 -0.3643
   39MOL   C50827944   4.406   3.147   1.664  0.1996 -0.1447 -0.2077
   39MOL   C50927945   4.523   3.217   1.664  0.0025  0.1123 -0.2242
   39MOL   C51027946   4.571   3.270   1.787  0.2729 -0.5320 -0.3966
   39MOL   C51127947   4.495   3.258   1.904 -0.0139  0.5294  0.6065
   39MOL   C51227948   4.563   3.291   2.040  1.1712 -0.5754  0.4927
   39MOL   O51327949   4.527   3.239   2.143  0.4395 -0.1902 -0.0393
   39MOL   N51427950   4.641   3.397   2.026 -0.3378 -0.2303  0.0785
   39MOL   C51527951   4.710   3.479   2.123  0.4095 -0.5891  0.4869
   39MOL   C51627952   4.856   3.494   2.102 -0.3253 -0.1527 -0.1303
   39MOL   C51727953   4.921   3.615   2.171 -0.0008  0.1437  1.1021
   39MOL   C51827954   5.077   3.608   2.172 -0.1135  0.6818 -0.0711
   39MOL   C51927955   5.148   3.728   2.227 -0.1531  0.0059 -0.1762
   39MOL   C52027956   5.209   3.826   2.122 -0.2265 -0.1021 -0.0044
   39MOL   N52127957   5.113   3.867   2.013  0.0576  0.2786  0.4213
   39MOL   C52227958   4.372   3.189   1.905  0.5611  1.0568  0.8642
   39MOL   C52327959   4.330   3.137   1.782  0.8856 -0.2374  0.6151
   39MOL   H52427960   4.588   3.214   1.578  0.6076  0.4722  0.2209
   39MOL   H52527961   4.670   3.312   1.790  0.7357 -1.5381 -1.1830
   39MOL   H52627962   4.645   3.441   1.935 -0.7396 -1.8636 -0.7433
   39MOL   H52727963   4.656   3.571   2.101 -2.3119 -2.2783 -0.0780
   39MOL   H52827964   4.688   3.454   2.227 -2.0639  2.3501  0.7654
   39MOL   H52927965   4.876   3.502   1.995 -0.8234 -1.8873 -0.3566
   39MOL   H53027966   4.904   3.405   2.142 -1.1522 -0.1996  0.7687
   39MOL   H53127967   4.879   3.702   2.120 -2.0550 -0.4461  1.7489
   39MOL   H53227968   4.894   3.630   2.275  4.8313  0.5494  2.4344
   39MOL   H53327969   5.104   3.582   2.069  0.5645  1.6486 -0.1448
   39MOL   H53427970   5.096   3.514   2.224  0.1717  1.0043  0.4129
   39MOL   H53527971   5.215   3.698   2.307 -1.1988 -2.5516 -0.2165
   39MOL   H53627972   5.081   3.781   2.295 -1.1142 -0.3432 -0.8350
   39MOL   H53727973   5.262   3.909   2.168 -1.7038  0.6190  0.4463
   39MOL   H53827974   5.288   3.767   2.076 -1.1882 -1.5280  0.1620
   39MOL   H53927975   5.130   3.836   1.918  1.7497  1.6662  0.2471
   39MOL   H54027976   4.321   3.174   1.999 -1.0413 -1.7727 -0.3787
   39MOL   H54127977   4.239   3.080   1.784  0.3111  0.6726  3.7557
   39MOL   C54227978   5.017   3.958   2.039  0.2883 -0.1441  0.0399
   39MOL   O54327979   4.988   4.001   2.152  0.2703 -0.1594  0.5110
   39MOL   C54427980   4.942   4.004   1.921 -0.0279 -0.7545 -0.4850
   39MOL   C54527981   4.848   4.112   1.939 -1.0650  0.1326 -0.2457
   39MOL   C54627982   4.771   4.161   1.834 -0.4381  0.2350  0.3974
   39MOL   C54727983   4.781   4.103   1.705 -0.1953  0.2208  0.1145
   39MOL   C54827984   4.704   4.157   1.585 -0.0124 -0.2961  0.2838
   39MOL   O54927985   4.677   4.095   1.487  0.1550  0.3785  0.1358
   39MOL   N55027986   4.679   4.291   1.596 -0.0680 -0.4053  0.6330
   39MOL   C55127987   4.596   4.365   1.503 -0.3529  0.0535 -0.6835
   39MOL   C55227988   4.459   4.417   1.572  0.0707 -0.1505 -0.6321
   39MOL   C55327989   4.373   4.477   1.452 -0.4136 -0.5178 -0.3299
   39MOL   C55427990   4.236   4.536   1.496 -0.6316  0.1697  0.1747
   39MOL   C55527991   4.257   4.661   1.583 -0.2807 -0.5448  0.2169
   39MOL   C55627992   4.149   4.766   1.583 -0.3448 -0.3600 -0.6948
   39MOL   N55727993   4.177   4.869   1.689  0.1506 -0.0922  0.6462
   39MOL   C55827994   4.862   3.990   1.685 -0.3286  0.2388  0.7484
   39MOL   C55927995   4.945   3.952   1.791  0.5498  0.2448 -0.3870
   39MOL   H56027996   4.831   4.152   2.037  2.4118 -0.0953  0.5405
   39MOL   H56127997   4.699   4.236   1.862  0.9486  1.0650  1.8581
   39MOL   H56227998   4.717   4.335   1.678 -1.0617 -0.1111  0.9420
   39MOL   H56327999   4.655   4.452   1.474  1.1468 -0.9191 -0.6189
   39MOL   H56428000   4.576   4.310   1.411 -0.1666 -1.0887 -0.0435
   39MOL   H56528001   4.480   4.483   1.655  0.9305 -1.8247  0.5139
   39MOL   H56628002   4.415   4.329   1.619  1.6302 -0.4320  0.3399
   39MOL   H56728003   4.444   4.556   1.425 -0.1678 -0.3826  0.6868
   39MOL   H56828004   4.352   4.407   1.372 -2.6889  1.0592 -1.1724
   39MOL   H56928005   4.163   4.474   1.548  0.1337 -0.8283  0.0810
   39MOL   H57028006   4.180   4.560   1.406  0.6594  1.2718 -0.3649
   39MOL   H57128007   4.351   4.708   1.554 -1.2269  0.2665 -1.5976
   39MOL   H57228008   4.289   4.629   1.683  0.1107  1.3781  0.7217
   39MOL   H57328009   4.134   4.807   1.483  1.0121  1.3913 -0.2039
   39MOL   H57428010   4.050   4.721   1.597  0.8862 -2.9584  0.0248
   39MOL   H57528011   4.270   4.875   1.729 -0.7520 -0.9934  2.9491
   39MOL   H57628012   4.885   3.950   1.587  0.4753  2.5431 -0.0387
   39MOL   H57728013   5.014   3.870   1.776  1.1138  0.2316  2.0774
   39MOL   C57828014   4.089   4.962   1.718 -0.5133  0.3703 -0.6244
   39MOL   O57928015   3.992   4.971   1.653  0.2558 -0.1745  0.6401
   39MOL   C58028016   4.122   5.066   1.828 -0.6670 -0.2904 -0.2510
   39MOL   C58128017   4.248   5.072   1.895 -0.2247  0.2024 -0.4547
   39MOL   C58228018   4.280   5.177   1.989  0.0781  0.5843  0.0367
   39MOL   C58328019   4.183   5.275   2.014  0.1373  0.5872  0.1413
   39MOL   C58428020   4.214   5.389   2.111 -0.5429  0.0770 -0.4405
   39MOL   O58528021   4.135   5.456   2.176 -0.5003  0.1274  0.0786
   39MOL   N58628022   4.346   5.416   2.119 -0.7404 -0.1029  0.4477
   39MOL   C58728023   4.396   5.539   2.174 -0.5845 -1.3426  0.1400
   39MOL   C58828024   4.490   5.605   2.072 -0.1869 -0.4323  0.1297
   39MOL   C58928025   4.558   5.734   2.107 -0.6063 -0.1468 -0.3298
   39MOL   C59028026   4.634   5.728   2.239  0.0534  0.0078  0.5531
   39MOL   C59128027   4.759   5.647   2.230  0.2300 -0.2258 -0.4557
   39MOL   C59228028   4.842   5.647   2.362 -0.7356  0.2261 -0.0881
   39MOL   N59328029   4.878   5.786   2.404  0.1302 -0.3431  0.1615
   39MOL   C59428030   4.058   5.270   1.952 -0.7217  0.2578 -0.1463
   39MOL   C59528031   4.033   5.168   1.863  0.7284 -0.6010  0.1975
   39MOL   H59628032   4.322   4.996   1.873  0.4632  0.1587  1.8959
   39MOL   H59728033   4.385   5.176   2.017  0.3175  0.3113 -0.8307
   39MOL   H59828034   4.402   5.344   2.076 -1.1190  0.3824 -0.8865
   39MOL   H59928035   4.324   5.615   2.205 -0.5984 -1.5949  0.7163
   39MOL   H60028036   4.435   5.514   2.272  3.0429 -0.5993 -1.0519
   39MOL   H60128037   4.442   5.598   1.974  0.6416 -1.7743 -0.1924
   39MOL   H60228038   4.573   5.535   2.069  0.6508  0.5459  0.5773
   39MOL   H60328039   4.630   5.770   2.033 -0.8251 -1.0321 -0.9705
   39MOL   H60428040   4.485   5.814   2.114  0.0421  0.3695  0.8708
   39MOL   H60528041   4.563   5.696   2.315 -4.0046 -2.1278 -3.9548
   39MOL   H60628042   4.658   5.833   2.260  1.3648  0.5726 -3.4062
   39MOL   H60728043   4.819   5.687   2.147 -0.1765  4.1358  1.1972
   39MOL   H60828044   4.747   5.543   2.203 -0.0462  0.2640 -2.3008
   39MOL   H60928045   4.793   5.587   2.439 -0.3431 -1.5842 -1.2237
   39MOL   H61028046   4.936   5.595   2.344 -0.6570 -0.6827  2.6166
   39MOL   H61128047   4.812   5.841   2.458 -1.7867 -0.4331 -1.9920
   39MOL   H61228048   3.989   5.351   1.968  1.9980  3.0977 -2.1157
   39MOL   H61328049   3.939   5.173   1.811  0.9960  1.9230 -0.1065
   39MOL   C61428050   4.987   5.858   2.384 -0.1841 -0.8417 -0.3548
   39MOL   O61528051   5.086   5.818   2.322 -0.2822  0.4283 -0.1003
   39MOL   C61628052   4.986   5.989   2.456  0.1316 -0.5042  0.3547
   39MOL   C61728053   4.863   6.065   2.475 -0.0250  0.2309 -0.0454
   39MOL   C61828054   4.868   6.187   2.543 -0.0360 -0.4543  0.0775
   39MOL   C61928055   4.986   6.233   2.606 -0.4586 -0.3683 -0.5105
   39MOL   C62028056   4.982   6.365   2.685  0.1502 -0.1015  0.0711
   39MOL   O62128057   4.886   6.390   2.758 -0.7521 -0.0497  0.1758
   39MOL   N62228058   5.095   6.434   2.685 -0.1761  0.4362 -0.3515
   39MOL   C62328059   5.102   6.550   2.771 -0.0766 -0.2427 -0.2023
   39MOL   C62428060   5.243   6.605   2.784  0.5893  0.2425 -0.3479
   39MOL   C62528061   5.246   6.736   2.866 -0.4104 -0.4615 -0.2706
   39MOL   C62628062   5.389   6.773   2.909 -0.1983 -1.2113  0.2107
   39MOL   C62728063   5.406   6.911   2.974  0.2203  0.1336  0.5829
   39MOL   C62828064   5.559   6.938   3.004 -0.1554  0.4407  0.0195
   39MOL   N62928065   5.598   6.854   3.115 -0.0833  0.8711  0.7439
   39MOL   C63028066   5.100   6.152   2.596 -0.0704 -0.0662  0.1497
   39MOL   C63128067   5.102   6.037   2.516 -0.1193 -0.0109 -0.1372
   39MOL   H63228068   4.769   6.030   2.435 -2.1566  1.9071  3.2456
   39MOL   H63328069   4.782   6.251   2.553  0.4171  0.1197  0.3044
   39MOL   H63428070   5.172   6.409   2.625  1.1969  0.6599  1.2528
   39MOL   H63528071   5.036   6.629   2.736 -0.8138 -0.9996 -0.5219
   39MOL   H63628072   5.068   6.536   2.874  1.3712  0.8882  0.4639
   39MOL   H63728073   5.277   6.637   2.685  0.0248  1.0672 -0.2811
   39MOL   H63828074   5.311   6.527   2.818  1.0797  0.7327 -0.2002
   39MOL   H63928075   5.219   6.811   2.792 -0.0066  0.3151  0.3529
   39MOL   H64028076   5.176   6.752   2.948  0.9714  3.9566  0.2158
   39MOL   H64128077   5.451   6.768   2.819  0.6721 -0.3281  0.7493
   39MOL   H64228078   5.422   6.692   2.974  3.0520  0.1243  0.3160
   39MOL   H64328079   5.342   6.917   3.062 -1.8459  1.7512 -0.9834
   39MOL   H64428080   5.371   6.985   2.901  0.8338 -1.4979 -1.4182
   39MOL   H64528081   5.620   6.926   2.914 -0.0322  0.1312  0.1455
   39MOL   H64628082   5.564   7.041   3.039  0.1867  0.9188 -1.3874
   39MOL   H64728083   5.558   6.869   3.206  1.3867  0.1006  1.5471
   39MOL   H64828084   5.185   6.172   2.659  0.8908  0.5629 -1.3168
   39MOL   H64928085   5.195   5.982   2.505 -0.5098 -0.4840 -1.1707
   39MOL   C65028086   5.712   6.779   3.122 -0.2481 -0.8727  0.1472
   39MOL   O65128087   5.774   6.742   3.029  0.4016  0.0797  0.4396
   39MOL   C65228088   5.732   6.720   3.258 -0.5730  0.6468 -0.3769
   39MOL   C65328089   5.781   6.588   3.263 -0.2000  0.4091 -0.4617
   39MOL   C65428090   5.815   6.527   3.382 -0.8449 -0.4431 -0.3781
   39MOL   C65528091   5.799   6.599   3.503 -0.5229  0.4378  0.0932
   39MOL   C65628092   5.835   6.536   3.635 -0.3188  0.8803 -0.3226
   39MOL   O65728093   5.936   6.463   3.650  0.1289 -0.4350  0.0822
   39MOL   N65828094   5.741   6.545   3.727  0.1665 -0.1989 -0.0328
   39MOL   C65928095   5.746   6.478   3.851 -0.4602  0.4409 -0.2139
   39MOL   C66028096   5.659   6.546   3.963 -0.6914  0.0964  0.0773
   39MOL   C66128097   5.693   6.492   4.108 -0.3017 -0.0420  0.4594
   39MOL   C66228098   5.623   6.559   4.230 -0.2509 -0.0293 -0.3440
   39MOL   C66328099   5.597   6.463   4.346 -0.2160  0.5343  0.6478
   39MOL   C66428100   5.488   6.360   4.303  0.1322 -0.1004  0.2938
   39MOL   N66528101   5.466   6.271   4.417  0.2785 -0.8076  0.5997
   39MOL   C66628102   5.752   6.731   3.506  0.4573  0.4103 -0.1655
   39MOL   C66728103   5.716   6.787   3.379 -0.5338 -0.6358  0.4786
   39MOL   H66828104   5.778   6.532   3.171 -2.0937 -0.1468 -0.0838
   39MOL   H66928105   5.855   6.427   3.383 -0.6919 -0.3933  1.6731
   39MOL   H67028106   5.668   6.614   3.716  1.2389  1.2178  1.5035
   39MOL   H67128107   5.698   6.382   3.835 -0.7423  0.4141  0.7668
   39MOL   H67228108   5.846   6.454   3.886 -0.7008  0.4178  0.4667
   39MOL   H67328109   5.554   6.546   3.936 -0.3800  0.0193 -1.1537
   39MOL   H67428110   5.690   6.651   3.962 -0.7404  0.1109  0.0302
   39MOL   H67528111   5.670   6.386   4.107 -0.7880  0.0079 -3.6281
   39MOL   H67628112   5.800   6.491   4.124 -0.0744  0.8764 -0.8815
   39MOL   H67728113   5.524   6.599   4.207 -0.1219  0.0975 -0.6780
   39MOL   H67828114   5.677   6.651   4.253  0.8846  0.2348 -3.7740
   39MOL   H67928115   5.575   6.509   4.442 -0.9926 -0.2638  0.8570
   39MOL   H68028116   5.696   6.423   4.368 -0.1107 -0.1688 -1.0059
   39MOL   H68128117   5.398   6.421   4.293 -1.3044 -2.2252  0.1209
   39MOL   H68228118   5.508   6.315   4.206  0.3968  0.8280 -0.0893
   39MOL   H68328119   5.503   6.303   4.505 -0.8430  1.6403  0.2298
   39MOL   H68428120   5.747   6.792   3.596 -2.0296  0.5885 -0.3891
   39MOL   H68528121   5.682   6.889   3.367  1.5825  0.1661  0.9552
   39MOL   C68628122   5.393   6.161   4.414  0.1626  0.5180  0.2004
   39MOL   O68728123   5.349   6.115   4.302 -0.2027 -0.4694 -0.4888
   39MOL   C68828124   5.365   6.094   4.542 -0.3662  0.2402 -0.1466
   39MOL   C68928125   5.378   6.161   4.668  0.0575  0.6759  0.0926
   39MOL   C69028126   5.351   6.084   4.783 -0.0742 -0.0705  0.1382
   39MOL   C69128127   5.307   5.951   4.783 -0.3776 -0.4788  0.1258
   39MOL   C69228128   5.269   5.875   4.902  0.6017  0.8901 -0.1876
   39MOL   O69328129   5.274   5.750   4.893 -0.3319 -0.2897  0.4417
   39MOL   N69428130   5.237   5.939   5.011 -0.1422 -0.0102 -0.7699
   39MOL   C69528131   5.214   5.874   5.138 -0.3544 -0.3481  0.1052
   39MOL   C69628132   5.331   5.798   5.197  0.1614  0.1027 -0.0549
   39MOL   C69728133   5.301   5.730   5.323  0.3473 -0.1524 -0.2562
   39MOL   C69828134   5.410   5.628   5.355 -0.1035  0.6042 -0.2147
   39MOL   C69928135   5.417   5.502   5.268  0.0739 -0.4842 -0.0552
   39MOL   C70028136   5.492   5.376   5.310 -0.3299  0.6632  0.4616
   39MOL   N70128137   5.623   5.424   5.320  0.1131  0.9452 -0.3856
   39MOL   C70228138   5.289   5.891   4.659 -0.4575  0.2639  0.2118
   39MOL   C70328139   5.327   5.959   4.541  0.4046 -0.1551 -0.3248
   39MOL   H70428140   5.417   6.261   4.675  1.4845 -0.0407  3.0647
   39MOL   H70528141   5.376   6.142   4.871 -1.8107  0.5696  0.2464
   39MOL   H70628142   5.228   6.039   5.013 -2.0694 -0.1451  2.6306
   39MOL   H70728143   5.177   5.949   5.208 -1.2005  1.4486 -2.2335
   39MOL   H70828144   5.130   5.810   5.110 -1.3246  1.0588 -0.2068
   39MOL   H70928145   5.397   5.880   5.228  0.3375 -0.8455  2.1953
   39MOL   H71028146   5.389   5.742   5.124  1.6974  1.4663  0.0879
   39MOL   H71128147   5.263   5.800   5.398  1.2202 -2.2903  2.2456
   39MOL   H71228148   5.209   5.671   5.316  1.0286 -1.0525 -1.7689
   39MOL   H71328149   5.390   5.589   5.455  1.5809  0.5567  0.1297
   39MOL   H71428150   5.504   5.682   5.369 -1.1904  2.3098  0.7021
   39MOL   H71528151   5.436   5.522   5.163 -3.2608  0.6411 -0.5171
   39MOL   H71628152   5.309   5.485   5.266 -0.5554  2.6814  2.3823
   39MOL   H71728153   5.481   5.340   5.413  0.7947 -0.8754  0.0653
   39MOL   H71828154   5.491   5.287   5.247 -0.4873  0.7980  0.2749
   39MOL   H71928155   5.665   5.422   5.228  0.7596 -0.1235 -0.0754
   39MOL   H72028156   5.240   5.797   4.642  0.1872 -0.1968  0.9127
   39MOL   H72128157   5.313   5.918   4.442 -0.9830 -1.2286  0.2874
   39MOL   H72228158   5.620   5.522   5.344  0.0289  0.7406  0.4583
   40MOL     C128159   0.669   2.916   7.111  0.3902  0.3795 -0.6262
   40MOL     O228160   0.697   2.814   7.161  0.2274 -0.3168 -0.8484
   40MOL     C328161   0.626   2.932   6.971 -0.6168  0.3845 -0.2137
   40MOL     C428162   0.589   2.817   6.895  0.1287 -0.2629  0.0318
   40MOL     C528163   0.538   2.826   6.767  0.1535 -0.5535  0.7590
   40MOL     C628164   0.527   2.951   6.702 -0.3156 -0.4885 -0.4630
   40MOL     C728165   0.446   2.967   6.577 -0.4971  0.0880 -0.1789
   40MOL     O828166   0.462   2.886   6.486  0.6876  0.3396  0.8445
   40MOL     N928167   0.370   3.082   6.576  0.2074 -0.2452 -0.2205
   40MOL    C1028168   0.264   3.121   6.482 -0.2318 -0.2564  0.2689
   40MOL    C1128169   0.133   3.067   6.543  0.1902  0.6950  0.6598
   40MOL    C1228170   0.005   3.102   6.470 -0.7607  0.6061 -0.0596
   40MOL    C1328171   7.777   3.004   6.505  0.9039 -0.0548  0.3084
   40MOL    C1428172   7.785   2.858   6.463 -0.5811  0.2956  0.6881
   40MOL    C1528173   7.805   2.847   6.311  0.2483  0.0591  0.3323
   40MOL    N1628174   7.759   2.720   6.256 -0.3629  0.7085 -0.5838
   40MOL    C1728175   0.567   3.067   6.773 -0.6893 -0.5864  0.1782
   40MOL    C1828176   0.616   3.055   6.904  0.3374 -0.0458  0.4635
   40MOL    H1928177   0.591   2.724   6.949  3.3457  0.4227  1.2177
   40MOL    H2028178   0.507   2.737   6.714 -0.0830 -0.1984  0.2937
   40MOL    H2128179   0.378   3.133   6.662 -1.9247  0.3895 -0.3637
   40MOL    H2228180   0.266   3.227   6.461 -2.1906 -0.1256  0.7075
   40MOL    H2328181   0.285   3.088   6.380  1.1751 -1.2298  0.8505
   40MOL    H2428182   0.119   3.105   6.644 -0.5197  0.1809  0.7622
   40MOL    H2528183   0.148   2.959   6.554 -0.2246  0.4783 -0.8392
   40MOL    H2628184   7.848   3.198   6.498  0.7163  1.3987 -0.4524
   40MOL    H2728185   0.031   3.106   6.364 -0.7611  0.4113 -0.0680
   40MOL    H2828186   7.686   3.047   6.464 -0.0394 -0.0750  2.2740
   40MOL    H2928187   7.765   3.002   6.614 -3.7997  1.3306 -0.0853
   40MOL    H3028188   7.686   2.817   6.480 -0.3085 -0.9109 -0.5488
   40MOL    H3128189   7.856   2.808   6.529  0.5329  1.9741  0.8163
   40MOL    H3228190   7.734   2.912   6.260  1.5660  0.4765 -0.9997
   40MOL    H3328191   0.023   2.856   6.277  0.5871 -2.7446  0.5611
   40MOL    H3428192   7.715   2.652   6.316 -2.0324 -0.0023 -2.5351
   40MOL    H3528193   0.552   3.160   6.721 -1.8630 -1.6544 -1.4500
   40MOL    H3628194   0.646   3.147   6.953  0.5388  0.8701 -1.3505
   40MOL    H3728195   0.668   3.011   7.165 -1.1408  0.5760 -0.9574
   40MOL    C3828196   7.745   2.693   6.125 -0.3570 -0.8809 -0.0239
   40MOL    O3928197   7.788   2.769   6.039 -0.0047 -0.1988 -0.3096
   40MOL    C4028198   7.671   2.568   6.079  0.5171 -0.7666  0.3568
   40MOL    C4128199   7.688   2.518   5.945  0.2487  0.6867  0.2022
   40MOL    C4228200   7.626   2.403   5.898 -0.4091  0.4277 -0.2132
   40MOL    C4328201   7.528   2.342   5.976  0.5535  0.1969 -0.0810
   40MOL    C4428202   7.442   2.231   5.921  0.6247  0.2271  0.0769
   40MOL    O4528203   7.388   2.240   5.809  0.5570 -0.3440  0.1528
   40MOL    N4628204   7.430   2.128   5.998 -1.1282 -0.0236 -0.0450
   40MOL    C4728205   7.349   2.008   5.971 -0.7015 -0.7074 -0.2347
   40MOL    C4828206   7.323   1.910   6.088  0.0157  0.0218  0.1026
   40MOL    C4928207   7.249   1.785   6.052 -0.0666  0.3272 -0.1592
   40MOL    C5028208   7.208   1.693   6.173  0.2670  0.4659  0.7725
   40MOL    C5128209   7.138   1.565   6.123  0.1569 -0.1470 -0.5631
   40MOL    C5228210   7.001   1.570   6.052  0.6309 -0.0957  0.3037
   40MOL    N5328211   6.942   1.439   6.048  0.0829  0.5244  0.3115
   40MOL    C5428212   7.499   2.398   6.107  1.3275 -0.0380 -0.4956
   40MOL    C5528213   7.573   2.502   6.157 -0.3523 -0.0954  0.2957
   40MOL    H5628214   7.759   2.577   5.890  0.1726  0.0923 -0.5474
   40MOL    H5728215   7.650   2.367   5.799  0.4171  1.3632 -0.3647
   40MOL    H5828216   7.481   2.120   6.084  0.6573 -0.4576 -1.1183
   40MOL    H5928217   7.256   2.058   5.945  0.0398  0.4637 -0.6736
   40MOL    H6028218   7.383   1.963   5.878 -0.1134 -0.4048 -0.1664
   40MOL    H6128219   7.259   1.962   6.159 -2.6915  0.3603 -2.4851
   40MOL    H6228220   7.416   1.889   6.142 -1.0081 -1.0038  1.4981
   40MOL    H6328221   7.153   1.820   6.014 -1.0905 -0.4561  1.6500
   40MOL    H6428222   7.306   1.726   5.980 -0.9648 -0.4682 -0.2231
   40MOL    H6528223   7.132   1.740   6.236 -1.0630 -0.4608 -0.1254
   40MOL    H6628224   7.290   1.676   6.243 -0.2668 -0.9254  1.0616
   40MOL    H6728225   7.114   1.502   6.209 -1.7018 -0.0562 -0.9904
   40MOL    H6828226   7.201   1.499   6.064 -1.7649 -3.5666  1.0550
   40MOL    H6928227   6.930   1.634   6.105  0.0402  0.5530 -1.2182
   40MOL    H7028228   7.012   1.615   5.953  0.4001 -1.8612 -0.5518
   40MOL    H7128229   6.951   1.378   6.128 -0.0566 -1.5324 -1.2125
   40MOL    H7228230   7.426   2.365   6.180  1.1820 -0.1160 -0.6783
   40MOL    H7328231   7.564   2.529   6.261  1.1863 -0.2914  0.4999
   40MOL    C7428232   6.895   1.389   5.935  0.1926  0.9306 -0.5260
   40MOL    O7528233   6.879   1.453   5.827 -0.5812  0.2946  0.2812
   40MOL    C7628234   6.860   1.242   5.939 -0.3765  0.1731 -0.6926
   40MOL    C7728235   6.864   1.173   5.820 -0.2684 -0.3769 -1.0181
   40MOL    C7828236   6.842   1.034   5.825 -0.0390  0.1115  1.0595
   40MOL    C7928237   6.811   0.964   5.943 -0.3287  0.6225  0.1385
   40MOL    C8028238   6.805   0.815   5.945 -0.1907  0.2272 -0.3122
   40MOL    O8128239   6.759   0.751   6.041  0.5294 -0.2037  0.1943
   40MOL    N8228240   6.848   0.748   5.834  0.0710  0.1930 -0.3995
   40MOL    C8328241   6.836   0.607   5.803 -0.3890 -0.2182  0.3102
   40MOL    C8428242   6.848   0.565   5.655  0.6524 -0.3364 -0.1020
   40MOL    C8528243   6.715   0.538   5.581 -0.1748  0.3809 -0.2649
   40MOL    C8628244   6.632   0.653   5.531  0.5035 -0.0099 -0.5676
   40MOL    C8728245   6.719   0.753   5.447  0.3798  0.7024 -0.7434
   40MOL    C8828246   6.642   0.876   5.396  0.0428  0.7913  0.6468
   40MOL    N8928247   6.738   0.966   5.334  0.7146 -1.0638 -0.5021
   40MOL    C9028248   6.791   1.043   6.063 -0.1992  0.2430  0.4189
   40MOL    C9128249   6.818   1.180   6.060  0.5552 -0.3876 -0.1591
   40MOL    H9228250   6.905   1.222   5.733 -0.7773  1.7364 -0.0956
   40MOL    H9328251   6.852   0.982   5.731  0.0038 -0.6885  1.5036
   40MOL    H9428252   6.886   0.811   5.764  0.9162 -0.2729 -0.3727
   40MOL    H9528253   6.919   0.551   5.846 -1.6854 -0.1668  2.9937
   40MOL    H9628254   6.744   0.576   5.852  1.1561 -2.8422  1.6314
   40MOL    H9728255   6.902   0.471   5.658  1.6418  0.2681  1.7056
   40MOL    H9828256   6.914   0.631   5.598  0.7087 -0.1380  0.1970
   40MOL    H9928257   6.745   0.479   5.495  0.7684  1.4582 -0.6874
   40MOL   H10028258   6.657   0.464   5.635  0.2385  0.9490  0.9814
   40MOL   H10128259   6.596   0.697   5.624 -0.6254 -2.8813  0.4164
   40MOL   H10228260   6.547   0.627   5.468  0.0800 -1.2250  0.4820
   40MOL   H10328261   6.782   0.702   5.375 -0.6158 -0.0683 -1.0905
   40MOL   H10428262   6.786   0.800   5.519 -0.8797  0.6449  0.4952
   40MOL   H10528263   6.581   0.847   5.311  3.2095 -1.0440 -1.0783
   40MOL   H10628264   6.578   0.908   5.478  2.3559  0.7406  2.5209
   40MOL   H10728265   6.732   0.961   5.233 -0.8176  0.6719 -0.5183
   40MOL   H10828266   6.771   1.004   6.161  1.5449 -0.6051  0.4579
   40MOL   H10928267   6.807   1.238   6.151 -2.4627  1.2526 -1.4930
   40MOL   C11028268   6.792   1.075   5.397  0.4553 -0.4438  0.0122
   40MOL   O11128269   6.763   1.094   5.519  0.6577  0.4897  0.1467
   40MOL   C11228270   6.885   1.162   5.321  0.5422  0.2702 -0.5499
   40MOL   C11328271   6.994   1.220   5.389  0.5100 -0.3466 -0.0535
   40MOL   C11428272   7.082   1.304   5.317 -0.9211 -0.1466  0.1287
   40MOL   C11528273   7.060   1.336   5.184 -0.2657 -0.0189 -0.2540
   40MOL   C11628274   7.150   1.430   5.114  0.3982  0.7424 -0.1529
   40MOL   O11728275   7.170   1.421   4.995 -0.3873 -0.1105  0.2955
   40MOL   N11828276   7.211   1.525   5.189 -0.2041 -0.1167  0.3112
   40MOL   C11928277   7.301   1.625   5.130 -0.6313 -0.4722 -0.2985
   40MOL   C12028278   7.427   1.643   5.209  0.0742  0.4863  1.1039
   40MOL   C12128279   7.518   1.763   5.161  0.1404  0.4630 -0.6414
   40MOL   C12228280   7.663   1.755   5.219 -0.6588  0.3001  0.0199
   40MOL   C12328281   7.766   1.688   5.124  0.0767 -0.4768  0.2167
   40MOL   C12428282   0.020   1.661   5.182  0.2084  0.1915  0.6492
   40MOL   N12528283   0.013   1.575   5.300  0.3808  0.2361  0.2223
   40MOL   C12628284   6.945   1.284   5.117 -0.0558  0.5123  0.4570
   40MOL   C12728285   6.856   1.198   5.192  0.2415  0.0758  0.7821
   40MOL   H12828286   7.017   1.197   5.492  3.0908 -1.8433 -0.9081
   40MOL   H12928287   7.169   1.341   5.369 -0.2885 -1.4928  0.0332
   40MOL   H13028288   7.166   1.552   5.275  0.0046  0.4690  0.2396
   40MOL   H13128289   7.331   1.594   5.030 -0.3103  0.1112 -0.3839
   40MOL   H13228290   7.243   1.718   5.127 -0.4431 -0.3819 -2.4015
   40MOL   H13328291   7.483   1.550   5.207 -1.1858 -0.2690  0.4431
   40MOL   H13428292   7.417   1.656   5.317  0.6361  0.0625  1.2104
   40MOL   H13528293   7.515   1.754   5.052 -1.9556 -3.4072 -0.3633
   40MOL   H13628294   7.472   1.860   5.182  0.1551  0.6050 -1.2507
   40MOL   H13728295   7.664   1.714   5.321 -0.2409  1.1811  0.3736
   40MOL   H13828296   7.710   1.852   5.234  0.9025 -0.8035  2.7413
   40MOL   H13928297   7.778   1.751   5.036 -1.0642  1.1334  1.1749
   40MOL   H14028298   7.723   1.596   5.083 -2.2366  0.5977  0.1195
   40MOL   H14128299   0.087   1.610   5.113 -0.0172 -0.8324  1.1775
   40MOL   H14228300   0.063   1.759   5.206  0.2923  0.0842  0.9432
   40MOL   H14328301   7.881   1.622   5.387 -1.0211  1.3653 -0.6603
   40MOL   H14428302   6.929   1.307   5.013 -1.4086  2.2997  1.0478
   40MOL   H14528303   6.770   1.164   5.136 -0.4190  0.5118  1.5090
   40MOL   C14628304   7.881   1.443   5.296 -0.3029 -0.1252  0.4254
   40MOL   O14728305   7.883   1.373   5.195 -0.0348  0.0413 -0.1719
   40MOL   C14828306   7.841   1.377   5.425 -0.2280 -0.0452  0.0640
   40MOL   C14928307   7.713   1.312   5.444 -0.2378 -0.3438  0.2214
   40MOL   C15028308   7.694   1.240   5.564 -0.2423 -0.0997  0.1614
   40MOL   C15128309   7.786   1.236   5.665 -0.7449  0.1669  0.4221
   40MOL   C15228310   7.748   1.179   5.805 -0.5446 -0.3402  0.2574
   40MOL   O15328311   7.784   1.243   5.907 -0.1415 -0.0991 -0.2357
   40MOL   N15428312   7.675   1.063   5.811  0.0432 -0.0655  0.2379
   40MOL   C15528313   7.635   0.995   5.934 -0.3929  0.3498 -0.6316
   40MOL   C15628314   7.612   0.849   5.906  0.5723 -0.3133  0.2329
   40MOL   C15728315   7.626   0.761   6.031  1.3175  0.3033  0.2594
   40MOL   C15828316   7.508   0.783   6.122 -0.2020  0.0953 -0.4894
   40MOL   C15928317   7.540   0.744   6.269  0.7223 -1.1270  0.6346
   40MOL   C16028318   7.622   0.846   6.355  0.2672  0.3808  0.3776
   40MOL   N16128319   7.642   0.794   6.484 -0.7666  0.6466 -0.0901
   40MOL   C16228320   0.023   1.311   5.654  0.5880  0.2925  0.9834
   40MOL   C16328321   0.044   1.388   5.539  0.0476 -0.7532  0.3685
   40MOL   H16428322   7.634   1.308   5.370 -0.9206 -2.2905  1.0199
   40MOL   H16528323   7.593   1.204   5.577  0.1581 -1.4508 -0.3727
   40MOL   H16628324   7.652   1.020   5.723 -0.2780 -2.1497  1.3081
   40MOL   H16728325   7.703   1.010   6.019 -0.5584 -0.4570 -0.3560
   40MOL   H16828326   7.543   1.041   5.968 -2.4136 -3.0977 -1.2146
   40MOL   H16928327   7.694   0.814   5.843  0.8339 -0.5757  0.7105
   40MOL   H17028328   7.514   0.832   5.861  0.8117 -2.4040  0.4161
   40MOL   H17128329   7.627   0.658   5.995  0.4483  1.0319 -1.9707
   40MOL   H17228330   7.721   0.784   6.078  0.8843  0.3901  1.0975
   40MOL   H17328331   7.426   0.719   6.089 -0.5837 -0.0466  0.7070
   40MOL   H17428332   7.480   0.888   6.117 -0.4737  0.0054 -0.8711
   40MOL   H17528333   7.575   0.641   6.277  1.0199 -1.0166  0.7503
   40MOL   H17628334   7.446   0.741   6.325 -0.0352 -0.1940 -0.5613
   40MOL   H17728335   7.722   0.851   6.311  1.5996 -1.1264  3.0996
   40MOL   H17828336   7.581   0.946   6.358 -1.2421 -0.2777  2.6601
   40MOL   H17928337   7.714   0.723   6.487  0.2546  1.5557 -2.2756
   40MOL   H18028338   0.095   1.309   5.734  1.6143  0.9452  0.0913
   40MOL   H18128339   0.136   1.444   5.535  0.4733 -1.0245  4.2426
   40MOL   C18228340   7.629   0.856   6.606 -0.4357 -0.2667 -0.5603
   40MOL   O18328341   7.607   0.977   6.627  0.8739 -0.0504 -0.2125
   40MOL   C18428342   7.627   0.759   6.725 -0.4144 -0.5604  0.0891
   40MOL   C18528343   7.565   0.635   6.715  0.2185 -0.6056  0.1163
   40MOL   C18628344   7.544   0.557   6.832  0.3662  0.5117  0.4295
   40MOL   C18728345   7.603   0.591   6.955 -0.7296 -0.2326 -0.7570
   40MOL   C18828346   7.610   0.488   7.065  0.3678  0.0180 -1.2824
   40MOL   O18928347   7.573   0.373   7.051 -0.3455 -0.3758  0.1871
   40MOL   N19028348   7.655   0.541   7.183  0.3862 -0.0677  0.3202
   40MOL   C19128349   7.673   0.458   7.303  0.6770  0.3954 -0.6344
   40MOL   C19228350   7.740   0.526   7.420 -0.4252 -0.5118  0.2290
   40MOL   C19328351   7.720   0.450   7.551 -0.3280 -1.0183  0.3032
   40MOL   C19428352   7.853   0.424   7.622  0.1885  0.4178 -0.2373
   40MOL   C19528353   7.834   0.322   7.743 -0.1779 -0.2555  0.1309
   40MOL   C19628354   0.078   0.291   7.807  0.3065  0.2723  0.4889
   40MOL   N19728355   0.134   0.412   7.872  0.9270 -0.8949 -0.6688
   40MOL   C19828356   7.684   0.709   6.959  0.2117  0.4195 -0.1825
   40MOL   C19928357   7.689   0.798   6.846  0.2529  0.2606  0.4246
   40MOL   H20028358   7.523   0.597   6.623  0.7949  1.0790 -0.8658
   40MOL   H20128359   7.487   0.466   6.821  0.1472  0.6441  0.4672
   40MOL   H20228360   7.698   0.633   7.189 -0.8694  0.4299  1.9494
   40MOL   H20328361   7.574   0.425   7.335 -0.4145  0.9739 -3.2661
   40MOL   H20428362   7.731   0.370   7.275 -1.8348 -1.2817 -0.8035
   40MOL   H20528363   7.713   0.632   7.430 -0.8519 -0.6587  0.6456
   40MOL   H20628364   7.843   0.547   7.392 -0.9864 -0.5200 -1.9065
   40MOL   H20728365   7.646   0.502   7.612  1.1252  0.6052  0.7427
   40MOL   H20828366   7.672   0.358   7.519  0.7786 -0.9454 -1.6291
   40MOL   H20928367   0.021   0.516   7.644  0.8560  0.1775 -0.8371
   40MOL   H21028368   0.044   0.372   7.565 -0.4983  0.9639 -1.7063
   40MOL   H21128369   7.777   0.236   7.710 -0.8050  1.0124 -2.2197
   40MOL   H21228370   7.772   0.352   7.827  0.3660  0.6709  0.2092
   40MOL   H21328371   0.073   0.212   7.882  0.7029 -0.4151 -0.2063
   40MOL   H21428372   0.148   0.262   7.730 -0.1517  0.0892  0.1405
   40MOL   H21528373   0.096   0.501   7.843 -0.1011 -0.1751  2.6993
   40MOL   H21628374   7.750   0.731   7.041 -0.3880  0.8481  0.1964
   40MOL   H21728375   7.755   0.884   6.851  1.9876 -1.1403  2.2077
   40MOL   C21828376   0.195   0.407   0.107 -0.9775 -0.0620  0.3739
   40MOL   O21928377   0.225   0.295   0.156  0.1509 -0.9353  0.0194
   40MOL   C22028378   0.219   0.533   0.177  0.4680 -0.1283  0.2918
   40MOL   C22128379   0.138   0.643   0.149  0.5788 -0.0977  0.1795
   40MOL   C22228380   0.166   0.768   0.223 -0.8061  0.7566 -0.0075
   40MOL   C22328381   0.262   0.772   0.328  0.1815 -0.1322  0.4698
   40MOL   C22428382   0.278   0.899   0.402  0.1378 -0.2219 -0.7979
   40MOL   O22528383   0.384   0.934   0.452 -0.0666 -0.2922  0.0744
   40MOL   N22628384   0.167   0.973   0.416 -0.1182  0.1232 -0.7523
   40MOL   C22728385   0.164   1.104   0.482 -0.6171  0.8641 -0.1130
   40MOL   C22828386   0.161   1.097   0.634 -0.5618  0.2113  0.0930
   40MOL   C22928387   0.301   1.104   0.697  0.5346  0.5313  0.3008
   40MOL   C23028388   0.289   1.148   0.842 -0.3248  0.1022  0.0187
   40MOL   C23128389   0.431   1.163   0.904 -0.2194  0.2572 -0.3535
   40MOL   C23228390   0.443   1.224   1.043  0.0652 -0.5889 -0.4138
   40MOL   N23328391   0.397   1.122   1.132  0.1083  0.3147 -0.3151
   40MOL   C23428392   0.335   0.658   0.357  0.2133  0.0119 -0.8246
   40MOL   C23528393   0.312   0.545   0.280  0.0075 -0.6165  0.2946
   40MOL   H23628394   0.054   0.634   0.082  1.2161  0.5291 -0.7222
   40MOL   H23728395   0.093   0.845   0.206 -2.8344 -0.4389  2.7975
   40MOL   H23828396   0.086   0.928   0.376  0.7188  0.1674 -2.5765
   40MOL   H23928397   0.252   1.159   0.449  0.4439 -0.4694  0.4403
   40MOL   H24028398   0.084   1.172   0.450  0.8774  1.5282 -2.5821
   40MOL   H24128399   0.117   1.003   0.668  1.0131 -0.7114 -0.3851
   40MOL   H24228400   0.112   1.187   0.672 -0.7013  0.3563 -0.4334
   40MOL   H24328401   0.357   1.012   0.684  1.3660  1.1313 -0.5265
   40MOL   H24428402   0.361   1.182   0.649 -1.9728  1.6453 -1.1530
   40MOL   H24528403   0.230   1.077   0.899 -0.9809  0.8414  0.2816
   40MOL   H24628404   0.245   1.248   0.842  0.8894  0.6497  0.6787
   40MOL   H24728405   0.490   1.229   0.839 -0.9139  0.2024 -1.0514
   40MOL   H24828406   0.483   1.068   0.898 -0.3216  0.1260  0.8735
   40MOL   H24928407   0.545   1.248   1.074  0.3721 -1.6424 -0.5923
   40MOL   H25028408   0.389   1.318   1.057 -0.1818 -0.9125  0.8852
   40MOL   H25128409   0.307   1.143   1.173  0.2715 -1.1257  0.7958
   40MOL   H25228410   0.403   0.658   0.441 -1.4371  0.2181  0.5317
   40MOL   H25328411   0.378   0.460   0.287 -0.1893 -0.7236  0.8674
   40MOL   C25428412   0.474   1.022   1.181  0.1555  0.2317 -0.1773
   40MOL   O25528413   0.597   1.015   1.172 -0.4158 -0.6469  0.4265
   40MOL   C25628414   0.393   0.917   1.245 -0.1528  0.0306 -0.3818
   40MOL   C25728415   0.296   0.844   1.171  1.0180 -0.6456 -0.4736
   40MOL   C25828416   0.212   0.750   1.239  0.0156 -0.0309 -0.3384
   40MOL   C25928417   0.243   0.706   1.369 -0.0182 -0.0737  0.4474
   40MOL   C26028418   0.164   0.595   1.427  0.3943 -0.8438  0.0664
   40MOL   O26128419   0.043   0.601   1.422 -0.3359  0.0763 -0.5521
   40MOL   N26228420   0.238   0.501   1.483  0.1642 -0.1051  0.2940
   40MOL   C26328421   0.202   0.368   1.511  0.1705  0.1012 -0.6173
   40MOL   C26428422   0.284   0.306   1.620 -0.4649  0.3354 -0.2188
   40MOL   C26528423   0.432   0.297   1.573  0.0769 -0.1354  0.1286
   40MOL   C26628424   0.528   0.282   1.695 -0.0762  0.2514 -0.5870
   40MOL   C26728425   0.539   0.143   1.756 -0.0953  0.1860 -0.4121
   40MOL   C26828426   0.626   0.046   1.676  0.7859 -0.0497  0.2833
   40MOL   N26928427   0.756   0.101   1.644 -0.0706  0.2078  0.3131
   40MOL   C27028428   0.335   0.777   1.446 -0.1884 -0.3270  0.1117
   40MOL   C27128429   0.414   0.879   1.384  0.9982 -0.2922 -0.2009
   40MOL   H27228430   0.272   0.853   1.066 -0.5150 -1.9393 -0.2516
   40MOL   H27328431   0.139   0.701   1.177  0.2021 -0.9834  0.1747
   40MOL   H27428432   0.337   0.521   1.482 -0.2142  1.9150  0.6018
   40MOL   H27528433   0.103   0.366   1.557  0.0735  0.5744 -0.7981
   40MOL   H27628434   0.192   0.299   1.427 -0.3022  0.1076 -0.5693
   40MOL   H27728435   0.251   0.209   1.656  0.7450  1.0364  2.9124
   40MOL   H27828436   0.277   0.368   1.710  2.2391  0.9404 -0.3703
   40MOL   H27928437   0.441   0.215   1.501 -0.3729  0.4172 -0.5632
   40MOL   H28028438   0.463   0.383   1.513 -0.8430  0.0682 -0.0607
   40MOL   H28128439   0.505   0.356   1.772  3.0272  1.4164 -0.7201
   40MOL   H28228440   0.625   0.309   1.654 -0.0589  1.6036  0.3075
   40MOL   H28328441   0.438   0.107   1.776  0.4227 -0.1464  1.7811
   40MOL   H28428442   0.588   0.159   1.853 -0.8969  0.7649 -0.0993
   40MOL   H28528443   0.632   7.843   1.738  0.8138  0.9504  1.7397
   40MOL   H28628444   0.571   0.031   1.583 -2.2589  1.9270  1.6803
   40MOL   H28728445   0.760   0.202   1.638 -0.4853  0.1519 -1.0146
   40MOL   H28828446   0.354   0.749   1.549 -2.7345 -0.8901  0.4687
   40MOL   H28928447   0.495   0.930   1.434  1.0754  0.3813 -1.0016
   40MOL   C29028448   0.859   0.029   1.596  0.1364 -0.4791  0.3534
   40MOL   O29128449   0.864   7.793   1.587 -0.1890  0.0876 -0.1862
   40MOL   C29228450   0.982   0.112   1.571 -0.2837  0.4061 -0.5151
   40MOL   C29328451   1.109   0.061   1.584  0.0778  0.5299 -0.1336
   40MOL   C29428452   1.226   0.144   1.571  0.1571 -0.5028 -0.4214
   40MOL   C29528453   1.213   0.275   1.529 -0.5472 -1.0940 -0.5038
   40MOL   C29628454   1.341   0.355   1.511  0.2302  0.3904  0.3748
   40MOL   O29728455   1.430   0.347   1.593 -0.3883  0.5887  0.4914
   40MOL   N29828456   1.345   0.440   1.411  1.0768  0.0651  0.2109
   40MOL   C29928457   1.445   0.533   1.375 -1.0302 -0.0420 -0.2447
   40MOL   C30028458   1.391   0.639   1.281  0.3227  0.0096  0.6124
   40MOL   C30128459   1.272   0.726   1.329 -0.4080  0.2441  0.3678
   40MOL   C30228460   1.247   0.850   1.246  0.5527  0.0845 -0.1651
   40MOL   C30328461   1.159   0.958   1.318 -0.1534 -0.2357  0.0066
   40MOL   C30428462   1.142   1.088   1.245 -0.3409 -0.2656  0.7752
   40MOL   N30528463   1.009   1.148   1.252  0.3889 -0.4674  0.0510
   40MOL   C30628464   1.084   0.327   1.493  0.3307 -0.2396  0.3805
   40MOL   C30728465   0.970   0.247   1.522 -0.4001 -0.5653 -0.0123
   40MOL   H30828466   1.124   7.846   1.619 -0.3320  0.6275  0.3259
   40MOL   H30928467   1.316   0.105   1.617  0.8106 -0.1518 -1.4010
   40MOL   H31028468   1.263   0.432   1.353  0.0121 -0.7610  1.7905
   40MOL   H31128469   1.479   0.590   1.462  2.4458  1.1245 -2.2470
   40MOL   H31228470   1.525   0.477   1.326 -1.0983 -1.2980  1.0498
   40MOL   H31328471   1.366   0.603   1.181  0.7094  1.6883 -0.1082
   40MOL   H31428472   1.478   0.702   1.264  1.7177 -2.2237 -0.6445
   40MOL   H31528473   1.178   0.670   1.333 -0.3845  0.0771 -0.9358
   40MOL   H31628474   1.299   0.770   1.424 -1.9613  0.8036  0.5653
   40MOL   H31728475   1.201   0.828   1.150 -0.5135  2.0932 -0.1302
   40MOL   H31828476   1.344   0.897   1.229  1.1407 -0.2186  2.0691
   40MOL   H31928477   1.221   0.976   1.406 -1.2590 -1.0365  0.9570
   40MOL   H32028478   1.062   0.921   1.350 -0.7132 -0.1826 -1.5776
   40MOL   H32128479   1.214   1.165   1.273 -0.6807  0.2406  0.2672
   40MOL   H32228480   1.147   1.073   1.137 -2.4711 -2.7476  0.9703
   40MOL   H32328481   0.937   1.080   1.232  0.1794 -0.0719 -0.5517
   40MOL   H32428482   1.066   0.428   1.462 -1.6438 -0.7014 -0.0401
   40MOL   H32528483   0.877   0.293   1.493  1.1956  3.1882  0.5961
   40MOL   C32628484   0.981   1.267   1.302 -0.0643 -0.7295  0.0517
   40MOL   O32728485   1.062   1.359   1.315 -0.2258  0.3206  0.4567
   40MOL   C32828486   0.837   1.286   1.344  0.0370 -0.6333  0.2042
   40MOL   C32928487   0.785   1.194   1.434 -0.1637 -0.0719  0.3386
   40MOL   C33028488   0.648   1.212   1.471  0.0136  0.2932  0.4317
   40MOL   C33128489   0.566   1.316   1.418  0.2432 -0.1754 -0.2703
   40MOL   C33228490   0.420   1.324   1.447 -0.7338 -0.6420 -0.4940
   40MOL   O33328491   0.374   1.231   1.508 -0.2054  0.0834 -0.3196
   40MOL   N33428492   0.353   1.437   1.424 -1.0040 -0.7006 -0.2039
   40MOL   C33528493   0.225   1.478   1.478  0.0184  0.6137 -0.1777
   40MOL   C33628494   0.136   1.570   1.393  0.3526 -0.0128  0.4033
   40MOL   C33728495   0.012   1.602   1.472 -0.4081  0.6495 -0.0614
   40MOL   C33828496   7.812   1.718   1.434 -0.5859  0.0352  0.4989
   40MOL   C33928497   7.688   1.697   1.335  0.1130 -0.2283 -0.6930
   40MOL   C34028498   7.598   1.818   1.318  0.1953 -0.0558 -0.0078
   40MOL   N34128499   7.485   1.785   1.237  0.1880  0.6380 -0.3751
   40MOL   C34228500   0.622   1.397   1.318  0.6334  0.1084 -0.2052
   40MOL   C34328501   0.756   1.383   1.284  0.6684  0.5417 -0.3753
   40MOL   H34428502   0.837   1.110   1.477  0.3987  0.5536  0.8884
   40MOL   H34528503   0.598   1.149   1.543  0.6352  2.8961  3.2433
   40MOL   H34628504   0.413   1.506   1.383  1.4659 -0.4242  3.6135
   40MOL   H34728505   0.164   1.396   1.515  0.6403  0.8543  1.4073
   40MOL   H34828506   0.240   1.544   1.563  1.4547 -0.1572  0.1836
   40MOL   H34928507   0.119   1.533   1.292  0.9614 -0.2673  0.3895
   40MOL   H35028508   0.192   1.663   1.397 -0.5586  0.5596 -0.0071
   40MOL   H35128509   7.835   1.513   1.465  0.8076  0.0114 -3.2850
   40MOL   H35228510   0.037   1.613   1.578 -1.9734  0.3704  0.3595
   40MOL   H35328511   7.868   1.810   1.415  0.0694 -0.6244 -0.8140
   40MOL   H35428512   7.782   1.741   1.536  1.7116 -1.9198  1.6651
   40MOL   H35528513   7.634   1.605   1.358 -1.7364  0.7439 -0.9970
   40MOL   H35628514   7.734   1.668   1.241 -0.8421 -0.7221 -1.0196
   40MOL   H35728515   7.558   1.856   1.412  0.9665  0.6556  0.0435
   40MOL   H35828516   7.649   1.901   1.269  0.9323  1.2824  2.8661
   40MOL   H35928517   7.483   1.705   1.175  2.3646 -0.0891  0.4529
   40MOL   H36028518   0.568   1.466   1.255  1.4985  0.0652 -0.9992
   40MOL   H36128519   0.807   1.444   1.211  0.1578 -1.0244 -2.0934
   40MOL   C36228520   7.360   1.839   1.238 -0.2172 -0.2742 -0.4090
   40MOL   O36328521   7.329   1.929   1.318  0.3163  0.1881 -0.3209
   40MOL   C36428522   7.263   1.799   1.135 -0.1283  0.1798 -0.1275
   40MOL   C36528523   7.300   1.801   0.999  0.3275  0.7929  0.3935
   40MOL   C36628524   7.205   1.762   0.898 -0.1416  0.8244  0.1965
   40MOL   C36728525   7.077   1.725   0.935  0.2059 -0.1224 -0.0092
   40MOL   C36828526   6.985   1.692   0.824  0.2656 -0.1007 -0.1187
   40MOL   O36928527   7.022   1.610   0.743  0.4288  0.5252 -0.3753
   40MOL   N37028528   6.872   1.769   0.819  0.7048  0.1649 -0.1403
   40MOL   C37128529   6.774   1.774   0.704 -0.0585  0.6707 -0.1353
   40MOL   C37228530   6.848   1.799   0.572 -0.3521 -0.3264  0.2904
   40MOL   C37328531   6.774   1.871   0.461 -0.0228 -0.3072 -0.1994
   40MOL   C37428532   6.863   1.899   0.340  0.0116 -0.2344 -0.2651
   40MOL   C37528533   6.836   1.814   0.219  0.2729 -0.0813 -0.0591
   40MOL   C37628534   6.863   1.663   0.237  0.5704 -0.1048  0.4934
   40MOL   N37728535   6.993   1.640   0.281  0.3017 -0.6913 -0.1370
   40MOL   C37828536   7.043   1.709   1.070  0.9321 -0.1745  0.9139
   40MOL   C37928537   7.132   1.753   1.168  0.0784 -0.0314  0.4960
   40MOL   H38028538   7.401   1.815   0.965  0.1947 -0.8894 -0.8045
   40MOL   H38128539   7.232   1.763   0.794 -2.2636 -1.4489 -0.4139
   40MOL   H38228540   6.845   1.815   0.905 -0.9073 -3.0584  1.1700
   40MOL   H38328541   6.710   1.690   0.680 -0.4176  1.2015 -1.0586
   40MOL   H38428542   6.702   1.856   0.715  0.8959  1.4231  0.6403
   40MOL   H38528543   6.887   1.703   0.538 -3.0809 -1.6600  0.7724
   40MOL   H38628544   6.927   1.866   0.604  0.5095 -0.5456 -1.3163
   40MOL   H38728545   6.682   1.820   0.432  0.3303 -0.5937 -0.8307
   40MOL   H38828546   6.743   1.963   0.512 -0.7706 -1.1117  0.8208
   40MOL   H38928547   6.969   1.899   0.366 -0.6474 -2.0560  2.7013
   40MOL   H39028548   6.848   2.004   0.314  0.5522  0.3077  1.4982
   40MOL   H39128549   6.900   1.852   0.139 -0.4667  0.8426 -0.2122
   40MOL   H39228550   6.735   1.825   0.179  0.1039 -3.6219 -0.7569
   40MOL   H39328551   6.796   1.623   0.313 -0.6908 -2.2871 -1.6845
   40MOL   H39428552   6.839   1.612   0.144  0.4740  1.8060 -0.5579
   40MOL   H39528553   7.011   1.672   0.376  2.3178  1.0824 -1.0914
   40MOL   H39628554   6.947   1.673   1.105  0.6165 -0.0151  0.2204
   40MOL   H39728555   7.102   1.749   1.272  2.6741 -1.8073  1.2407
   40MOL   C39828556   7.104   1.625   0.207  0.5194 -0.2292 -0.8249
   40MOL   O39928557   7.101   1.583   0.091  0.7038 -0.7043 -0.0732
   40MOL   C40028558   7.233   1.658   0.285 -0.4518 -0.5710 -0.2921
   40MOL   C40128559   7.244   1.666   0.426 -0.7602  0.0014  0.0044
   40MOL   C40228560   7.364   1.705   0.485 -0.5822  0.2370  0.4924
   40MOL   C40328561   7.471   1.747   0.410  0.2669  0.3719  0.0649
   40MOL   C40428562   7.601   1.785   0.475 -0.3585  0.2094  0.0984
   40MOL   O40528563   7.614   1.757   0.592 -0.3177 -0.0520 -0.3307
   40MOL   N40628564   7.674   1.873   0.406  0.3434 -0.2216  0.5549
   40MOL   C40728565   7.786   1.943   0.467 -0.0759 -0.1159  0.1169
   40MOL   C40828566   7.745   2.059   0.561 -1.0496 -1.1269  0.4807
   40MOL   C40928567   7.694   2.186   0.496 -0.1170  0.4982  0.2130
   40MOL   C41028568   7.693   2.297   0.608 -0.6836  0.3382  0.1225
   40MOL   C41128569   7.643   2.433   0.559 -0.2073  0.3499 -0.2903
   40MOL   C41228570   7.576   2.518   0.669  0.2215 -0.2626  0.1512
   40MOL   N41328571   7.518   2.643   0.623  0.3235  0.3961 -0.2844
   40MOL   C41428572   7.456   1.744   0.268 -0.3504  0.0456 -0.1809
   40MOL   C41528573   7.341   1.689   0.208 -1.0418 -0.6608 -0.5535
   40MOL   H41628574   7.159   1.662   0.492  0.1750 -2.7466  1.1102
   40MOL   H41728575   7.365   1.722   0.591 -2.8294  2.0078  0.2580
   40MOL   H41828576   7.644   1.893   0.312  1.5135 -0.9307  0.0264
   40MOL   H41928577   7.849   1.874   0.524 -0.3438  0.3728  1.0039
   40MOL   H42028578   7.846   1.977   0.382 -0.9956 -2.4785 -1.5475
   40MOL   H42128579   7.846   2.082   0.593 -1.6233  4.4967 -1.2043
   40MOL   H42228580   7.674   2.021   0.635  0.1043 -0.9919  1.6703
   40MOL   H42328581   7.763   2.205   0.414  2.0820  0.0768  1.9257
   40MOL   H42428582   7.597   2.173   0.446  0.7665  0.3543 -1.4920
   40MOL   H42528583   7.797   2.314   0.635 -0.9584 -1.9192  2.7510
   40MOL   H42628584   7.648   2.250   0.695 -0.3980 -1.3624 -0.6392
   40MOL   H42728585   7.574   2.414   0.477 -0.1935 -1.7387  0.1762
   40MOL   H42828586   7.722   2.501   0.525 -0.4023  2.1169  2.5752
   40MOL   H42928587   7.522   2.467   0.748 -0.2019 -0.0720 -0.0134
   40MOL   H43028588   7.656   2.562   0.729  0.1631 -0.0891  0.1043
   40MOL   H43128589   7.577   2.723   0.605  0.7963  0.5731  1.9687
   40MOL   H43228590   7.538   1.777   0.208  1.4675 -0.0908  2.1511
   40MOL   H43328591   7.326   1.688   0.101  0.8061 -0.8811 -0.8309
   40MOL   C43428592   7.387   2.642   0.594  0.0038  0.4369  0.0514
   40MOL   O43528593   7.318   2.544   0.576 -0.0282 -0.3007 -0.0554
   40MOL   C43628594   7.331   2.780   0.565 -0.1790  0.4699  0.2815
   40MOL   C43728595   7.378   2.892   0.637  0.3412  0.3343 -0.0223
   40MOL   C43828596   7.321   3.021   0.616 -0.4010 -0.3771  0.0552
   40MOL   C43928597   7.226   3.038   0.514 -0.1505 -0.1018 -0.1462
   40MOL   C44028598   7.168   3.175   0.490 -0.2973  0.5592 -0.0610
   40MOL   O44128599   7.175   3.264   0.577  0.2810 -0.1834 -0.0049
   40MOL   N44228600   7.095   3.196   0.383  0.8452  0.3789 -0.2931
   40MOL   C44328601   7.042   3.322   0.344 -0.1638 -0.0508 -0.0202
   40MOL   C44428602   6.895   3.347   0.399  0.3008  0.1201 -0.3881
   40MOL   C44528603   6.850   3.492   0.380  0.1263 -0.0899 -0.8821
   40MOL   C44628604   6.703   3.509   0.427  0.8103  0.0915  0.3575
   40MOL   C44728605   6.648   3.635   0.390  0.6129  0.6994 -0.2364
   40MOL   C44828606   6.495   3.656   0.425  0.0772  0.2103 -0.3786
   40MOL   N44928607   6.452   3.792   0.412 -0.4434  0.4542 -0.5469
   40MOL   C45028608   7.182   2.927   0.437  0.3060 -0.5485  0.0638
   40MOL   C45128609   7.240   2.800   0.464 -0.1025  0.4092  0.3017
   40MOL   H45228610   7.449   2.879   0.718  0.4861  0.5738 -0.1095
   40MOL   H45328611   7.350   3.100   0.683 -0.5661 -2.6636  2.9178
   40MOL   H45428612   7.110   3.127   0.310  0.7839  0.0029  0.0513
   40MOL   H45528613   7.117   3.395   0.373  0.0286 -0.0658 -0.4633
   40MOL   H45628614   7.026   3.328   0.236  0.5275  1.9322 -0.0382
   40MOL   H45728615   6.893   3.330   0.507 -0.5637  0.3703 -0.3562
   40MOL   H45828616   6.818   3.279   0.363  0.3839 -0.2431  0.1103
   40MOL   H45928617   6.913   3.563   0.432  1.3553  0.3494 -2.8939
   40MOL   H46028618   6.843   3.510   0.272  1.0917 -0.9891 -1.0999
   40MOL   H46128619   6.701   3.492   0.534  3.4664  0.1058  0.4462
   40MOL   H46228620   6.643   3.425   0.393  1.2543  0.1797 -0.6646
   40MOL   H46328621   6.663   3.654   0.284 -3.9742 -1.7552 -1.4655
   40MOL   H46428622   6.701   3.713   0.445  1.3886  0.2712 -0.3852
   40MOL   H46528623   6.427   3.591   0.369 -0.2854 -0.2543  0.5938
   40MOL   H46628624   6.480   3.619   0.526 -0.7725  0.7835 -0.2936
   40MOL   H46728625   6.517   3.867   0.433 -2.1504  2.0963 -0.9535
   40MOL   H46828626   7.105   2.934   0.361 -1.1850 -0.1847  1.5697
   40MOL   H46928627   7.218   2.719   0.396 -0.9655  0.5322  0.4279
   40MOL   C47028628   6.330   3.831   0.376  0.1082  0.1273  0.5710
   40MOL   O47128629   6.239   3.761   0.325  0.0561 -0.8454 -0.5070
   40MOL   C47228630   6.299   3.973   0.413  0.4860  0.1344 -0.6250
   40MOL   C47328631   6.214   4.047   0.330  0.5059  0.1602 -0.1562
   40MOL   C47428632   6.185   4.185   0.357 -0.1369  0.2287  0.3742
   40MOL   C47528633   6.245   4.247   0.471  0.3533 -0.8544  0.6613
   40MOL   C47628634   6.207   4.385   0.512  0.2529 -0.4102  0.2051
   40MOL   O47728635   6.275   4.457   0.581 -0.1815  0.5760 -0.6878
   40MOL   N47828636   6.095   4.425   0.456  0.2698 -0.8305  0.3453
   40MOL   C47928637   6.044   4.565   0.460  0.5345 -0.5078 -0.4540
   40MOL   C48028638   5.925   4.556   0.551 -0.2375 -0.1534 -0.7716
   40MOL   C48128639   5.853   4.690   0.566 -0.6483 -0.8636 -0.5100
   40MOL   C48228640   5.730   4.686   0.657  0.0166  0.3427 -0.1355
   40MOL   C48328641   5.619   4.574   0.628  0.2502 -0.4281 -0.3647
   40MOL   C48428642   5.584   4.466   0.732  0.6350  0.0917  0.0372
   40MOL   N48528643   5.685   4.359   0.731  0.2117 -0.0835 -0.2874
   40MOL   C48628644   6.327   4.170   0.557 -0.2949  0.0882 -0.1710
   40MOL   C48728645   6.352   4.039   0.529 -0.5481  0.3345  0.3594
   40MOL   H48828646   6.172   3.995   0.246 -0.9117 -0.0218  0.6606
   40MOL   H48928647   6.117   4.239   0.294  1.1064  1.5441  0.1463
   40MOL   H49028648   6.061   4.353   0.394  0.2300 -1.9234  1.6158
   40MOL   H49128649   6.107   4.650   0.486 -0.4033 -0.1471  0.6539
   40MOL   H49228650   6.001   4.580   0.361  2.7630 -1.0068 -1.5493
   40MOL   H49328651   5.960   4.505   0.641  0.8615  3.0995  0.7126
   40MOL   H49428652   5.860   4.484   0.500 -1.6144 -0.0624  0.8247
   40MOL   H49528653   5.923   4.758   0.615 -1.3566 -0.2654 -0.3120
   40MOL   H49628654   5.825   4.726   0.467 -1.1318 -3.8173 -1.4935
   40MOL   H49728655   5.687   4.785   0.670 -0.0713  0.1952  0.6927
   40MOL   H49828656   5.766   4.647   0.752 -1.1825 -3.3000 -1.0722
   40MOL   H49928657   5.645   4.519   0.538  0.9826  1.1797 -1.1533
   40MOL   H50028658   5.527   4.621   0.594 -0.2856  0.5450  2.3362
   40MOL   H50128659   5.585   4.516   0.829 -1.3989  1.2193 -0.4967
   40MOL   H50228660   5.485   4.423   0.725  0.7379 -0.1391 -0.0089
   40MOL   H50328661   5.709   4.316   0.642 -0.7110 -0.7067 -0.2402
   40MOL   H50428662   6.358   4.216   0.649 -1.8257 -2.1304  1.4963
   40MOL   H50528663   6.408   3.989   0.607  0.0873 -0.2304 -0.4490
   40MOL   C50628664   5.751   4.312   0.837 -0.5510 -0.1535 -0.4007
   40MOL   O50728665   5.745   4.367   0.946 -0.0779  0.0822 -0.4857
   40MOL   C50828666   5.838   4.196   0.815 -0.4175 -0.5886  0.3056
   40MOL   C50928667   5.911   4.193   0.692 -0.2398  0.5606  0.3220
   40MOL   C51028668   6.008   4.091   0.681 -0.6288  0.3207 -0.6910
   40MOL   C51128669   6.027   3.990   0.786 -1.2532 -0.5652  0.1931
   40MOL   C51228670   6.134   3.885   0.778 -1.2969  0.1578 -0.0710
   40MOL   O51328671   6.152   3.815   0.683  0.0878 -0.5445 -0.0270
   40MOL   N51428672   6.208   3.878   0.888  0.3127  0.2086  0.3907
   40MOL   C51528673   6.323   3.782   0.914 -0.1299 -0.2141 -0.1042
   40MOL   C51628674   6.437   3.802   0.809 -0.2038 -0.8072 -0.2370
   40MOL   C51728675   6.527   3.688   0.814 -0.9016 -0.7898  0.4617
   40MOL   C51828676   6.676   3.720   0.797 -0.0553 -0.7299 -0.3272
   40MOL   C51928677   6.770   3.594   0.830 -0.5880 -0.6731 -0.3136
   40MOL   C52028678   6.920   3.599   0.791 -0.5719 -0.8833 -0.3162
   40MOL   N52128679   6.992   3.478   0.834 -0.2742  0.7880 -0.0264
   40MOL   C52228680   5.953   4.002   0.903  0.0846 -0.3376 -0.0646
   40MOL   C52328681   5.864   4.107   0.923 -0.5337  0.3663 -0.5372
   40MOL   H52428682   5.894   4.263   0.611  1.5955  1.1959  0.4645
   40MOL   H52528683   6.071   4.083   0.594 -1.1074  0.1803 -1.0280
   40MOL   H52628684   6.185   3.958   0.945 -1.4089 -0.2830  0.4257
   40MOL   H52728685   6.355   3.771   1.017 -0.7686  1.7364  0.3216
   40MOL   H52828686   6.284   3.681   0.907  2.0523 -1.1019  0.1556
   40MOL   H52928687   6.478   3.900   0.832 -1.2129 -0.7666  1.4586
   40MOL   H53028688   6.390   3.811   0.711  0.0842 -0.0985 -0.3116
   40MOL   H53128689   6.520   3.637   0.910  4.2571  0.0550  1.4376
   40MOL   H53228690   6.500   3.614   0.739  0.5518  0.5727 -1.4500
   40MOL   H53328691   6.698   3.797   0.872 -0.2560 -1.9422  0.9898
   40MOL   H53428692   6.688   3.760   0.697 -2.7042  0.4910 -0.1841
   40MOL   H53528693   6.721   3.512   0.778  0.9974 -0.9865 -1.3505
   40MOL   H53628694   6.755   3.571   0.935 -2.6085 -0.6184 -0.5686
   40MOL   H53728695   6.927   3.617   0.684 -2.1219  1.5355 -0.0559
   40MOL   H53828696   6.958   3.691   0.835 -1.3996 -0.8038  0.2457
   40MOL   H53928697   7.073   3.485   0.894  1.0298 -2.9132 -1.2743
   40MOL   H54028698   5.968   3.925   0.978  1.9200  0.5025  0.4543
   40MOL   H54128699   5.810   4.117   1.016  0.6742  3.2153 -0.0831
   40MOL   C54228700   6.961   3.354   0.805 -0.1185  0.2459 -0.0533
   40MOL   O54328701   6.850   3.324   0.759 -0.1176 -0.7039 -0.1941
   40MOL   C54428702   7.057   3.247   0.853  0.2701  0.4307 -0.4169
   40MOL   C54528703   7.182   3.292   0.903 -0.5574  0.0641  0.1307
   40MOL   C54628704   7.279   3.200   0.959 -1.2955  0.8900  0.5753
   40MOL   C54728705   7.238   3.066   0.968  0.5713 -0.0844 -0.2736
   40MOL   C54828706   7.333   2.966   1.025 -0.2666 -0.1636  0.2179
   40MOL   O54928707   7.450   2.956   0.979 -0.0380  0.1507 -0.2287
   40MOL   N55028708   7.282   2.875   1.113 -0.6231 -0.9919 -0.1877
   40MOL   C55128709   7.350   2.773   1.188  0.9675  0.2904  0.0172
   40MOL   C55228710   7.243   2.669   1.234 -0.1012 -0.8318  0.0583
   40MOL   C55328711   7.278   2.564   1.339 -0.5975  0.6349 -0.6956
   40MOL   C55428712   7.391   2.474   1.280  0.4635  0.8510  0.4796
   40MOL   C55528713   7.418   2.346   1.366  0.4136  0.1902 -0.5676
   40MOL   C55628714   7.517   2.239   1.318 -0.1644  0.1247 -0.6756
   40MOL   N55728715   7.489   2.202   1.180  0.1200  0.0148  0.5192
   40MOL   C55828716   7.113   3.024   0.916 -0.6590  0.2219 -0.4906
   40MOL   C55928717   7.021   3.111   0.858 -0.3586  0.2574  0.5034
   40MOL   H56028718   7.210   3.396   0.893  0.1230 -0.3285 -2.7383
   40MOL   H56128719   7.371   3.223   1.012  0.0886 -2.1917 -0.3714
   40MOL   H56228720   7.188   2.895   1.145 -0.0443 -0.2455  1.0937
   40MOL   H56328721   7.419   2.712   1.131 -1.8304 -1.8608 -1.1555
   40MOL   H56428722   7.407   2.821   1.268  0.0564 -0.7095  1.2806
   40MOL   H56528723   7.207   2.618   1.144 -0.3246 -0.9647  0.2231
   40MOL   H56628724   7.148   2.720   1.250  0.1213 -0.3749 -0.0863
   40MOL   H56728725   7.312   2.615   1.429  0.1085 -1.5633  0.2996
   40MOL   H56828726   7.188   2.506   1.360 -1.1999  1.2107 -1.6090
   40MOL   H56928727   7.483   2.528   1.263 -0.7382  2.8158  0.0588
   40MOL   H57028728   7.351   2.432   1.188  2.0180  0.4723 -0.0362
   40MOL   H57128729   7.321   2.302   1.389  0.6005  0.4015  0.6664
   40MOL   H57228730   7.443   2.375   1.468 -1.5270  2.1090 -0.5791
   40MOL   H57328731   7.615   2.287   1.318 -1.4457  2.8432 -0.4391
   40MOL   H57428732   7.521   2.157   1.390  2.0331  1.1962  0.4866
   40MOL   H57528733   7.396   2.232   1.154  0.5180  0.4540 -0.4267
   40MOL   H57628734   7.111   2.916   0.918 -0.5463  0.2349  0.4422
   40MOL   H57728735   6.931   3.075   0.811  0.3563  1.1041 -1.5759
   40MOL   C57828736   7.561   2.146   1.083  0.3947  0.0361  0.5415
   40MOL   O57928737   7.674   2.107   1.102 -0.1008 -0.0069 -0.5500
   40MOL   C58028738   7.488   2.141   0.951  0.5013  0.7041 -0.0730
   40MOL   C58128739   7.392   2.242   0.918  0.3773 -0.4516 -0.0257
   40MOL   C58228740   7.329   2.237   0.795  0.4981  0.0300  0.3011
   40MOL   C58328741   7.344   2.121   0.713  0.3561 -0.2957  0.4278
   40MOL   C58428742   7.265   2.113   0.582 -0.3303 -0.9690 -0.2374
   40MOL   O58528743   7.231   2.009   0.529 -0.1082 -0.4971 -0.7238
   40MOL   N58628744   7.242   2.222   0.518 -0.2645  0.3399 -0.2076
   40MOL   C58728745   7.190   2.236   0.379  1.0169 -0.1848  0.4994
   40MOL   C58828746   7.311   2.235   0.291 -0.0709 -0.3388 -0.1470
   40MOL   C58928747   7.266   2.272   0.145  0.0356  0.5054 -0.1928
   40MOL   C59028748   7.386   2.261   0.051 -0.7159 -0.0394 -0.2120
   40MOL   C59128749   7.397   2.115   7.884 -0.0939 -0.5458 -0.4071
   40MOL   C59228750   7.506   2.099   7.780 -1.0496  0.1964  0.2089
   40MOL   N59328751   7.638   2.127   7.827  0.3613  1.1341  0.2668
   40MOL   C59428752   7.430   2.025   0.751  0.0103 -0.2270  0.2108
   40MOL   C59528753   7.506   2.031   0.866 -0.3433  0.0759 -0.6809
   40MOL   H59628754   7.374   2.327   0.982 -2.6909  0.0045 -1.4312
   40MOL   H59728755   7.259   2.312   0.761 -0.8013 -1.9615 -1.5557
   40MOL   H59828756   7.270   2.308   0.564  2.7758 -0.6999 -0.0190
   40MOL   H59928757   7.127   2.152   0.351 -0.3479  1.3924 -1.3427
   40MOL   H60028758   7.130   2.326   0.366  1.1106 -0.5288 -2.9277
   40MOL   H60128759   7.358   2.137   0.291 -0.6124 -0.6027 -0.0407
   40MOL   H60228760   7.379   2.314   0.320 -0.5032 -0.4877  1.2790
   40MOL   H60328761   7.185   2.209   0.108  2.3550 -2.2650 -0.7547
   40MOL   H60428762   7.223   2.372   0.145  1.6718  1.2769 -4.0114
   40MOL   H60528763   7.473   2.304   0.101 -0.0505 -2.2289  0.5815
   40MOL   H60628764   7.376   2.315   7.843  0.3139  2.0116  0.8202
   40MOL   H60728765   7.301   2.073   7.855 -0.4965  1.0623 -1.4754
   40MOL   H60828766   7.427   2.053   0.082  0.2354 -1.4170 -1.1587
   40MOL   H60928767   7.509   1.997   7.743  2.0458 -0.0159  0.9032
   40MOL   H61028768   7.484   2.152   7.687  1.8711 -2.4057 -2.0852
   40MOL   H61128769   7.679   2.218   7.816  1.8444  0.5309  0.5913
   40MOL   H61228770   7.459   1.943   0.686  1.7583  0.2854  0.3166
   40MOL   H61328771   7.579   1.951   0.874 -0.6908 -0.0106  1.8179
   40MOL   C61428772   7.719   2.031   7.885  0.2153  0.2396  0.5839
   40MOL   O61528773   7.690   1.918   0.024 -0.3528  0.2412  0.0002
   40MOL   C61628774   7.851   2.084   0.043  0.0725  0.2957  0.2176
   40MOL   C61728775   7.854   2.193   0.129  0.0505 -0.1436  0.9380
   40MOL   C61828776   0.098   2.241   0.172 -0.3469  0.1174  0.1315
   40MOL   C61928777   0.217   2.169   0.160 -0.2668 -0.0346 -0.3447
   40MOL   C62028778   0.347   2.216   0.209  0.1630 -0.1138 -0.5326
   40MOL   O62128779   0.376   2.337   0.204 -0.3988 -0.2522  0.5759
   40MOL   N62228780   0.426   2.118   0.244 -0.3559  0.7323 -0.0263
   40MOL   C62328781   0.565   2.132   0.283  0.2750 -0.0868  0.4554
   40MOL   C62428782   0.592   2.139   0.439 -0.2082  0.6864 -0.3502
   40MOL   C62528783   0.729   2.210   0.460  0.4014 -0.0053 -0.5465
   40MOL   C62628784   0.791   2.241   0.599  0.0164 -0.3346  0.0062
   40MOL   C62728785   0.881   2.131   0.658  0.1009  0.2772 -0.3662
   40MOL   C62828786   0.918   2.157   0.804  0.0550  0.0522 -0.2422
   40MOL   N62928787   0.996   2.049   0.866 -0.4585  0.5692  0.8578
   40MOL   C63028788   0.208   2.053   0.081 -0.6213 -0.0512  0.6135
   40MOL   C63128789   0.082   2.012   0.028  0.2738 -0.1736  0.0273
   40MOL   H63228790   7.765   2.249   0.154 -1.1775 -0.2959 -2.8294
   40MOL   H63328791   0.102   2.323   0.242  2.2674  0.3369 -0.2177
   40MOL   H63428792   0.381   2.029   0.260  1.6723 -0.1502  1.0335
   40MOL   H63528793   0.621   2.051   0.237  0.9977  0.8477 -0.3490
   40MOL   H63628794   0.602   2.221   0.231 -0.1501 -0.5981 -0.7498
   40MOL   H63728795   0.580   2.040   0.483 -2.4920  1.0027 -0.1916
   40MOL   H63828796   0.524   2.206   0.493  1.0538  1.1880  0.6608
   40MOL   H63928797   0.804   2.157   0.401 -0.7790  0.4887 -2.5274
   40MOL   H64028798   0.723   2.303   0.403  2.7734  1.3073  1.2911
   40MOL   H64128799   0.705   2.270   0.659  0.7291  3.0977 -0.5511
   40MOL   H64228800   0.847   2.333   0.586 -0.2189 -0.1224  0.4872
   40MOL   H64328801   0.962   2.106   0.589 -0.7574  1.0216 -1.6860
   40MOL   H64428802   0.821   2.041   0.649  0.9195 -0.0852 -2.5139
   40MOL   H64528803   0.980   2.247   0.804  0.5562 -0.2947 -0.1764
   40MOL   H64628804   0.829   2.165   0.866  0.6904 -0.2792  0.7291
   40MOL   H64728805   1.094   2.071   0.875 -1.1681  3.2168  2.4987
   40MOL   H64828806   0.295   1.995   0.055 -1.3164 -0.2203 -1.3901
   40MOL   H64928807   0.072   1.918   7.861 -0.1304 -0.5145  0.6976
   40MOL   C65028808   0.955   1.940   0.919 -0.4868  0.3781  0.3336
   40MOL   O65128809   0.839   1.902   0.919  0.3881 -0.1107  0.1424
   40MOL   C65228810   1.054   1.866   1.004  0.6129  0.3009 -0.6809
   40MOL   C65328811   1.009   1.751   1.069 -0.2965  0.1371  0.1589
   40MOL   C65428812   1.094   1.686   1.156 -0.3420  0.4604  0.3745
   40MOL   C65528813   1.225   1.734   1.180 -0.2567 -0.0016 -0.1282
   40MOL   C65628814   1.317   1.662   1.271  0.1209  0.4323  0.1493
   40MOL   O65728815   1.433   1.699   1.291 -0.5265 -0.1074 -0.4730
   40MOL   N65828816   1.256   1.568   1.345  0.1686  0.3200  0.4249
   40MOL   C65928817   1.320   1.491   1.447 -0.2756 -0.4130  0.4760
   40MOL   C66028818   1.422   1.387   1.392 -0.3501  0.1185  0.3822
   40MOL   C66128819   1.501   1.310   1.496 -0.1369  0.1984 -0.4511
   40MOL   C66228820   1.596   1.205   1.444 -0.4975  0.5936 -0.1272
   40MOL   C66328821   1.530   1.075   1.411 -0.7457 -0.3709 -0.0901
   40MOL   C66428822   1.617   0.958   1.360 -0.1163 -0.0258 -0.8814
   40MOL   N66528823   1.680   0.985   1.236  0.2727 -0.1055  0.7604
   40MOL   C66628824   1.278   1.831   1.093  0.7407  0.5747 -0.5013
   40MOL   C66728825   1.189   1.909   1.013 -0.1962 -0.2033 -0.3297
   40MOL   H66828826   0.907   1.723   1.049  0.0050 -0.0813 -1.1419
   40MOL   H66928827   1.052   1.602   1.209 -0.1152 -1.5132 -2.4347
   40MOL   H67028828   1.157   1.548   1.335 -0.1251  0.2927  3.1168
   40MOL   H67128829   1.368   1.564   1.513 -1.4037 -0.1764  1.0318
   40MOL   H67228830   1.241   1.450   1.509 -0.1024 -1.4561  0.0139
   40MOL   H67328831   1.491   1.432   1.321 -2.4371  1.1818 -1.0287
   40MOL   H67428832   1.368   1.312   1.334  1.4673  0.3969 -1.7265
   40MOL   H67528833   1.557   1.389   1.548  0.9542 -0.0439 -1.2453
   40MOL   H67628834   1.424   1.265   1.559 -0.3825 -1.5187 -1.9635
   40MOL   H67728835   1.677   1.196   1.517 -2.5097 -0.0969  2.0759
   40MOL   H67828836   1.642   1.241   1.352  2.2362 -2.5040 -0.0920
   40MOL   H67928837   1.449   1.101   1.342 -0.9134  2.2595  1.0296
   40MOL   H68028838   1.474   1.049   1.501 -3.1498 -0.9222 -1.6862
   40MOL   H68128839   1.676   0.920   1.443 -1.3760 -0.7297 -0.2904
   40MOL   H68228840   1.549   0.881   1.324 -0.1099 -0.1804 -0.5624
   40MOL   H68328841   1.628   1.023   1.158  1.3810 -0.7978 -0.3438
   40MOL   H68428842   1.381   1.861   1.106  0.9541 -0.3812  0.1133
   40MOL   H68528843   1.223   1.987   0.947 -1.7969  0.3850 -0.4809
   40MOL   C68628844   1.802   0.970   1.199 -0.3862  0.5686  0.4144
   40MOL   O68728845   1.894   0.944   1.272 -0.7775  0.1843 -0.1719
   40MOL   C68828846   1.821   0.971   1.054 -0.2249  0.2715  0.2909
   40MOL   C68928847   1.936   1.030   0.995 -0.6247 -1.0672 -0.3847
   40MOL   C69028848   1.961   1.008   0.856  0.1561 -0.6398 -0.2176
   40MOL   C69128849   1.869   0.932   0.782 -0.5315  0.7673  0.2943
   40MOL   C69228850   1.897   0.904   0.639  0.4467 -0.0873 -0.0600
   40MOL   O69328851   1.812   0.866   0.566  0.1073 -0.1855 -0.1771
   40MOL   N69428852   2.027   0.903   0.602 -0.1061  0.2568 -0.5667
   40MOL   C69528853   2.071   0.842   0.479  0.8195  0.5404  0.1572
   40MOL   C69628854   2.051   0.936   0.365  0.1607 -0.3132  0.9715
   40MOL   C69728855   2.116   0.884   0.237  0.7610 -0.1056  0.8123
   40MOL   C69828856   2.117   0.996   0.126 -0.6793  0.8370 -0.0589
   40MOL   C69928857   2.225   0.979   0.018 -0.3830 -0.1176  0.3216
   40MOL   C70028858   2.236   1.109   7.826 -0.5016  0.4768 -0.2595
   40MOL   N70128859   2.348   1.111   7.728 -0.2903 -0.0074 -0.6083
   40MOL   C70228860   1.754   0.880   0.843 -0.4172  0.1420  0.0204
   40MOL   C70328861   1.734   0.895   0.981  0.5122 -0.2073  0.3769
   40MOL   H70428862   2.006   1.080   1.060 -0.2077 -1.3542 -0.6127
   40MOL   H70528863   2.050   1.055   0.816  0.5940  0.0448  1.4757
   40MOL   H70628864   2.099   0.927   0.668 -0.0764 -0.8431 -0.1800
   40MOL   H70728865   2.173   0.809   0.493  0.7443 -0.2358 -1.0238
   40MOL   H70828866   2.008   0.757   0.453  1.0969  1.1543 -2.7404
   40MOL   H70928867   2.087   1.035   0.394  1.2824 -0.9697  1.8773
   40MOL   H71028868   1.944   0.934   0.343  0.6752 -1.8362 -1.5152
   40MOL   H71128869   2.216   0.852   0.267  0.6185 -0.0551  1.3406
   40MOL   H71228870   2.076   0.791   0.197  1.2212 -0.0347  0.1766
   40MOL   H71328871   2.145   1.090   0.175 -1.5205  0.4245  1.2261
   40MOL   H71428872   2.020   1.013   0.078  0.7242  1.0111 -2.9272
   40MOL   H71528873   2.195   0.905   7.829  0.2733  1.2555 -1.3361
   40MOL   H71628874   2.322   0.947   0.055 -0.1750  1.5377  1.2436
   40MOL   H71728875   2.141   1.123   7.773 -2.9632 -1.6878  3.3919
   40MOL   H71828876   2.255   1.197   0.001  0.3409 -0.2236  0.5075
   40MOL   H71928877   2.326   1.185   7.663 -0.3172  0.6231  0.1056
   40MOL   H72028878   1.687   0.829   0.776 -0.8068 -1.8245  1.8835
   40MOL   H72128879   1.646   0.853   1.028  0.5544 -0.9278 -0.1833
   40MOL   H72228880   2.439   1.121   7.771  0.2071 -1.6366 -1.2247
   41MOL     C128881   7.585   0.970   0.667 -0.0217  0.0109 -0.4701
   41MOL     O228882   7.599   1.091   0.650  0.1147 -0.5053  0.1097
   41MOL     C328883   7.506   0.921   0.783  1.1896  1.0458 -0.2080
   41MOL     C428884   7.489   0.777   0.796  0.3413  0.1628 -0.4982
   41MOL     C528885   7.428   0.727   0.912 -0.3096 -0.1672  0.6399
   41MOL     C628886   7.369   0.823   0.999 -0.0602 -0.5865  0.3121
   41MOL     C728887   7.301   0.777   1.124  0.1751 -0.1760 -0.0780
   41MOL     O828888   7.243   0.856   1.195 -0.1738 -0.0430 -0.2163
   41MOL     N928889   7.321   0.647   1.159  0.1485 -0.3964  0.1779
   41MOL    C1028890   7.254   0.581   1.272  0.1519 -0.5433  0.3580
   41MOL    C1128891   7.102   0.583   1.257  0.0113  0.6327  0.3081
   41MOL    C1228892   7.038   0.529   1.388 -0.2285  0.1961 -0.1984
   41MOL    C1328893   6.882   0.521   1.385 -0.4368 -0.6691 -0.2248
   41MOL    C1428894   6.823   0.421   1.493 -0.1439  0.5315  0.0995
   41MOL    C1528895   6.674   0.430   1.518 -0.2120 -0.9557  0.0487
   41MOL    N1628896   6.635   0.550   1.596  0.1874 -0.5746  0.2539
   41MOL    C1728897   7.363   0.963   0.967  0.1249  1.7115 -0.4185
   41MOL    C1828898   7.447   1.014   0.867  0.5837  0.1182  0.2905
   41MOL    H1928899   7.531   0.704   0.728  1.6033  0.2214  0.1869
   41MOL    H2028900   7.411   0.621   0.922  2.1670 -0.6472 -0.1185
   41MOL    H2128901   7.388   0.594   1.105  0.6173  1.2456 -0.8820
   41MOL    H2228902   7.288   0.480   1.293  1.2500 -0.4395 -0.8757
   41MOL    H2328903   7.282   0.640   1.360 -0.2488 -1.9218  1.4188
   41MOL    H2428904   7.068   0.518   1.176 -0.5779 -0.8047  1.6727
   41MOL    H2528905   7.063   0.684   1.261  0.0545  0.9600 -4.2916
   41MOL    H2628906   7.070   0.430   1.420 -1.1455 -0.0274  0.0297
   41MOL    H2728907   7.072   0.591   1.470  0.4530  0.0873 -0.3959
   41MOL    H2828908   6.859   0.497   1.281  0.0618  0.7844 -0.6884
   41MOL    H2928909   6.843   0.620   1.409 -0.2215 -0.8294  0.7990
   41MOL    H3028910   6.866   0.425   1.593 -1.1624  0.0169  0.5733
   41MOL    H3128911   6.836   0.322   1.450 -0.9570  0.3869  0.1845
   41MOL    H3228912   6.614   0.420   1.428 -1.2816  0.1854  0.6160
   41MOL    H3328913   6.656   0.344   1.582  0.4919 -0.7746  0.4974
   41MOL    H3428914   6.648   0.557   1.696 -2.9567 -0.4486  0.7048
   41MOL    H3528915   7.294   1.023   1.024 -0.5122  0.0737  0.5590
   41MOL    H3628916   7.448   1.119   0.843 -0.9377  0.0197 -0.2857
   41MOL    H3728917   7.636   0.891   0.612  0.8288 -0.0107  0.3501
   41MOL    C3828918   6.540   0.637   1.561 -0.7977 -0.7579  0.8792
   41MOL    O3928919   6.482   0.630   1.454 -0.6109 -0.1681 -0.0883
   41MOL    C4028920   6.505   0.734   1.668 -0.7309  0.3140 -0.7080
   41MOL    C4128921   6.381   0.799   1.670  0.7910 -0.3424 -0.7004
   41MOL    C4228922   6.335   0.871   1.780 -0.0497  0.3479  0.0896
   41MOL    C4328923   6.426   0.891   1.890  0.8472 -0.0493 -0.8339
   41MOL    C4428924   6.372   0.971   2.006  0.5272 -0.6448  0.3065
   41MOL    O4528925   6.419   0.971   2.119 -0.1387 -0.0020 -0.0076
   41MOL    N4628926   6.277   1.061   1.972 -0.5790 -0.2805 -0.4134
   41MOL    C4728927   6.247   1.183   2.055  0.1872 -0.6369  0.3528
   41MOL    C4828928   6.358   1.286   2.039  0.0533  0.3399  0.3956
   41MOL    C4928929   6.343   1.395   2.150 -0.0100 -0.2388  0.1322
   41MOL    C5028930   6.202   1.446   2.161  0.2763  0.0149 -0.2937
   41MOL    C5128931   6.176   1.556   2.270 -0.2788  0.2938 -0.6535
   41MOL    C5228932   6.023   1.581   2.274 -0.5093  0.4797 -0.6235
   41MOL    N5328933   6.007   1.700   2.357  0.3601 -0.4659  0.0195
   41MOL    C5428934   6.549   0.832   1.886  0.1664  0.3169  0.0019
   41MOL    C5528935   6.596   0.760   1.771  0.1451  0.2584 -0.6972
   41MOL    H5628936   6.318   0.770   1.587 -0.0475 -2.4046  0.5945
   41MOL    H5728937   6.235   0.912   1.777 -0.2999 -0.2721 -0.2122
   41MOL    H5828938   6.233   1.052   1.882 -0.7879  3.0860 -0.7151
   41MOL    H5928939   6.155   1.227   2.015  0.8229 -0.9355 -1.4897
   41MOL    H6028940   6.225   1.157   2.159  1.1879  1.3412  1.0742
   41MOL    H6128941   6.357   1.325   1.937  1.4792  0.2260  0.3250
   41MOL    H6228942   6.456   1.244   2.057  0.0024  0.7754  1.7458
   41MOL    H6328943   6.380   1.357   2.245 -0.6396  1.4016  1.0559
   41MOL    H6428944   6.408   1.480   2.131 -1.9417  1.2755  0.0992
   41MOL    H6528945   6.135   1.364   2.187 -0.4587 -0.0455 -2.2496
   41MOL    H6628946   6.161   1.487   2.068 -0.9904  0.1095  0.2999
   41MOL    H6728947   6.235   1.643   2.241  1.4384 -0.2594  1.1053
   41MOL    H6828948   6.212   1.527   2.369 -1.9098 -0.0621 -0.1441
   41MOL    H6928949   5.983   1.618   2.180 -1.8431  0.8440  0.0768
   41MOL    H7028950   5.966   1.493   2.304  2.0541 -0.9403  0.1561
   41MOL    H7128951   6.088   1.738   2.403 -1.2143  0.9803  1.6453
   41MOL    H7228952   6.621   0.847   1.965  0.4258  0.2357 -0.2187
   41MOL    H7328953   6.696   0.718   1.773  0.8290  1.8100 -1.3190
   41MOL    C7428954   5.886   1.751   2.386  1.1016 -0.4241  0.3751
   41MOL    O7528955   5.785   1.697   2.351  0.1252 -0.4434  0.2567
   41MOL    C7628956   5.884   1.880   2.464 -0.3241 -0.7174  0.0874
   41MOL    C7728957   5.977   1.977   2.438  0.6811  0.0537 -0.2971
   41MOL    C7828958   5.973   2.099   2.505 -0.4826 -0.5195  0.1516
   41MOL    C7928959   5.888   2.120   2.616  0.5153  0.4447 -0.0649
   41MOL    C8028960   5.884   2.241   2.692  0.0598 -0.8370 -0.1686
   41MOL    O8128961   5.851   2.237   2.814 -0.1131 -0.6470 -0.2375
   41MOL    N8228962   5.911   2.352   2.624  0.4970  0.3188  0.0760
   41MOL    C8328963   5.890   2.485   2.681 -0.1588  0.0188 -0.2893
   41MOL    C8428964   5.734   2.508   2.684 -0.2962  0.9895 -0.8284
   41MOL    C8528965   5.702   2.632   2.763 -0.2444 -0.2129  0.3035
   41MOL    C8628966   5.561   2.686   2.741  0.6172  0.3395 -1.0444
   41MOL    C8728967   5.546   2.807   2.835  0.0660  0.2800 -0.1137
   41MOL    C8828968   5.416   2.880   2.818 -0.3400  0.2248 -0.5068
   41MOL    N8928969   5.409   2.988   2.920  0.2623  0.9361  0.0735
   41MOL    C9028970   5.797   2.015   2.649 -0.3200  0.7861 -0.9078
   41MOL    C9128971   5.787   1.898   2.566 -0.3729 -0.5924 -0.3537
   41MOL    H9228972   6.048   1.962   2.358 -0.7660 -2.1652 -1.2053
   41MOL    H9328973   6.042   2.179   2.481  0.0869 -0.9329  0.3986
   41MOL    H9428974   5.941   2.352   2.527 -1.8025 -2.1559 -0.7082
   41MOL    H9528975   5.941   2.495   2.777 -0.1444  0.2797 -0.3231
   41MOL    H9628976   5.950   2.552   2.619  0.2272 -0.5464 -0.5301
   41MOL    H9728977   5.686   2.421   2.730  0.1264  0.7975 -0.7465
   41MOL    H9828978   5.693   2.518   2.584  0.6398 -0.1534 -1.3512
   41MOL    H9928979   5.710   2.598   2.866 -0.6309  0.5038  0.5741
   41MOL   H10028980   5.775   2.708   2.737  0.6345 -0.0074  3.2820
   41MOL   H10128981   5.485   2.610   2.760  1.1820 -0.0024 -0.1421
   41MOL   H10228982   5.542   2.720   2.639 -3.0711 -1.2754 -0.9745
   41MOL   H10328983   5.627   2.873   2.804  1.3439 -1.5153 -0.6255
   41MOL   H10428984   5.569   2.765   2.933  2.2070 -0.4050 -0.8909
   41MOL   H10528985   5.380   2.913   2.721 -2.0336  0.7936  0.2903
   41MOL   H10628986   5.340   2.807   2.849 -0.8508  0.8288 -0.3268
   41MOL   H10728987   5.384   3.080   2.886 -1.2201 -0.6114 -3.2618
   41MOL   H10828988   5.734   2.016   2.736 -0.4619 -1.7394 -0.9539
   41MOL   H10928989   5.709   1.826   2.583 -1.3214  0.8896  1.7699
   41MOL   C11028990   5.400   2.966   3.050 -0.7814 -0.7189 -0.7178
   41MOL   O11128991   5.401   2.854   3.096  0.1964 -0.0402  0.2782
   41MOL   C11228992   5.379   3.088   3.138  0.4539 -0.2237 -0.3270
   41MOL   C11328993   5.344   3.066   3.274  0.0099 -0.1359 -0.6250
   41MOL   C11428994   5.317   3.177   3.361 -0.2213 -0.1957  0.6674
   41MOL   C11528995   5.319   3.309   3.306 -0.5243 -0.1976  0.0792
   41MOL   C11628996   5.281   3.424   3.396 -0.0580  0.4160  0.0586
   41MOL   O11728997   5.311   3.427   3.517  0.0188  0.1826  0.1144
   41MOL   N11828998   5.210   3.519   3.333 -0.0643  0.1627 -0.1122
   41MOL   C11928999   5.124   3.616   3.402  0.1186 -0.3491 -0.0166
   41MOL   C12029000   5.203   3.733   3.472  0.6971  0.5120 -0.3236
   41MOL   C12129001   5.119   3.838   3.543 -0.9611 -0.1750  0.4473
   41MOL   C12229002   5.201   3.937   3.622  0.5111  0.8110  0.6632
   41MOL   C12329003   5.340   3.971   3.557 -0.5357  0.1851  0.0178
   41MOL   C12429004   5.397   4.099   3.620  0.2163  0.1153 -0.5830
   41MOL   N12529005   5.403   4.085   3.765 -0.4576 -0.2745  0.8841
   41MOL   C12629006   5.372   3.334   3.172  0.1046  0.5261 -0.1518
   41MOL   C12729007   5.396   3.221   3.088  0.2264  0.0823  0.5928
   41MOL   H12829008   5.338   2.970   3.322  0.7322 -0.1056 -0.4764
   41MOL   H12929009   5.305   3.167   3.467 -0.6697  0.5950  0.6966
   41MOL   H13029010   5.186   3.490   3.239 -2.3518  2.3883 -0.2694
   41MOL   H13129011   5.061   3.662   3.326 -1.3491 -3.9137 -1.0811
   41MOL   H13229012   5.047   3.568   3.463  0.4152 -0.6634  0.1135
   41MOL   H13329013   5.260   3.787   3.397  0.2496  0.1235 -0.9542
   41MOL   H13429014   5.280   3.685   3.533 -0.7998 -0.0944  1.1368
   41MOL   H13529015   5.066   3.897   3.467 -0.5871 -1.0310 -0.4936
   41MOL   H13629016   5.033   3.791   3.591 -0.9733 -1.4097 -0.7488
   41MOL   H13729017   5.209   3.904   3.726  1.2644 -1.2557 -0.0357
   41MOL   H13829018   5.146   4.031   3.628 -2.0885 -0.5311 -1.0408
   41MOL   H13929019   5.317   3.995   3.454  0.4064 -0.1598 -0.2774
   41MOL   H14029020   5.405   3.885   3.567 -0.1618  0.2315 -1.9456
   41MOL   H14129021   5.495   4.127   3.581  0.9745 -3.4250 -1.4067
   41MOL   H14229022   5.318   4.168   3.589 -2.2340 -2.7201 -0.8452
   41MOL   H14329023   5.322   4.117   3.816 -1.4019 -1.1918 -0.0126
   41MOL   H14429024   5.393   3.435   3.142  1.2661  0.5376  0.6598
   41MOL   H14529025   5.425   3.242   2.986 -0.7632  1.8223  0.6525
   41MOL   C14629026   5.484   4.003   3.832  0.5428 -0.1560 -0.3232
   41MOL   O14729027   5.575   3.944   3.778 -0.1837  0.6393 -0.2048
   41MOL   C14829028   5.465   3.991   3.978 -0.0225  0.1110  0.2289
   41MOL   C14929029   5.573   3.958   4.063  0.1400 -0.1565  0.1557
   41MOL   C15029030   5.547   3.948   4.204 -0.2822 -0.1976  0.7190
   41MOL   C15129031   5.420   3.963   4.255  0.4532 -0.0553 -0.2377
   41MOL   C15229032   5.394   3.934   4.401 -0.6081 -0.0037  0.8349
   41MOL   O15329033   5.488   3.898   4.470  0.5345 -0.5809 -0.2653
   41MOL   N15429034   5.267   3.949   4.440 -0.1140 -0.2757  0.3609
   41MOL   C15529035   5.214   3.927   4.573  1.0961  0.6717  0.0190
   41MOL   C15629036   5.155   3.787   4.596  0.3562  0.0532 -0.4188
   41MOL   C15729037   5.257   3.670   4.605  0.3549 -0.3663  0.0971
   41MOL   C15829038   5.199   3.543   4.672 -0.0190 -0.0104 -0.5523
   41MOL   C15929039   5.311   3.456   4.735 -0.3340  0.0192 -0.5269
   41MOL   C16029040   5.257   3.321   4.779  0.4828  0.1841 -0.0051
   41MOL   N16129041   5.368   3.240   4.830  0.6045 -1.1897  0.0469
   41MOL   C16229042   5.312   3.998   4.174  0.1076  0.3563  0.1525
   41MOL   C16329043   5.333   4.011   4.035 -0.3362  0.1359  0.1137
   41MOL   H16429044   5.672   3.957   4.019  1.8383  1.9841  3.7203
   41MOL   H16529045   5.626   3.919   4.272  0.1107  0.2778  0.4669
   41MOL   H16629046   5.200   3.987   4.375  1.3113 -0.5463 -1.3099
   41MOL   H16729047   5.283   3.939   4.656 -0.6577  2.1945  1.2763
   41MOL   H16829048   5.135   3.999   4.592 -0.6611 -0.6677 -1.9291
   41MOL   H16929049   5.071   3.766   4.530 -1.5001  0.5842  1.7505
   41MOL   H17029050   5.104   3.782   4.692 -1.4559  0.1926 -1.3519
   41MOL   H17129051   5.306   3.653   4.509 -2.2680  1.3350 -1.6482
   41MOL   H17229052   5.342   3.704   4.663  1.0142 -1.2881 -0.3130
   41MOL   H17329053   5.120   3.498   4.612  0.3587 -1.4792  0.0375
   41MOL   H17429054   5.139   3.585   4.754 -0.0784  1.7906 -1.4877
   41MOL   H17529055   5.346   3.505   4.825 -1.6735  1.7914 -0.9312
   41MOL   H17629056   5.400   3.444   4.672 -0.1900 -1.4361 -0.0657
   41MOL   H17729057   5.167   3.314   4.841  0.0150  1.2140 -0.5575
   41MOL   H17829058   5.224   3.266   4.691  1.8148 -0.1759 -0.2909
   41MOL   H17929059   5.432   3.198   4.765 -0.6909 -1.0712 -1.3092
   41MOL   H18029060   5.208   3.995   4.203  0.4002 -0.1014  1.2011
   41MOL   H18129061   5.244   4.022   3.973 -1.2542 -1.8290  1.0500
   41MOL   C18229062   5.393   3.226   4.961  0.7082 -0.3226 -0.6413
   41MOL   O18329063   5.331   3.278   5.060  0.5060 -0.1183  0.3126
   41MOL   C18429064   5.510   3.134   4.988 -0.0528 -0.4656  0.2639
   41MOL   C18529065   5.629   3.137   4.909  0.6532  0.5075  0.2090
   41MOL   C18629066   5.736   3.052   4.944 -0.3396  0.0199  0.0572
   41MOL   C18729067   5.735   2.977   5.060  0.5853  0.0249  0.8954
   41MOL   C18829068   5.859   2.887   5.079  0.4764  0.5732 -0.2211
   41MOL   O18929069   5.905   2.829   4.978 -0.3332 -0.0041  0.0291
   41MOL   N19029070   5.915   2.881   5.199  0.4928  0.6560 -0.6255
   41MOL   C19129071   6.033   2.805   5.248  0.2324 -0.3651  0.8601
   41MOL   C19229072   6.163   2.881   5.239 -0.1265  0.0232  0.3141
   41MOL   C19329073   6.276   2.803   5.312 -0.1158 -0.2468 -0.3683
   41MOL   C19429074   6.420   2.814   5.270  0.3844 -0.6965 -0.1817
   41MOL   C19529075   6.480   2.945   5.327 -0.5867 -1.0591 -0.4234
   41MOL   C19629076   6.611   2.993   5.250 -0.5913 -0.5188 -0.7775
   41MOL   N19729077   6.676   3.109   5.303 -0.5607 -0.3460 -0.3870
   41MOL   C19829078   5.622   2.974   5.140  0.6552  0.0983 -0.3957
   41MOL   C19929079   5.507   3.051   5.100 -0.2911 -0.3812  0.5772
   41MOL   H20029080   5.637   3.198   4.819 -1.3083 -0.0192 -0.3439
   41MOL   H20129081   5.826   3.048   4.885 -0.9173  1.9030 -1.0280
   41MOL   H20229082   5.870   2.921   5.280  1.9702 -1.0663  1.1093
   41MOL   H20329083   6.007   2.771   5.348 -3.4238  1.4309  0.6000
   41MOL   H20429084   6.044   2.713   5.191  0.8137  1.6630 -2.4532
   41MOL   H20529085   6.163   2.983   5.277  1.9414  0.8519 -1.7916
   41MOL   H20629086   6.193   2.886   5.134  1.4829  0.9868  0.7937
   41MOL   H20729087   6.276   2.825   5.419 -2.2122  0.7166 -0.5282
   41MOL   H20829088   6.247   2.700   5.295 -3.6112  0.8922 -1.7568
   41MOL   H20929089   6.427   2.795   5.163  2.8306  1.7518 -0.4983
   41MOL   H21029090   6.475   2.728   5.310  1.8717  0.2818 -0.0912
   41MOL   H21129091   6.497   2.921   5.432  1.0512 -0.1926 -0.4797
   41MOL   H21229092   6.410   3.028   5.329 -0.4369 -0.9485  0.3550
   41MOL   H21329093   6.688   2.916   5.246  0.4983  0.4029  1.4709
   41MOL   H21429094   6.595   3.011   5.144 -0.2080 -0.4323 -0.8217
   41MOL   H21529095   6.717   3.101   5.395  1.8799  0.5793 -1.3354
   41MOL   H21629096   5.621   2.913   5.228  1.6256  0.5107 -0.0969
   41MOL   H21729097   5.420   3.063   5.162 -0.4433  1.1196  0.0868
   41MOL   C21829098   6.660   3.228   5.255 -0.5545 -0.3008  0.2079
   41MOL   O21929099   6.592   3.254   5.158 -0.2252  0.2827  0.5253
   41MOL   C22029100   6.703   3.344   5.344  0.1346 -0.1367 -0.0384
   41MOL   C22129101   6.611   3.451   5.358 -0.1395  0.5967  0.2045
   41MOL   C22229102   6.643   3.571   5.424 -0.3247  0.1361 -0.2534
   41MOL   C22329103   6.764   3.580   5.492  0.1293  0.7275  0.1296
   41MOL   C22429104   6.791   3.702   5.575  0.6089  0.0918  0.1903
   41MOL   O22529105   6.841   3.685   5.685  0.1125  0.3644 -0.3186
   41MOL   N22629106   6.758   3.824   5.527 -0.5844 -0.1882  0.3613
   41MOL   C22729107   6.796   3.944   5.594  0.2481  0.8803 -0.1000
   41MOL   C22829108   6.712   3.976   5.717  0.0507 -0.3519 -0.3363
   41MOL   C22929109   6.747   4.117   5.771 -0.2485  0.3074 -0.2202
   41MOL   C23029110   6.641   4.177   5.858  0.3309  0.2768  0.2759
   41MOL   C23129111   6.674   4.322   5.896 -0.2911  0.0867  0.5461
   41MOL   C23229112   6.660   4.414   5.773  0.6716  0.3285 -0.0004
   41MOL   N23329113   6.683   4.561   5.806  0.4797 -0.3342  0.1182
   41MOL   C23429114   6.859   3.472   5.479 -0.2049 -0.1576 -0.1032
   41MOL   C23529115   6.828   3.355   5.410 -1.0293 -0.3548  0.2269
   41MOL   H23629116   6.510   3.435   5.323 -0.4564  0.6145  1.0869
   41MOL   H23729117   6.574   3.654   5.425  0.9730  1.2448  0.5750
   41MOL   H23829118   6.725   3.845   5.433  2.3649  1.4514 -0.3569
   41MOL   H23929119   6.904   3.952   5.607  0.4392 -1.9255  0.2973
   41MOL   H24029120   6.782   4.020   5.517  2.1146 -0.0852 -1.4423
   41MOL   H24129121   6.718   3.901   5.795 -0.4292  0.3778  0.4162
   41MOL   H24229122   6.605   3.975   5.694 -0.0794  0.1603  0.2291
   41MOL   H24329123   6.844   4.112   5.820 -0.3086  0.5334 -0.0777
   41MOL   H24429124   6.776   4.178   5.685  2.0210 -3.0600 -1.9696
   41MOL   H24529125   6.626   4.115   5.947 -2.3905 -1.4213 -1.2914
   41MOL   H24629126   6.546   4.170   5.806  0.6644 -1.5234 -0.1519
   41MOL   H24729127   6.770   4.348   5.940 -1.0454  1.7453  1.2297
   41MOL   H24829128   6.593   4.365   5.955  0.7852  4.7617 -1.2153
   41MOL   H24929129   6.742   4.396   5.704 -0.0510  0.3812 -0.8822
   41MOL   H25029130   6.574   4.402   5.707  0.2828  0.4861  0.4738
   41MOL   H25129131   6.758   4.612   5.763  1.0504 -2.1497 -1.0905
   41MOL   H25229132   6.955   3.492   5.525 -1.0994 -2.3457  2.8478
   41MOL   H25329133   6.899   3.275   5.398 -0.5240  0.1964 -0.5298
   41MOL   C25429134   6.590   4.629   5.870 -0.2181  0.5312 -0.3172
   41MOL   O25529135   6.477   4.595   5.890  0.0679  0.1558 -0.0833
   41MOL   C25629136   6.628   4.762   5.931  0.1017 -0.2435  0.1755
   41MOL   C25729137   6.532   4.861   5.951  0.5992  0.2868 -0.3551
   41MOL   C25829138   6.559   4.984   6.011  0.5057  0.5617  0.3802
   41MOL   C25929139   6.689   5.005   6.052 -0.5936 -0.4082 -0.3364
   41MOL   C26029140   6.736   5.135   6.112 -0.0389  0.5684 -1.0626
   41MOL   O26129141   6.849   5.188   6.099  0.4451  0.0078  0.0431
   41MOL   N26229142   6.643   5.199   6.189  0.1483  0.0313 -0.6426
   41MOL   C26329143   6.657   5.340   6.232  0.1676  0.5912  0.2580
   41MOL   C26429144   6.532   5.387   6.303 -0.4823  0.0191  0.3031
   41MOL   C26529145   6.530   5.536   6.334 -0.5298 -0.0096 -0.3798
   41MOL   C26629146   6.415   5.592   6.418 -0.0060 -0.4911  0.0746
   41MOL   C26729147   6.434   5.737   6.457  0.1325 -0.6981  0.1857
   41MOL   C26829148   6.437   5.837   6.346 -0.5854  0.7040  0.1353
   41MOL   N26929149   6.429   5.976   6.404 -0.3329  1.0524  0.0153
   41MOL   C27029150   6.792   4.907   6.043  0.0218  0.1076 -0.3369
   41MOL   C27129151   6.762   4.788   5.975 -0.1024 -0.2316 -0.4744
   41MOL   H27229152   6.434   4.847   5.908 -0.1195  0.7539  1.1232
   41MOL   H27329153   6.483   5.060   6.019 -0.0109 -0.1495  2.4746
   41MOL   H27429154   6.552   5.156   6.198  0.7757 -1.2967 -0.4861
   41MOL   H27529155   6.744   5.357   6.296 -0.1910  2.4162  0.2837
   41MOL   H27629156   6.671   5.395   6.139  0.0450  0.5670  0.2265
   41MOL   H27729157   6.531   5.334   6.398  1.5596  0.0676  0.3770
   41MOL   H27829158   6.440   5.365   6.249 -1.7311  0.5337  2.2121
   41MOL   H27929159   6.624   5.564   6.382 -1.1689  0.0202  0.8911
   41MOL   H28029160   6.532   5.576   6.232 -2.2547  1.1090  0.0027
   41MOL   H28129161   6.410   5.533   6.510 -1.4793  0.6839  0.7725
   41MOL   H28229162   6.321   5.574   6.366 -1.2305  0.1299  2.0458
   41MOL   H28329163   6.528   5.755   6.511  0.9208 -3.2537 -0.2864
   41MOL   H28429164   6.353   5.767   6.524  0.6050 -0.1534  0.5228
   41MOL   H28529165   6.535   5.831   6.298  0.2914  0.1590  1.9469
   41MOL   H28629166   6.355   5.811   6.279 -0.5249 -2.4786  1.2418
   41MOL   H28729167   6.339   6.021   6.415 -0.9970 -0.3214  0.3397
   41MOL   H28829168   6.886   4.923   6.093  0.8989  1.1034 -2.2500
   41MOL   H28929169   6.839   4.712   5.973  1.8497  1.7113 -1.1117
   41MOL   C29029170   6.527   6.047   6.456 -0.1041  0.3089 -0.2707
   41MOL   O29129171   6.648   6.014   6.437 -0.0930 -0.5184  0.1908
   41MOL   C29229172   6.480   6.174   6.527  0.1210 -0.0911  0.0400
   41MOL   C29329173   6.357   6.173   6.593  0.3754 -0.5189  0.1862
   41MOL   C29429174   6.308   6.288   6.655 -0.4163 -0.0736 -0.6432
   41MOL   C29529175   6.390   6.406   6.653  1.2350 -0.0090 -0.1994
   41MOL   C29629176   6.336   6.534   6.708  0.4924 -0.2323 -0.0083
   41MOL   O29729177   6.369   6.645   6.660 -0.0021 -0.0943  0.1643
   41MOL   N29829178   6.248   6.520   6.811 -0.4517  0.1538 -0.0964
   41MOL   C29929179   6.184   6.624   6.884  0.1858 -0.0018 -0.4527
   41MOL   C30029180   6.128   6.565   7.010 -0.0806  0.1823 -0.0215
   41MOL   C30129181   6.007   6.467   6.983 -0.0777 -0.3075  0.1760
   41MOL   C30229182   5.972   6.383   7.104 -0.4396  0.8422  0.0335
   41MOL   C30329183   5.850   6.286   7.104  0.0833  0.0527  0.2595
   41MOL   C30429184   5.817   6.237   7.246 -0.1202 -0.1743 -0.0820
   41MOL   N30529185   5.716   6.145   7.233 -0.8220  0.6200 -1.4106
   41MOL   C30629186   6.518   6.406   6.594 -0.4378 -0.1673  0.4134
   41MOL   C30729187   6.561   6.290   6.527  0.3995 -0.3271 -0.4664
   41MOL   H30829188   6.283   6.094   6.599 -0.4704  0.3015  0.6188
   41MOL   H30929189   6.205   6.294   6.684  0.2527  0.1823  1.8150
   41MOL   H31029190   6.230   6.425   6.841  0.3326  0.1341  0.3417
   41MOL   H31129191   6.248   6.711   6.898  0.5896 -0.2502 -0.7771
   41MOL   H31229192   6.105   6.666   6.821  0.9071  4.3694  1.3732
   41MOL   H31329193   6.100   6.635   7.088  0.4256 -2.1277  2.3187
   41MOL   H31429194   6.205   6.499   7.051 -0.5391 -0.5275 -0.2848
   41MOL   H31529195   5.913   6.517   6.960  0.7835  1.2898  0.0436
   41MOL   H31629196   6.022   6.406   6.894 -0.7940 -2.9192  1.7730
   41MOL   H31729197   5.960   6.449   7.190  0.8966  0.0901  0.8123
   41MOL   H31829198   6.061   6.327   7.133 -0.8425  0.1215 -0.0937
   41MOL   H31929199   5.872   6.198   7.043  0.5652 -0.0676  0.6008
   41MOL   H32029200   5.769   6.346   7.064 -0.3114  0.4987  1.6824
   41MOL   H32129201   5.903   6.186   7.290  1.3989  1.3250 -1.2372
   41MOL   H32229202   5.796   6.330   7.299 -1.3242 -0.5881  0.1745
   41MOL   H32329203   5.731   6.059   7.182 -0.1817 -0.8689  1.1623
   41MOL   H32429204   6.583   6.492   6.602  0.3296 -0.4431 -2.2362
   41MOL   H32529205   6.654   6.289   6.472  0.5028 -1.1170 -0.2712
   41MOL   C32629206   5.593   6.158   7.271  0.1403 -0.5612 -0.7120
   41MOL   O32729207   5.556   6.266   7.315  0.2424  0.0320 -0.0729
   41MOL   C32829208   5.501   6.044   7.253  0.1241 -0.3014 -0.4497
   41MOL   C32929209   5.371   6.046   7.307 -0.1217 -0.7126 -0.2120
   41MOL   C33029210   5.277   5.946   7.270 -0.3258 -0.2784 -0.6346
   41MOL   C33129211   5.317   5.837   7.200 -0.0543 -0.0163  0.3556
   41MOL   C33229212   5.219   5.731   7.169  0.5173 -0.6334 -0.1524
   41MOL   O33329213   5.100   5.749   7.169 -0.3202 -0.1182  0.1566
   41MOL   N33429214   5.269   5.615   7.153  0.1217  0.6537  0.3050
   41MOL   C33529215   5.206   5.491   7.136  0.2195  0.2927 -0.0186
   41MOL   C33629216   5.271   5.390   7.236 -0.3835  0.1398 -0.1267
   41MOL   C33729217   5.204   5.256   7.205 -0.4646 -0.6147 -0.3247
   41MOL   C33829218   5.278   5.181   7.090 -0.7185  0.0151 -0.0232
   41MOL   C33929219   5.414   5.105   7.126 -0.5899  0.1583 -0.1943
   41MOL   C34029220   5.499   5.068   7.006  0.0199  0.6233  0.6494
   41MOL   N34129221   5.432   4.969   6.920  0.1657  0.5393  0.8154
   41MOL   C34229222   5.452   5.827   7.153  0.8428 -0.0577  0.1819
   41MOL   C34329223   5.540   5.931   7.176 -0.3973 -0.3336 -0.4548
   41MOL   H34429224   5.342   6.136   7.358 -0.4201 -0.3266 -1.0461
   41MOL   H34529225   5.177   5.955   7.312 -0.5487 -0.6400 -1.0869
   41MOL   H34629226   5.370   5.606   7.152  0.1556  1.0380  0.2754
   41MOL   H34729227   5.100   5.510   7.151  0.3225  0.5227  0.4101
   41MOL   H34829228   5.225   5.463   7.032  0.7976 -1.0043  0.4342
   41MOL   H34929229   5.250   5.423   7.338  1.2075  1.2866 -0.1533
   41MOL   H35029230   5.380   5.382   7.230 -0.3551 -0.2072  0.7142
   41MOL   H35129231   5.236   5.191   7.287  2.6750 -0.1534 -1.0898
   41MOL   H35229232   5.096   5.262   7.200 -0.6011 -0.3019  2.2719
   41MOL   H35329233   5.302   5.261   7.020  0.4245  1.0574  1.5022
   41MOL   H35429234   5.196   5.123   7.049  0.8256 -2.0928 -0.2144
   41MOL   H35529235   5.387   5.019   7.186 -0.2692  0.4223  0.3249
   41MOL   H35629236   5.471   5.158   7.202  1.1974 -0.6989 -0.9165
   41MOL   H35729237   5.510   5.161   6.949  1.2383 -0.4064 -0.8080
   41MOL   H35829238   5.595   5.025   7.034 -0.2870 -0.5464 -0.0993
   41MOL   H35929239   5.449   4.870   6.929 -0.6726 -0.1758 -3.8100
   41MOL   H36029240   5.479   5.742   7.091 -0.9570 -0.4328 -0.1411
   41MOL   H36129241   5.641   5.934   7.137  0.3265  1.3937  1.4914
   41MOL   C36229242   5.363   4.993   6.806  0.4534  0.5416  0.6483
   41MOL   O36329243   5.331   5.105   6.773  0.7463  0.0851  0.2343
   41MOL   C36429244   5.307   4.871   6.732  0.5468  0.2110  0.0875
   41MOL   C36529245   5.331   4.743   6.788  0.2209 -0.0957  0.2950
   41MOL   C36629246   5.286   4.629   6.722 -0.1911 -0.0968 -0.1901
   41MOL   C36729247   5.201   4.646   6.614 -0.3231 -0.0791  0.0718
   41MOL   C36829248   5.132   4.521   6.553  0.2086 -0.6609  0.2431
   41MOL   O36929249   5.018   4.520   6.511 -0.2527  0.3631 -0.4678
   41MOL   N37029250   5.204   4.414   6.565  0.0999 -0.7211  0.3699
   41MOL   C37129251   5.167   4.270   6.551 -0.6434 -0.3400 -0.3381
   41MOL   C37229252   5.154   4.196   6.686 -0.3716 -0.1711  0.0093
   41MOL   C37329253   5.077   4.285   6.783 -0.0894  0.0610  0.3769
   41MOL   C37429254   5.043   4.211   6.908 -0.1590 -0.2029 -0.2492
   41MOL   C37529255   5.007   4.279   7.041  0.0625  0.2150 -0.3566
   41MOL   C37629256   5.009   4.190   7.172 -0.0147  1.2003 -0.5664
   41MOL   N37729257   4.933   4.067   7.160 -0.6185  0.2532 -0.2637
   41MOL   C37829258   5.174   4.770   6.553  0.2020 -0.2688  0.2249
   41MOL   C37929259   5.231   4.878   6.615  0.2161 -0.0552  0.2382
   41MOL   H38029260   5.394   4.721   6.873  3.0397 -0.0490 -1.6958
   41MOL   H38129261   5.309   4.531   6.761  2.3070  0.5215 -0.0270
   41MOL   H38229262   5.296   4.423   6.605  0.6137  0.5860 -1.0560
   41MOL   H38329263   5.066   4.267   6.510 -0.6366  0.0621 -0.3856
   41MOL   H38429264   5.222   4.221   6.471  0.4126 -0.1303  0.2427
   41MOL   H38529265   5.253   4.190   6.733  0.0660  0.7196 -0.7751
   41MOL   H38629266   5.102   4.101   6.670  0.8725 -0.7139 -0.9241
   41MOL   H38729267   5.143   4.369   6.803  0.3443  0.8570 -3.9591
   41MOL   H38829268   4.985   4.325   6.741  1.0709  0.7741 -1.5082
   41MOL   H38929269   5.126   4.148   6.940 -0.8611 -0.6105  0.8038
   41MOL   H39029270   4.959   4.144   6.889  0.0753 -1.0767  1.7358
   41MOL   H39129271   4.902   4.308   7.036  0.0358  0.1773 -0.0445
   41MOL   H39229272   5.069   4.368   7.047 -0.4157  0.6306 -1.4689
   41MOL   H39329273   5.108   4.147   7.184 -1.5097 -2.7184 -1.3126
   41MOL   H39429274   4.990   4.244   7.265  1.2549  0.6937  0.0064
   41MOL   H39529275   4.889   4.044   7.072 -1.9330 -0.2099  0.4932
   41MOL   H39629276   5.116   4.772   6.462 -1.3058 -0.3058  1.1549
   41MOL   H39729277   5.212   4.974   6.568  2.4167  0.3684  0.1333
   41MOL   C39829278   4.929   3.981   7.260  0.2137  0.1579  0.2442
   41MOL   O39929279   4.998   3.994   7.363  0.1526 -0.0997 -0.4673
   41MOL   C40029280   4.846   3.851   7.243  0.6718 -0.7050 -0.4620
   41MOL   C40129281   4.895   3.728   7.281  0.2036 -0.2038 -0.0355
   41MOL   C40229282   4.818   3.609   7.266 -0.1182  0.4075 -0.0042
   41MOL   C40329283   4.693   3.619   7.201 -1.0740  0.1894  0.6604
   41MOL   C40429284   4.596   3.503   7.199 -0.1644  0.2145 -0.1647
   41MOL   O40529285   4.636   3.389   7.169 -0.0060 -0.5667 -0.0696
   41MOL   N40629286   4.467   3.538   7.221 -0.0740 -0.3219 -0.0774
   41MOL   C40729287   4.352   3.452   7.226  0.2396  0.6073 -0.7907
   41MOL   C40829288   4.263   3.469   7.103 -0.2506  0.0407  0.2961
   41MOL   C40929289   4.138   3.371   7.102 -0.0999  0.1726  0.0786
   41MOL   C41029290   4.042   3.389   6.994  0.4333  0.2512 -0.3565
   41MOL   C41129291   3.948   3.510   7.007  0.1262  0.5165 -0.0866
   41MOL   C41229292   3.847   3.521   7.120 -0.2498  0.3888 -0.2750
   41MOL   N41329293   3.798   3.391   7.149 -0.6007  0.4795  0.2795
   41MOL   C41429294   4.647   3.743   7.151 -0.3601  0.1846  0.3689
   41MOL   C41529295   4.726   3.859   7.165 -0.4553 -0.8744  0.3278
   41MOL   H41629296   4.993   3.731   7.327 -0.2215 -1.4410  0.9631
   41MOL   H41729297   4.849   3.519   7.317  1.8170  0.4495 -1.0922
   41MOL   H41829298   4.440   3.631   7.251 -0.5258 -0.6160  0.4437
   41MOL   H41929299   4.372   3.345   7.238 -2.0317  0.3274  0.7937
   41MOL   H42029300   4.296   3.483   7.314  1.4572 -0.9627  0.5751
   41MOL   H42129301   4.306   3.456   7.004 -0.1352  2.2579  0.0250
   41MOL   H42229302   4.236   3.575   7.102 -1.1615 -0.1605  1.8965
   41MOL   H42329303   4.186   3.275   7.082  1.5131  1.0994 -0.6145
   41MOL   H42429304   4.084   3.373   7.197  0.5005 -0.6941  0.4454
   41MOL   H42529305   3.996   3.291   6.983  1.1113 -0.0795 -0.2469
   41MOL   H42629306   4.101   3.393   6.903  1.6890 -0.8752  0.3851
   41MOL   H42729307   3.892   3.505   6.913  1.2007 -1.6024 -0.6585
   41MOL   H42829308   3.995   3.606   6.988  1.1090 -0.1773 -1.2678
   41MOL   H42929309   3.876   3.568   7.214 -0.8154  1.2103 -0.5046
   41MOL   H43029310   3.761   3.575   7.081  1.4974  2.9061 -0.8231
   41MOL   H43129311   3.871   3.322   7.161 -0.7091  0.1896 -0.7277
   41MOL   H43229312   4.557   3.743   7.092  0.2706  0.1114 -0.5912
   41MOL   H43329313   4.692   3.947   7.112 -1.9602 -1.5891  0.0809
   41MOL   C43429314   3.672   3.353   7.157 -0.5332  0.1362  0.3772
   41MOL   O43529315   3.584   3.442   7.163  0.3321 -0.5428  0.2565
   41MOL   C43629316   3.638   3.210   7.157 -0.4408  0.7336  0.0227
   41MOL   C43729317   3.510   3.168   7.131  0.3047 -0.3689 -0.4667
   41MOL   C43829318   3.473   3.032   7.151 -0.3448 -0.1851 -0.8610
   41MOL   C43929319   3.566   2.939   7.190  0.0890  0.6983 -0.3670
   41MOL   C44029320   3.520   2.803   7.226 -0.2019 -0.5343 -0.0742
   41MOL   O44129321   3.587   2.706   7.195  0.1118  0.3215 -0.4517
   41MOL   N44229322   3.398   2.786   7.281  0.0754 -0.3307  0.2444
   41MOL   C44329323   3.345   2.652   7.321  0.3347 -0.0680  0.0573
   41MOL   C44429324   3.216   2.677   7.407  0.5760  0.5618 -0.7496
   41MOL   C44529325   3.165   2.541   7.460  0.1275  0.2424 -0.5874
   41MOL   C44629326   3.052   2.541   7.573  0.2754 -0.1169 -0.0328
   41MOL   C44729327   2.906   2.579   7.535  0.5957  0.0567 -0.6941
   41MOL   C44829328   2.826   2.457   7.495 -0.0078  0.1442 -0.0197
   41MOL   N44929329   2.694   2.495   7.455 -0.2959  0.3027 -0.0826
   41MOL   C45029330   3.701   2.978   7.218  0.1838  0.7506  0.0315
   41MOL   C45129331   3.737   3.114   7.192 -0.7066 -1.1799 -0.0543
   41MOL   H45229332   3.431   3.236   7.103 -0.8742 -0.7477  1.8181
   41MOL   H45329333   3.367   3.011   7.142 -0.2901 -0.0925 -1.8039
   41MOL   H45429334   3.347   2.872   7.295  1.3412  0.3147  1.0038
   41MOL   H45529335   3.330   2.577   7.244  0.0283  0.1366 -0.0854
   41MOL   H45629336   3.415   2.602   7.388 -4.1914 -0.8257  4.5004
   41MOL   H45729337   3.136   2.732   7.359  0.3863  0.7259 -0.2498
   41MOL   H45829338   3.240   2.750   7.484  1.7189  1.0688 -1.5723
   41MOL   H45929339   3.127   2.472   7.384  1.8834 -0.3759 -0.9183
   41MOL   H46029340   3.253   2.489   7.498  0.2217  0.3560 -0.6518
   41MOL   H46129341   3.090   2.618   7.640  1.5046 -1.0727  0.3857
   41MOL   H46229342   3.049   2.458   7.643 -1.5445 -1.2937 -1.4712
   41MOL   H46329343   2.914   2.657   7.459  0.9298  0.8734  0.1764
   41MOL   H46429344   2.863   2.629   7.621 -0.1287 -0.5670 -0.6872
   41MOL   H46529345   2.873   2.423   7.403 -2.0092  0.5679 -1.2130
   41MOL   H46629346   2.808   2.379   7.568  0.6245 -0.7980 -0.8626
   41MOL   H46729347   2.612   2.457   7.500 -0.5865  2.2063  1.0810
   41MOL   H46829348   3.773   2.908   7.258 -1.6773  0.1486  2.4234
   41MOL   H46929349   3.837   3.141   7.225 -1.0624  1.3305 -0.9296
   41MOL   C47029350   2.656   2.578   7.359 -0.1560 -0.5296  0.5321
   41MOL   O47129351   2.741   2.643   7.296  0.0719 -0.6613  0.1950
   41MOL   C47229352   2.505   2.580   7.321  0.0478 -0.2644  0.9233
   41MOL   C47329353   2.409   2.489   7.378 -0.2148  0.6579  0.3648
   41MOL   C47429354   2.275   2.500   7.329  0.5882  0.9608 -0.5471
   41MOL   C47529355   2.235   2.592   7.230  0.3380 -0.4287 -0.6924
   41MOL   C47629356   2.097   2.587   7.169 -0.1494 -0.5289  0.4224
   41MOL   O47729357   2.006   2.531   7.230  0.2341 -0.3367 -0.1411
   41MOL   N47829358   2.083   2.647   7.048 -0.3876 -0.4420  0.3363
   41MOL   C47929359   1.952   2.658   6.983  0.2497  0.3021  0.7186
   41MOL   C48029360   1.975   2.729   6.850 -0.0970 -0.6513  0.3919
   41MOL   C48129361   2.034   2.869   6.864 -0.5597 -0.1303 -0.8258
   41MOL   C48229362   2.103   2.926   6.738  0.6509  0.0838 -0.1551
   41MOL   C48329363   2.144   3.073   6.745  0.2537 -0.2259  0.3959
   41MOL   C48429364   2.247   3.123   6.849 -0.6605 -0.2520  0.1459
   41MOL   N48529365   2.253   3.266   6.830  0.0369  0.0727 -0.0380
   41MOL   C48629366   2.331   2.685   7.186 -0.3065  0.4145 -0.4925
   41MOL   C48729367   2.461   2.686   7.236  0.7623  0.0521 -0.4723
   41MOL   H48829368   2.442   2.411   7.445  1.6948  1.7743  0.7530
   41MOL   H48929369   2.209   2.423   7.364  0.1822  0.3436 -2.5792
   41MOL   H49029370   2.162   2.690   7.001 -1.9254  0.4914 -1.4360
   41MOL   H49129371   1.914   2.559   6.958 -2.6514  1.8618 -1.5274
   41MOL   H49229372   1.889   2.722   7.046  2.0329  2.0951  0.7253
   41MOL   H49329373   1.884   2.739   6.791  1.1742 -0.5956 -1.5919
   41MOL   H49429374   2.045   2.674   6.788  0.0628  0.0982 -0.1035
   41MOL   H49529375   1.968   2.945   6.907  0.3499 -0.1493  0.6657
   41MOL   H49629376   2.110   2.865   6.943  0.5151  2.2043 -1.7030
   41MOL   H49729377   2.021   2.908   6.669  1.0662  1.3205 -0.9851
   41MOL   H49829378   2.187   2.860   6.718  1.0292 -0.1667  2.0956
   41MOL   H49929379   2.057   3.134   6.772 -1.2191 -1.8732 -0.5114
   41MOL   H50029380   2.163   3.114   6.646 -0.6764 -1.5194 -0.3279
   41MOL   H50129381   2.219   3.102   6.953 -0.5164 -1.7060 -0.0905
   41MOL   H50229382   2.349   3.086   6.833 -0.2637  0.8306  0.1591
   41MOL   H50329383   2.182   3.297   6.766  0.2357 -1.6034 -1.1064
   41MOL   H50429384   2.310   2.758   7.109 -0.9146 -1.9597 -2.6423
   41MOL   H50529385   2.534   2.761   7.208 -0.0921  0.9089 -0.4062
   41MOL   C50629386   2.347   3.351   6.875  0.3113  0.8709  0.0990
   41MOL   O50729387   2.444   3.314   6.937 -0.0630 -0.2278 -0.4322
   41MOL   C50829388   2.337   3.487   6.818 -0.5050 -0.7241  0.4798
   41MOL   C50929389   2.309   3.510   6.684  0.2367  0.3329 -1.3759
   41MOL   C51029390   2.307   3.640   6.627  0.1388  0.2306 -0.2131
   41MOL   C51129391   2.339   3.752   6.706  0.5814 -0.3350  0.0377
   41MOL   C51229392   2.337   3.888   6.637 -0.7433  0.1465 -0.5481
   41MOL   O51329393   2.288   3.899   6.525  0.1587  0.2802 -0.5078
   41MOL   N51429394   2.398   3.993   6.704  0.2997 -0.1743 -0.0848
   41MOL   C51529395   2.398   4.130   6.656 -0.1858  0.2930 -0.6259
   41MOL   C51629396   2.523   4.158   6.576 -0.4367 -0.8476 -0.0906
   41MOL   C51729397   2.554   4.310   6.565 -0.0564  0.3012  0.4163
   41MOL   C51829398   2.453   4.410   6.501 -0.3670 -0.1480  0.3505
   41MOL   C51929399   2.420   4.378   6.352  0.4003  0.0300 -0.1993
   41MOL   C52029400   2.315   4.477   6.296 -0.3931 -0.5301 -0.9540
   41MOL   N52129401   2.281   4.445   6.163  0.0537 -0.0759  0.5107
   41MOL   C52229402   2.376   3.732   6.842 -0.6519  0.0242  0.0018
   41MOL   C52329403   2.373   3.602   6.899 -0.4451  0.3645  0.1107
   41MOL   H52429404   2.282   3.426   6.621 -0.1436 -0.1096 -0.6318
   41MOL   H52529405   2.284   3.651   6.522 -1.5936  2.3184  0.3674
   41MOL   H52629406   2.450   3.974   6.789  0.3228 -0.3699 -0.1411
   41MOL   H52729407   2.298   4.142   6.615 -0.8134  0.7833  1.0100
   41MOL   H52829408   2.412   4.183   6.751 -0.4587  0.1829 -0.5259
   41MOL   H52929409   2.503   4.122   6.475  2.2867 -1.1657 -0.5564
   41MOL   H53029410   2.615   4.112   6.613  0.1332 -1.0945 -1.7750
   41MOL   H53129411   2.571   4.358   6.662  0.7209 -0.4602  0.6590
   41MOL   H53229412   2.655   4.320   6.525  0.5304  0.0230  1.7965
   41MOL   H53329413   2.516   4.499   6.502  0.3109 -0.6216  0.3988
   41MOL   H53429414   2.365   4.426   6.563 -0.8654 -1.2424 -0.0571
   41MOL   H53529415   2.387   4.275   6.365  1.0019 -0.1206  0.1601
   41MOL   H53629416   2.506   4.370   6.286  0.8531  2.2290  0.0615
   41MOL   H53729417   2.224   4.468   6.355 -0.7568 -0.2393 -1.4699
   41MOL   H53829418   2.358   4.576   6.312  0.7705 -1.0549 -0.7631
   41MOL   H53929419   2.350   4.398   6.106 -0.4752 -0.1063 -0.0940
   41MOL   H54029420   2.401   3.812   6.910  1.6168 -1.1675  0.6313
   41MOL   H54129421   2.401   3.589   7.002  2.4319 -1.1467 -0.8025
   41MOL   C54229422   2.180   4.490   6.094  0.9532 -0.6172  1.1494
   41MOL   O54329423   2.085   4.556   6.145  0.1518  0.0276  0.2030
   41MOL   C54429424   2.181   4.482   5.940 -0.0850 -0.3785  0.1528
   41MOL   C54529425   2.131   4.594   5.872 -0.1536 -0.5228  0.3974
   41MOL   C54629426   2.130   4.587   5.735 -0.2975  0.2750 -0.2320
   41MOL   C54729427   2.179   4.478   5.661  0.1913  0.6263  0.0154
   41MOL   C54829428   2.205   4.503   5.514  0.0762  0.2333 -0.4353
   41MOL   O54929429   2.289   4.437   5.458 -0.2962 -0.0869  0.0869
   41MOL   N55029430   2.124   4.587   5.461 -0.4000 -0.0884  0.8695
   41MOL   C55129431   2.142   4.635   5.325  0.8741  0.4821 -0.2164
   41MOL   C55229432   2.060   4.761   5.291  0.1790 -0.5755 -0.8063
   41MOL   C55329433   2.108   4.822   5.154 -0.3240 -0.1988 -0.2970
   41MOL   C55429434   2.015   4.927   5.099 -0.4876 -0.2819  0.5884
   41MOL   C55529435   2.029   4.970   4.950 -0.0303 -0.2937 -0.1355
   41MOL   C55629436   2.158   5.047   4.925 -0.2978  0.2845  0.1859
   41MOL   N55729437   2.190   5.081   4.786 -0.4301 -0.0374 -0.3327
   41MOL   C55829438   2.223   4.362   5.735 -0.2366 -0.6724  0.2053
   41MOL   C55929439   2.225   4.362   5.876 -0.2836  0.5290 -0.2165
   41MOL   H56029440   2.111   4.686   5.924 -3.5087  0.2737 -2.1338
   41MOL   H56129441   2.103   4.678   5.684 -0.9741  0.7741  0.9941
   41MOL   H56229442   2.035   4.606   5.504 -0.6040 -0.1309  0.4673
   41MOL   H56329443   2.247   4.656   5.305  1.6436 -2.1397  0.8169
   41MOL   H56429444   2.109   4.557   5.256 -1.1304  0.3692  0.8256
   41MOL   H56529445   2.067   4.832   5.373 -0.4668 -2.0429  0.5411
   41MOL   H56629446   1.956   4.731   5.276 -0.3357  0.8656 -0.2701
   41MOL   H56729447   2.205   4.872   5.157 -0.2564 -0.3974  0.9224
   41MOL   H56829448   2.105   4.736   5.086 -2.1196 -0.3063 -0.0961
   41MOL   H56929449   2.009   5.013   5.166 -2.0548  0.7618 -0.8636
   41MOL   H57029450   1.912   4.893   5.111 -0.1068 -0.9835  2.1191
   41MOL   H57129451   1.945   5.035   4.924 -0.4595 -0.2543  1.3024
   41MOL   H57229452   2.008   4.884   4.886  2.1800 -0.1315 -1.1002
   41MOL   H57329453   2.164   5.143   4.975 -1.5090  0.4823 -0.0236
   41MOL   H57429454   2.240   4.985   4.960 -0.4638  0.6386  1.2084
   41MOL   H57529455   2.217   5.177   4.772 -1.2306  0.1284 -0.7387
   41MOL   H57629456   2.267   4.280   5.680 -0.1212  0.4986 -1.5094
   41MOL   H57729457   2.265   4.278   5.931  1.8207 -0.1245 -2.6322
   41MOL   C57829458   2.204   5.005   4.683 -0.0290 -0.4850  0.3836
   41MOL   O57929459   2.193   4.884   4.681  0.0420  0.3667  0.1987
   41MOL   C58029460   2.240   5.082   4.561 -0.1406  0.6292 -0.1728
   41MOL   C58129461   2.326   5.193   4.567  1.3101  0.2525 -0.3121
   41MOL   C58229462   2.340   5.277   4.455  0.3640 -0.2080  0.2555
   41MOL   C58329463   2.269   5.253   4.337  0.1069  0.0758 -0.0770
   41MOL   C58429464   2.264   5.348   4.221 -0.7680  0.7284  0.1717
   41MOL   O58529465   2.264   5.473   4.237  0.2198  0.3296 -0.4770
   41MOL   N58629466   2.258   5.290   4.102  0.3815 -0.1048  0.4466
   41MOL   C58729467   2.256   5.357   3.967 -0.1493  0.1749 -0.0969
   41MOL   C58829468   2.121   5.365   3.900  0.1857  0.2828 -0.0945
   41MOL   C58929469   2.077   5.229   3.845 -0.3275  0.3377  0.1745
   41MOL   C59029470   1.971   5.175   3.941  0.5324 -0.1086  0.3633
   41MOL   C59129471   1.901   5.052   3.880 -0.4641 -0.3143 -0.0295
   41MOL   C59229472   1.784   4.998   3.966  0.5056 -0.3395 -0.0692
   41MOL   N59329473   1.821   4.939   4.100 -0.6664  0.5258  1.0440
   41MOL   C59429474   2.194   5.131   4.330 -0.4515  0.0784  0.1895
   41MOL   C59529475   2.184   5.043   4.439  0.2001  0.3282  0.0740
   41MOL   H59629476   2.362   5.232   4.661  2.9236 -1.1749 -0.3251
   41MOL   H59729477   2.389   5.373   4.468  2.2160 -1.0203 -0.5253
   41MOL   H59829478   2.272   5.190   4.104  1.1789  0.0081  1.3901
   41MOL   H59929479   2.287   5.461   3.981  0.3219 -0.2733  2.5467
   41MOL   H60029480   2.340   5.322   3.907  2.4964  0.9658  2.9702
   41MOL   H60129481   2.139   5.425   3.811  1.3849 -0.1950 -0.1770
   41MOL   H60229482   2.058   5.429   3.962  1.4600  1.6065 -0.1332
   41MOL   H60329483   2.051   5.234   3.740  0.9832  0.4737 -0.1444
   41MOL   H60429484   2.164   5.163   3.843  0.9950  2.1003 -3.2953
   41MOL   H60529485   1.906   5.262   3.952  2.7159  1.6063  0.1917
   41MOL   H60629486   2.010   5.144   4.039 -1.2739 -0.7657  0.8895
   41MOL   H60729487   1.968   4.967   3.868 -0.5651 -0.1584 -1.7375
   41MOL   H60829488   1.872   5.077   3.778 -0.3440 -3.1321 -0.8056
   41MOL   H60929489   1.712   5.076   3.988 -0.2787 -1.6201  2.0886
   41MOL   H61029490   1.741   4.916   3.908  2.8828 -1.3353 -0.4647
   41MOL   H61129491   1.911   4.894   4.108  0.5849  2.7136 -0.2656
   41MOL   H61229492   2.140   5.105   4.241  0.4499 -0.8669 -0.0978
   41MOL   H61329493   2.129   4.951   4.439 -0.6367  0.7910  2.5471
   41MOL   C61429494   1.736   4.920   4.196 -0.3146 -0.7805 -0.1884
   41MOL   O61529495   1.629   4.981   4.204  0.2165  0.2159  0.2066
   41MOL   C61629496   1.776   4.838   4.320 -0.0556 -0.1968 -0.1052
   41MOL   C61729497   1.678   4.776   4.406 -0.3939  0.4361  0.3527
   41MOL   C61829498   1.717   4.690   4.507  0.6607 -0.2140  1.0331
   41MOL   C61929499   1.853   4.669   4.539 -0.0654 -0.1786  0.0884
   41MOL   C62029500   1.891   4.586   4.648 -0.8413 -0.1715 -0.6525
   41MOL   O62129501   1.819   4.507   4.704 -0.2449  0.1352 -0.0078
   41MOL   N62229502   2.012   4.629   4.696  0.2851  0.7468 -0.6489
   41MOL   C62329503   2.055   4.582   4.827  0.5473 -0.0688  0.3615
   41MOL   C62429504   2.142   4.460   4.831 -0.0409 -0.3466 -0.5503
   41MOL   C62529505   2.177   4.418   4.983 -0.1819  0.5428 -0.3368
   41MOL   C62629506   2.302   4.342   5.010 -0.3035 -0.1752  0.5308
   41MOL   C62729507   2.325   4.330   5.157  0.2614  0.6137  0.0546
   41MOL   C62829508   2.439   4.235   5.194 -0.2083  0.1384  0.3453
   41MOL   N62929509   2.443   4.220   5.339 -0.1618 -0.4741  0.0461
   41MOL   C63029510   1.952   4.723   4.446  0.6554 -0.0119 -0.7653
   41MOL   C63129511   1.910   4.808   4.343  0.1179 -0.4346 -0.5173
   41MOL   H63229512   1.574   4.800   4.387 -0.3414 -0.7791 -1.6840
   41MOL   H63329513   1.638   4.644   4.565 -1.9868  1.3929 -1.1890
   41MOL   H63429514   2.061   4.699   4.643 -0.1147  2.1348  0.7797
   41MOL   H63529515   2.113   4.659   4.879 -1.7508  0.9143  1.5349
   41MOL   H63629516   1.974   4.554   4.895  2.5157  0.4010  2.9849
   41MOL   H63729517   2.237   4.493   4.789 -0.0897  1.2659  0.5808
   41MOL   H63829518   2.112   4.379   4.764 -0.4580  0.2130 -1.0536
   41MOL   H63929519   2.188   4.515   5.031  2.2940 -0.4063  1.1011
   41MOL   H64029520   2.092   4.369   5.031 -0.4876 -0.7081 -2.1020
   41MOL   H64129521   2.388   4.387   4.959 -1.0618  0.8810  0.1670
   41MOL   H64229522   2.299   4.239   4.975  0.8878  0.6745 -2.2849
   41MOL   H64329523   2.237   4.285   5.202  0.1108 -1.6567 -2.3858
   41MOL   H64429524   2.336   4.424   5.212 -1.5767 -1.2878  3.8636
   41MOL   H64529525   2.431   4.142   5.138  1.0941  1.1202 -1.5078
   41MOL   H64629526   2.531   4.265   5.145 -0.3636 -0.7582 -0.4888
   41MOL   H64729527   2.388   4.277   5.401  0.1792  0.4465 -0.4915
   41MOL   H64829528   2.058   4.704   4.453  0.4538 -0.7679  0.2722
   41MOL   H64929529   1.990   4.841   4.278  0.0634  0.2357 -0.2472
   41MOL   C65029530   2.533   4.151   5.401 -0.2952  0.0854 -0.3197
   41MOL   O65129531   2.616   4.079   5.351  0.4791  0.3487 -0.7067
   41MOL   C65229532   2.540   4.164   5.550  0.2121  0.2383 -0.0019
   41MOL   C65329533   2.505   4.053   5.627 -0.8511 -0.1008 -0.5626
   41MOL   C65429534   2.510   4.054   5.766 -0.4295 -0.1309  0.5282
   41MOL   C65529535   2.539   4.179   5.830 -0.7562  0.3183  0.6460
   41MOL   C65629536   2.550   4.195   5.984  0.8696  0.4038  0.3302
   41MOL   O65729537   2.577   4.303   6.041 -0.3049  0.2864  0.2637
   41MOL   N65829538   2.539   4.072   6.044  0.4983  0.6923 -0.7000
   41MOL   C65929539   2.538   4.039   6.181  0.1886 -0.7264  0.1407
   41MOL   C66029540   2.585   3.892   6.191  0.0650 -0.5004 -0.1045
   41MOL   C66129541   2.600   3.834   6.329 -1.1380 -0.1964  0.1462
   41MOL   C66229542   2.710   3.891   6.418 -0.8566 -0.1659 -0.1095
   41MOL   C66329543   2.693   3.846   6.568  0.3499  0.0558  0.1203
   41MOL   C66429544   2.803   3.882   6.669  0.6884  0.1941  0.2058
   41MOL   N66529545   2.762   3.851   6.804  0.6160  0.2262  0.1328
   41MOL   C66629546   2.578   4.286   5.756 -0.2038  0.1512 -0.3815
   41MOL   C66729547   2.574   4.283   5.614 -0.2893  0.4737  0.2753
   41MOL   H66829548   2.473   3.963   5.577  0.2375 -0.3815 -0.7732
   41MOL   H66929549   2.471   3.969   5.819 -0.3259  0.2996  1.3027
   41MOL   H67029550   2.493   4.000   5.990  1.8276  0.1808 -1.1657
   41MOL   H67129551   2.608   4.108   6.228  0.5416 -1.7367  1.1043
   41MOL   H67229552   2.433   4.046   6.210 -0.1859  1.6842 -1.6075
   41MOL   H67329553   2.673   3.887   6.127  0.5107  1.0539  0.3753
   41MOL   H67429554   2.514   3.829   6.136 -1.2970  0.0885  0.9593
   41MOL   H67529555   2.498   3.835   6.368 -0.6880 -1.5879  1.4402
   41MOL   H67629556   2.623   3.727   6.320 -1.5787 -0.3995  1.2689
   41MOL   H67729557   2.703   3.999   6.407 -0.3378 -0.3270 -2.2181
   41MOL   H67829558   2.808   3.865   6.379  1.1337  0.1445  4.4299
   41MOL   H67929559   2.692   3.737   6.578  1.1147  0.1869  1.6789
   41MOL   H68029560   2.598   3.881   6.608  0.7846 -1.2580  2.4036
   41MOL   H68129561   2.894   3.831   6.637 -0.2673 -0.6152 -1.2480
   41MOL   H68229562   2.818   3.990   6.669  1.3708  0.1057  0.9665
   41MOL   H68329563   2.806   3.770   6.844  1.2805  0.1315 -0.7647
   41MOL   H68429564   2.608   4.374   5.811 -0.4228  0.0363 -0.0762
   41MOL   H68529565   2.589   4.374   5.557 -3.2618  2.0360  1.8976
   41MOL   C68629566   2.692   3.926   6.890 -0.8019  0.8837  0.4105
   41MOL   O68729567   2.664   4.043   6.862  0.5544  0.1561  0.1517
   41MOL   C68829568   2.655   3.865   7.018 -0.5579  0.1195  0.0493
   41MOL   C68929569   2.683   3.731   7.052  0.2183  0.8927  0.7973
   41MOL   C69029570   2.649   3.681   7.176  0.0442 -0.4745 -0.3369
   41MOL   C69129571   2.593   3.765   7.278  0.5544 -0.6699 -0.5371
   41MOL   C69229572   2.549   3.708   7.410 -0.5795  1.2381  0.1017
   41MOL   O69329573   2.619   3.620   7.471 -0.0042  0.1721  0.3781
   41MOL   N69429574   2.440   3.759   7.466 -0.5500 -0.0386  0.3421
   41MOL   C69529575   2.394   3.717   7.593  0.7721 -0.1439 -0.3169
   41MOL   C69629576   2.299   3.817   7.661 -0.3733  0.8960 -0.3565
   41MOL   C69729577   2.289   3.782   7.814 -0.1644 -0.7861 -0.2494
   41MOL   C69829578   2.190   3.876   7.876 -0.4809  0.3699 -0.1490
   41MOL   C69929579   2.197   3.868   0.144 -0.4812  0.5812 -0.2954
   41MOL   C70029580   2.069   3.830   0.209 -0.0096 -0.0376 -0.5598
   41MOL   N70129581   1.994   3.930   0.278  0.4947 -0.0679 -0.1328
   41MOL   C70229582   2.564   3.901   7.252  0.3337  0.1854 -0.5234
   41MOL   C70329583   2.592   3.944   7.117 -0.7541  0.0428  0.3195
   41MOL   H70429584   2.727   3.662   6.981  1.5850  1.6344  0.9197
   41MOL   H70529585   2.671   3.579   7.205  1.7651  0.2379  0.9866
   41MOL   H70629586   2.389   3.830   7.417 -0.3253 -0.3624 -0.3651
   41MOL   H70729587   2.342   3.622   7.578  2.6453 -1.2258 -0.0978
   41MOL   H70829588   2.485   3.695   7.649  0.9658  0.3566 -0.4292
   41MOL   H70929589   2.204   3.823   7.608 -1.0543  1.4109  0.9066
   41MOL   H71029590   2.340   3.918   7.655  0.9284  0.5788  2.4545
   41MOL   H71129591   2.246   3.682   7.820 -1.5920 -0.2214 -0.6856
   41MOL   H71229592   2.386   3.784   7.863  0.4024 -0.9970 -1.3474
   41MOL   H71329593   2.085   3.861   7.849 -0.7095  0.0964  0.8695
   41MOL   H71429594   2.217   3.975   7.841  1.4713 -0.2636 -0.5166
   41MOL   H71529595   2.226   3.963   0.189  0.0696  0.3710 -0.2016
   41MOL   H71629596   2.276   3.797   0.166 -2.2826 -0.9126  1.4938
   41MOL   H71729597   1.997   3.797   0.134  0.6687  0.0459 -1.2584
   41MOL   H71829598   2.081   3.740   0.270 -0.8654  0.0054 -0.3171
   41MOL   H71929599   1.904   3.902   0.314 -0.0394  3.0608  1.1740
   41MOL   H72029600   2.510   3.967   7.318 -0.2478  0.8367 -1.6381
   41MOL   H72129601   2.569   4.046   7.090  2.1952  0.7130  0.1872
   41MOL   H72229602   1.976   4.015   0.227 -0.1231  1.8372  3.0847
   42MOL     C129603   1.659   4.184   6.348  0.9867 -0.0635  0.1078
   42MOL     O229604   1.705   4.278   6.408 -0.5205 -0.4407 -0.0727
   42MOL     C329605   1.695   4.154   6.213 -1.2445 -0.6128  0.7741
   42MOL     C429606   1.765   4.244   6.129 -0.2557  0.1071 -0.1238
   42MOL     C529607   1.796   4.214   5.997 -0.1334 -0.0065 -0.4044
   42MOL     C629608   1.753   4.094   5.943 -0.7041 -0.0427  0.1407
   42MOL     C729609   1.789   4.051   5.804 -0.5185  0.8370  0.4186
   42MOL     O829610   1.805   3.929   5.776  0.1264 -0.2380 -0.6423
   42MOL     N929611   1.798   4.147   5.714  0.1124 -0.2342 -0.5540
   42MOL    C1029612   1.833   4.129   5.574 -0.2607 -0.3683 -0.4840
   42MOL    C1129613   1.811   4.258   5.499  0.1257 -0.5973  0.7133
   42MOL    C1229614   1.835   4.254   5.343  0.2796  0.3607  0.0424
   42MOL    C1329615   1.771   4.380   5.282 -0.2973  0.2712  0.8063
   42MOL    C1429616   1.741   4.374   5.126  0.1004 -0.5092  0.5249
   42MOL    C1529617   1.723   4.517   5.059 -0.0619 -0.2761 -0.4691
   42MOL    N1629618   1.665   4.510   4.923 -0.5356  0.6440 -0.1194
   42MOL    C1729619   1.682   4.002   6.028  0.8425  0.1858 -0.1621
   42MOL    C1829620   1.649   4.033   6.161  0.3119 -0.2570 -0.1153
   42MOL    H1929621   1.779   4.339   6.177 -0.3104  0.1311 -0.1550
   42MOL    H2029622   1.867   4.283   5.953 -0.2567  0.0748 -0.4736
   42MOL    H2129623   1.786   4.238   5.756  0.8002 -1.0729  1.5581
   42MOL    H2229624   1.938   4.099   5.571  0.3375  1.4244  1.4071
   42MOL    H2329625   1.768   4.055   5.527  0.7177 -1.4566 -0.1630
   42MOL    H2429626   1.886   4.328   5.533 -0.1125  0.7429 -1.4277
   42MOL    H2529627   1.709   4.296   5.511 -0.1732 -1.0141 -0.3972
   42MOL    H2629628   1.942   4.236   5.330  0.3250 -0.2508  1.2244
   42MOL    H2729629   1.787   4.165   5.303 -1.1202  1.9383 -1.9144
   42MOL    H2829630   1.829   4.467   5.312 -3.3764  1.6460  2.8608
   42MOL    H2929631   1.678   4.411   5.329 -0.4432 -2.1031  2.1873
   42MOL    H3029632   1.653   4.312   5.109  1.0396 -0.9459 -3.3468
   42MOL    H3129633   1.821   4.313   5.082 -0.3783 -1.3307  0.7927
   42MOL    H3229634   1.658   4.575   5.125  1.4218  1.0915 -0.1939
   42MOL    H3329635   1.818   4.569   5.050  0.6057 -1.4247 -0.0795
   42MOL    H3429636   1.732   4.484   4.852  1.3090 -0.0248  1.8049
   42MOL    H3529637   1.652   3.908   5.985 -0.7891  0.4504  0.3709
   42MOL    H3629638   1.601   3.954   6.216 -1.0550  1.1460  0.7316
   42MOL    H3729639   1.580   4.123   6.391  1.0756 -2.0275 -2.4259
   42MOL    C3829640   1.537   4.532   4.894  0.2409  0.2158 -0.9869
   42MOL    O3929641   1.451   4.579   4.976 -0.0067  0.0318 -0.1266
   42MOL    C4029642   1.485   4.502   4.760 -0.2820 -0.2792 -0.4252
   42MOL    C4129643   1.523   4.376   4.699 -0.2370 -0.1557 -0.0792
   42MOL    C4229644   1.486   4.351   4.569 -0.1732 -0.2776  0.3705
   42MOL    C4329645   1.401   4.439   4.501 -0.0697  0.0495 -0.0390
   42MOL    C4429646   1.363   4.414   4.355 -0.3808  0.5939  0.2293
   42MOL    O4529647   1.325   4.510   4.286  0.2785 -0.4966  0.3074
   42MOL    N4629648   1.385   4.293   4.312  0.0793 -0.3677 -0.2553
   42MOL    C4729649   1.377   4.255   4.169  0.0565 -0.5413  0.5881
   42MOL    C4829650   1.374   4.108   4.153  0.6270  0.2859 -0.2157
   42MOL    C4929651   1.389   4.062   4.014 -0.1948  1.0303  0.8191
   42MOL    C5029652   1.527   4.087   3.950  1.0064  0.1695  0.2888
   42MOL    C5129653   1.560   4.017   3.820 -0.5190  0.1731 -0.0916
   42MOL    C5229654   1.704   4.035   3.774  0.0956  0.2741  0.2698
   42MOL    N5329655   1.736   3.957   3.657  0.3095  0.1751 -0.3755
   42MOL    C5429656   1.349   4.552   4.569 -0.3714  0.0774  0.0429
   42MOL    C5529657   1.398   4.593   4.693 -0.0198  0.4134  0.0041
   42MOL    H5629658   1.588   4.303   4.746 -0.6530 -0.8146 -0.5170
   42MOL    H5729659   1.521   4.260   4.522 -0.0242 -0.9330  1.7306
   42MOL    H5829660   1.418   4.234   4.387 -2.3083 -3.0357 -1.2276
   42MOL    H5929661   1.285   4.295   4.126  1.5938  0.3695 -1.9843
   42MOL    H6029662   1.456   4.297   4.106  0.6051 -1.1692  0.8596
   42MOL    H6129663   1.286   4.074   4.207  0.9986  1.6912  1.3468
   42MOL    H6229664   1.457   4.053   4.198  0.4433  1.5821  1.8097
   42MOL    H6329665   1.361   3.957   4.021  0.4992  0.8709  1.2213
   42MOL    H6429666   1.315   4.105   3.946 -0.1257 -0.1189 -0.0122
   42MOL    H6529667   1.606   4.059   4.020  1.7695  1.7923  0.0930
   42MOL    H6629668   1.554   4.192   3.945  0.3366  0.2781 -1.2018
   42MOL    H6729669   1.489   4.045   3.742 -2.9261 -1.4334  1.4557
   42MOL    H6829670   1.550   3.912   3.848  0.8932  0.5005  1.7853
   42MOL    H6929671   1.717   4.142   3.757 -0.8967  0.6183  1.6110
   42MOL    H7029672   1.765   4.014   3.862 -0.0572 -1.7857 -0.0949
   42MOL    H7129673   1.681   3.873   3.653  2.6194 -1.4491  1.1120
   42MOL    H7229674   1.286   4.621   4.515  1.6943  0.2511 -2.2255
   42MOL    H7329675   1.371   4.690   4.732 -0.8161  0.0020  0.4782
   42MOL    C7429676   1.842   3.973   3.573  0.8226  0.5699 -0.5816
   42MOL    O7529677   1.913   4.074   3.575 -0.3342  0.4779 -0.2932
   42MOL    C7629678   1.863   3.872   3.461 -0.7923  0.5034  0.5070
   42MOL    C7729679   1.864   3.922   3.327 -0.1610  0.0076  0.1898
   42MOL    C7829680   1.895   3.838   3.217  0.8751 -1.0216  0.1407
   42MOL    C7929681   1.923   3.700   3.244  0.1155 -0.3417 -0.1661
   42MOL    C8029682   1.936   3.603   3.130 -0.3903 -0.2029  0.4204
   42MOL    O8129683   1.992   3.638   3.027 -0.1514 -0.5846  0.4381
   42MOL    N8229684   1.866   3.495   3.130  0.4830  0.1396  0.3029
   42MOL    C8329685   1.848   3.404   3.020 -0.2705  0.8312  0.2278
   42MOL    C8429686   1.965   3.299   3.010 -0.2129  0.6508 -0.3015
   42MOL    C8529687   1.939   3.193   2.897  0.6563 -0.4238 -0.7628
   42MOL    C8629688   2.056   3.128   2.825 -0.5109 -0.3534 -0.1736
   42MOL    C8729689   2.026   3.053   2.689 -0.2816 -0.3340 -0.2044
   42MOL    C8829690   1.920   2.937   2.718  0.1897 -0.2347  0.6021
   42MOL    N8929691   1.897   2.872   2.586 -0.0823 -0.0913  0.0357
   42MOL    C9029692   1.913   3.648   3.375 -0.5580 -0.2310 -0.4383
   42MOL    C9129693   1.883   3.732   3.484 -0.2731  0.2809  0.5886
   42MOL    H9229694   1.841   4.025   3.303  0.7074  0.6915  2.2712
   42MOL    H9329695   1.889   3.873   3.115  0.1244  0.0663  0.5446
   42MOL    H9429696   1.825   3.464   3.217  0.5195 -0.2838  0.1722
   42MOL    H9529697   1.749   3.358   3.026  0.6484 -1.1537  0.6133
   42MOL    H9629698   1.841   3.447   2.920 -2.0302 -0.7642 -0.3662
   42MOL    H9729699   1.983   3.246   3.104 -4.6662 -0.8366 -0.1883
   42MOL    H9829700   2.064   3.342   2.997  0.3195 -0.7956 -1.1538
   42MOL    H9929701   1.885   3.109   2.941  1.4833  0.6114  2.3371
   42MOL   H10029702   1.885   3.249   2.820  2.7209  3.0587  0.2292
   42MOL   H10129703   2.114   3.057   2.884  0.4033  0.1476 -0.4681
   42MOL   H10229704   2.119   3.211   2.794 -0.6347 -0.1324  0.1676
   42MOL   H10329705   2.117   3.006   2.651  0.8257  2.0089 -0.5944
   42MOL   H10429706   1.991   3.123   2.613 -0.3418  0.5313  0.6148
   42MOL   H10529707   1.955   2.865   2.791  1.0176  0.1899  0.6399
   42MOL   H10629708   1.826   2.979   2.753  0.3246  0.8551 -0.2974
   42MOL   H10729709   1.851   2.937   2.524  0.7147 -0.2210 -0.6900
   42MOL   H10829710   1.917   3.540   3.386  0.2701  0.0941  3.0501
   42MOL   H10929711   1.874   3.698   3.586 -0.8009 -0.8210  0.1794
   42MOL   C11029712   1.922   2.750   2.543 -0.7436 -0.8913  0.1918
   42MOL   O11129713   1.993   2.678   2.607  0.1999  0.0349  0.0278
   42MOL   C11229714   1.877   2.709   2.402 -0.8122  0.9237 -0.6396
   42MOL   C11329715   1.826   2.803   2.313 -0.2894  0.8474 -0.2408
   42MOL   C11429716   1.800   2.776   2.185  0.1046 -0.4367 -0.0879
   42MOL   C11529717   1.811   2.642   2.139 -0.3935  0.1525  0.3501
   42MOL   C11629718   1.774   2.615   1.995 -0.2239  0.1864 -0.2466
   42MOL   O11729719   1.711   2.699   1.923 -0.2848 -0.4685 -0.2023
   42MOL   N11829720   1.810   2.496   1.943 -0.5855  0.1919 -0.8986
   42MOL   C11929721   1.762   2.453   1.808 -0.1069 -0.2209  0.5660
   42MOL   C12029722   1.756   2.305   1.804 -0.6465 -0.2839  0.3588
   42MOL   C12129723   1.901   2.247   1.794  0.0417  0.5090  0.0203
   42MOL   C12229724   1.911   2.095   1.766 -0.6245  0.1263 -0.1445
   42MOL   C12329725   2.043   2.077   1.696 -0.2772  0.0120 -0.3405
   42MOL   C12429726   2.064   1.938   1.643  1.0546  0.2294 -0.0693
   42MOL   N12529727   1.984   1.921   1.522 -0.6270 -0.2598  0.7378
   42MOL   C12629728   1.838   2.544   2.232  0.3438  0.2821 -0.4920
   42MOL   C12729729   1.869   2.572   2.366  0.8968  0.3194  1.0351
   42MOL   H12829730   1.830   2.908   2.336 -2.1895  1.1516 -1.1706
   42MOL   H12929731   1.780   2.848   2.107  0.6805  0.5617  0.6610
   42MOL   H13029732   1.840   2.422   2.004 -1.4423  0.2530 -0.3907
   42MOL   H13129733   1.657   2.479   1.795 -0.1536 -0.8431 -0.2947
   42MOL   H13229734   1.816   2.500   1.725 -0.4877 -2.4043 -0.9401
   42MOL   H13329735   1.709   2.261   1.716 -0.9862 -1.2262  0.9988
   42MOL   H13429736   1.695   2.269   1.887 -3.0169  0.8530 -0.8447
   42MOL   H13529737   1.943   2.298   1.707  0.3637 -2.2790 -1.5161
   42MOL   H13629738   1.962   2.271   1.881  1.8143 -0.6991 -0.8662
   42MOL   H13729739   1.831   2.058   1.702  1.4161 -1.2101 -1.9917
   42MOL   H13829740   1.912   2.033   1.856  1.3500  0.2278 -0.0629
   42MOL   H13929741   2.118   2.093   1.773  1.9150 -2.8899 -1.7387
   42MOL   H14029742   2.074   2.136   1.610  2.6100 -0.1675  0.5174
   42MOL   H14129743   2.170   1.925   1.622  1.1388  0.9997 -0.1428
   42MOL   H14229744   2.034   1.868   1.721 -2.1527 -0.0323 -1.4493
   42MOL   H14329745   1.883   1.912   1.530 -0.7362 -0.1197 -0.3115
   42MOL   H14429746   1.828   2.440   2.204 -1.1619  0.5526 -1.0134
   42MOL   H14529747   1.881   2.492   2.438 -2.1777  0.0107  1.2538
   42MOL   C14629748   2.037   1.935   1.396 -0.5462  0.9609 -0.1544
   42MOL   O14729749   2.151   1.974   1.371  0.0529  0.2065 -0.4234
   42MOL   C14829750   1.934   1.910   1.295 -0.7137  0.8145  0.0851
   42MOL   C14929751   1.822   1.991   1.275  0.1094 -0.2306  0.1481
   42MOL   C15029752   1.733   1.970   1.166  0.1617  0.3127  0.3832
   42MOL   C15129753   1.755   1.863   1.077 -0.6103 -0.6654 -0.2695
   42MOL   C15229754   1.677   1.851   0.953 -0.3918 -0.2941 -0.1874
   42MOL   O15329755   1.661   1.738   0.904  0.0838  0.2088 -0.0655
   42MOL   N15429756   1.629   1.967   0.897 -0.2918  0.4602  0.4293
   42MOL   C15529757   1.527   1.966   0.794 -0.5807 -1.0785  1.0018
   42MOL   C15629758   1.563   1.933   0.649 -0.6989 -0.0096 -0.5646
   42MOL   C15729759   1.439   1.934   0.556  0.2288 -0.1133 -0.4734
   42MOL   C15829760   1.390   2.086   0.524 -0.2699  0.2016 -0.9674
   42MOL   C15929761   1.250   2.070   0.463  0.0045 -0.8181 -0.5301
   42MOL   C16029762   1.212   2.196   0.388  0.1081 -0.3073 -0.0995
   42MOL   N16129763   1.087   2.184   0.316  0.1166  0.6567  0.1613
   42MOL   C16229764   1.862   1.773   1.103  0.0858 -0.5895  0.1986
   42MOL   C16329765   1.960   1.803   1.207 -0.1927 -0.0229 -0.1151
   42MOL   H16429766   1.804   2.058   1.358  0.9181 -1.3544  1.2486
   42MOL   H16529767   1.657   2.042   1.144 -1.2534 -1.3199 -0.1380
   42MOL   H16629768   1.663   2.055   0.933 -1.0357  0.6829  0.5893
   42MOL   H16729769   1.458   1.888   0.828 -0.4903 -1.4895  0.2650
   42MOL   H16829770   1.471   2.059   0.803 -0.8052 -0.9884 -0.9643
   42MOL   H16929771   1.615   1.838   0.639  0.3491  0.5358 -0.4010
   42MOL   H17029772   1.643   1.997   0.613 -1.5266  2.4926  1.8171
   42MOL   H17129773   1.449   1.875   0.465 -0.8077  0.2410 -0.8278
   42MOL   H17229774   1.367   1.879   0.616 -0.7405 -0.3565 -1.8248
   42MOL   H17329775   1.461   2.125   0.451  0.4351  0.4421 -0.1497
   42MOL   H17429776   1.389   2.154   0.609  1.9878 -1.6258  0.5836
   42MOL   H17529777   1.172   2.043   0.535  2.0796 -1.5522  1.4973
   42MOL   H17629778   1.246   1.989   0.391 -1.0464  0.3887 -1.8631
   42MOL   H17729779   1.186   2.270   0.463 -2.4161 -0.8339 -0.4256
   42MOL   H17829780   1.289   2.241   0.324 -0.3293 -1.2485 -1.2981
   42MOL   H17929781   1.037   2.097   0.313  0.3491  0.5498 -0.8450
   42MOL   H18029782   1.871   1.680   1.048  0.1161 -1.4997  1.7011
   42MOL   H18129783   2.044   1.740   1.233 -0.6151  0.2659  2.0875
   42MOL   C18229784   1.041   2.289   0.242  0.4404  0.1012  0.6840
   42MOL   O18329785   1.081   2.400   0.245 -0.0963  0.7097 -0.5132
   42MOL   C18429786   0.924   2.259   0.151 -0.3233 -0.4655  0.1594
   42MOL   C18529787   0.831   2.349   0.109 -0.0940 -0.3721 -0.2250
   42MOL   C18629788   0.736   2.321   0.011 -0.4172 -0.1906  0.0385
   42MOL   C18729789   0.714   2.184   7.861 -0.5339  0.0474 -0.5039
   42MOL   C18829790   0.602   2.139   7.768 -0.7903 -0.4237 -0.1486
   42MOL   O18929791   0.618   2.040   7.697  0.6042 -0.2743 -0.4760
   42MOL   N19029792   0.490   2.201   7.775 -0.1471 -0.3918 -0.9964
   42MOL   C19129793   0.372   2.160   7.704  0.2582 -0.1080 -0.4858
   42MOL   C19229794   0.370   2.206   7.560  0.2912  0.6290  0.9996
   42MOL   C19329795   0.411   2.352   7.543  0.1700  0.8498  0.3424
   42MOL   C19429796   0.400   2.391   7.400  0.3998  0.6308 -0.6829
   42MOL   C19529797   0.460   2.531   7.384 -0.5053 -0.0185 -0.6308
   42MOL   C19629798   0.445   2.586   7.247  0.0458 -0.1334 -0.0092
   42MOL   N19729799   0.517   2.500   7.153 -0.2873 -0.4110  0.4621
   42MOL   C19829800   0.814   2.095   0.015 -0.6237 -0.6613 -0.1262
   42MOL   C19929801   0.920   2.126   0.102 -0.6262 -0.8077  0.0129
   42MOL   H20029802   0.838   2.454   0.135  1.6417  0.5952 -4.2067
   42MOL   H20129803   0.665   2.397   7.869 -0.3757 -0.4983 -0.9270
   42MOL   H20229804   0.480   2.282   7.835  1.6011  0.0647 -1.2880
   42MOL   H20329805   0.363   2.052   7.712 -0.4722 -0.1874 -2.1905
   42MOL   H20429806   0.292   2.204   7.762  0.6839  0.9971 -0.7267
   42MOL   H20529807   0.268   2.197   7.522  0.5203 -2.5675  1.0026
   42MOL   H20629808   0.425   2.134   7.500 -1.6497 -0.1294  0.0846
   42MOL   H20729809   0.341   2.416   7.596 -1.4823 -0.9266  0.3275
   42MOL   H20829810   0.509   2.369   7.587  0.9449 -1.3365 -0.4838
   42MOL   H20929811   0.293   2.384   7.380  0.8108 -1.2585 -2.4439
   42MOL   H21029812   0.454   2.320   7.337 -0.4435 -0.0145 -0.6986
   42MOL   H21129813   0.564   2.538   7.416 -0.7355  1.5177 -0.1567
   42MOL   H21229814   0.398   2.575   7.462  1.8665 -1.5062  2.2083
   42MOL   H21329815   0.340   2.587   7.217  0.4224  1.8242 -1.3234
   42MOL   H21429816   0.493   2.684   7.250  1.7048 -0.9565  1.8056
   42MOL   H21529817   0.606   2.462   7.183 -0.7414 -1.8951 -0.0720
   42MOL   H21629818   0.800   1.991   7.877 -0.0841 -0.7398 -0.1068
   42MOL   H21729819   0.994   2.049   0.122 -0.3308 -0.0811  1.7515
   42MOL   C21829820   0.469   2.473   7.029 -0.8718  0.7130  0.4211
   42MOL   O21929821   0.369   2.520   6.979 -0.5468  0.4409  0.6666
   42MOL   C22029822   0.551   2.379   6.941  0.4761 -0.7667 -0.1922
   42MOL   C22129823   0.511   2.369   6.807 -0.5703  0.5096  0.2433
   42MOL   C22229824   0.582   2.301   6.713 -0.7464  0.6992 -0.4459
   42MOL   C22329825   0.706   2.233   6.754 -0.1026  0.0116  0.4074
   42MOL   C22429826   0.803   2.166   6.661  0.3782 -0.2706  1.0317
   42MOL   O22529827   0.826   2.219   6.555  0.2233 -0.2180 -0.2277
   42MOL   N22629828   0.841   2.043   6.694  0.6096 -0.2510 -0.2242
   42MOL   C22729829   0.887   1.948   6.600  0.6782  0.9785 -0.1660
   42MOL   C22829830   0.900   1.812   6.679  0.3979 -0.5911  0.4200
   42MOL   C22929831   0.946   1.692   6.603 -0.6168 -0.7534 -0.6811
   42MOL   C23029832   0.856   1.576   6.599 -0.0430 -0.2501 -0.5322
   42MOL   C23129833   0.862   1.482   6.726 -0.2880 -0.2524  0.7720
   42MOL   C23229834   0.768   1.365   6.701  0.4952  0.5412 -0.1480
   42MOL   N23329835   0.783   1.253   6.803 -0.7299  0.0807 -0.0927
   42MOL   C23429836   0.737   2.230   6.888  0.5457  0.3891  0.1576
   42MOL   C23529837   0.668   2.304   6.981  0.0622 -0.7794 -0.1298
   42MOL   H23629838   0.425   2.424   6.771 -0.8382  0.7959  1.3068
   42MOL   H23729839   0.549   2.304   6.611  1.9751  0.8066 -1.3729
   42MOL   H23829840   0.816   2.012   6.787  0.4831 -2.4070 -0.9397
   42MOL   H23929841   0.813   1.947   6.519  1.0279  1.2154 -0.4900
   42MOL   H24029842   0.984   1.987   6.570  0.6897  0.3164 -0.9952
   42MOL   H24129843   0.802   1.789   6.721 -0.3576  1.4799 -0.1401
   42MOL   H24229844   0.959   1.825   6.770  0.9514 -0.3724  0.0342
   42MOL   H24329845   0.974   1.722   6.502 -0.6341  1.9530  0.0759
   42MOL   H24429846   1.042   1.659   6.642 -0.8739 -1.4656 -0.6488
   42MOL   H24529847   0.887   1.508   6.520  1.3379 -1.8685  1.3572
   42MOL   H24629848   0.756   1.609   6.571 -0.7732 -1.5485  0.5308
   42MOL   H24729849   0.826   1.527   6.819  0.7687 -0.4988  1.3185
   42MOL   H24829850   0.965   1.449   6.743 -0.8639 -0.8601  3.3922
   42MOL   H24929851   0.662   1.391   6.700  0.0552 -1.2072 -1.0513
   42MOL   H25029852   0.794   1.318   6.606  2.0717 -1.3645  1.1912
   42MOL   H25129853   0.842   1.267   6.883  0.3267  0.2153 -0.8778
   42MOL   H25229854   0.815   2.169   6.932  2.5199  1.9196 -1.1494
   42MOL   H25329855   0.692   2.304   7.087 -0.9623  1.6118  0.1572
   42MOL   C25429856   0.724   1.137   6.807  0.2356  0.4522  1.0953
   42MOL   O25529857   0.655   1.098   6.713  0.0352 -0.2350  0.1974
   42MOL   C25629858   0.751   1.049   6.925 -0.6802  0.0108  0.1353
   42MOL   C25729859   0.851   1.078   7.020  1.0294 -0.3191  0.5181
   42MOL   C25829860   0.869   0.998   7.133 -0.3039 -0.5048  0.2347
   42MOL   C25929861   0.804   0.873   7.144  0.2708  0.6163 -0.2111
   42MOL   C26029862   0.829   0.782   7.263 -0.7947 -0.1887 -0.1659
   42MOL   O26129863   0.743   0.708   7.302  0.4330  0.1920 -0.5824
   42MOL   N26229864   0.949   0.788   7.325 -0.2294 -0.0903  0.5190
   42MOL   C26329865   1.005   0.699   7.415 -0.0105 -0.9596 -0.8695
   42MOL   C26429866   0.951   0.708   7.557  0.1405 -0.0361 -0.0258
   42MOL   C26529867   1.012   0.591   7.635  0.0848 -0.4708  0.1284
   42MOL   C26629868   0.962   0.582   7.781 -0.0490  0.4426  0.2399
   42MOL   C26729869   1.046   0.480   7.865 -0.0014 -0.5989 -0.0681
   42MOL   C26829870   1.021   0.505   0.132 -0.8590 -0.3584 -0.0860
   42MOL   N26929871   1.095   0.406   0.215  0.4346  0.2474 -0.1054
   42MOL   C27029872   0.696   0.851   7.060  0.1402 -0.0663  0.1165
   42MOL   C27129873   0.673   0.934   6.946  0.1943 -0.2070 -0.6402
   42MOL   H27229874   0.922   1.158   7.007  1.5601 -0.6990  1.0211
   42MOL   H27329875   0.949   1.020   7.202  0.8960 -0.7061 -1.0827
   42MOL   H27429876   1.014   0.849   7.276 -1.8793  0.5813 -0.8868
   42MOL   H27529877   0.998   0.601   7.367  1.8907 -1.8041  0.4825
   42MOL   H27629878   1.108   0.735   7.418 -0.9762  1.7368  2.0192
   42MOL   H27729879   0.843   0.695   7.551 -0.0979  1.7256  0.1514
   42MOL   H27829880   0.975   0.805   7.599  0.3899 -0.2204  0.2551
   42MOL   H27929881   0.993   0.496   7.586 -1.4109 -1.2768  2.2104
   42MOL   H28029882   1.120   0.602   7.646 -0.2236  1.2568  1.7704
   42MOL   H28129883   0.855   0.562   7.788 -0.0390  0.3521  0.1265
   42MOL   H28229884   0.974   0.679   7.829  0.2260  0.4775  0.1005
   42MOL   H28329885   1.152   0.487   7.839 -0.3775 -0.3749 -1.5916
   42MOL   H28429886   1.016   0.378   7.839  0.1875 -0.6062 -0.2595
   42MOL   H28529887   1.063   0.603   0.155 -3.2640  0.2115  2.0395
   42MOL   H28629888   0.915   0.508   0.156 -1.1577 -3.3198 -0.8835
   42MOL   H28729889   1.048   0.349   0.283  1.2312  0.8039  0.9093
   42MOL   H28829890   0.633   0.763   7.070  0.3171 -0.1072  0.8608
   42MOL   H28929891   0.597   0.905   6.874  2.1833 -0.3296 -2.7425
   42MOL   C29029892   1.227   0.394   0.218 -0.0687 -0.1950 -0.0340
   42MOL   O29129893   1.297   0.469   0.152 -0.6814  0.2475 -0.3728
   42MOL   C29229894   1.291   0.302   0.319  0.4618  0.1520  0.1476
   42MOL   C29329895   1.215   0.223   0.413  0.5018  0.5599 -0.3492
   42MOL   C29429896   1.289   0.129   0.492  0.0080 -0.9382  0.2823
   42MOL   C29529897   1.427   0.116   0.481 -0.1340 -0.0159  0.0969
   42MOL   C29629898   1.506   0.021   0.564 -0.0739  0.0356  0.2959
   42MOL   O29729899   1.626   0.027   0.583 -0.3862  0.4546 -0.2766
   42MOL   N29829900   1.431   7.807   0.615 -0.6746 -0.3484  0.1321
   42MOL   C29929901   1.474   7.672   0.660  0.4186  1.0342  0.3034
   42MOL   C30029902   1.523   7.676   0.803  0.0797 -0.0250 -0.2471
   42MOL   C30129903   1.415   7.705   0.908 -0.2235 -0.4399  0.6570
   42MOL   C30229904   1.378   7.853   0.935 -0.8443 -0.4197  0.0447
   42MOL   C30329905   1.486   0.036   1.027  0.3317  0.2392 -0.2428
   42MOL   C30429906   1.446   0.159   1.102  0.0169 -0.3021 -0.0802
   42MOL   N30529907   1.352   0.243   1.021 -0.7885 -0.2970 -0.3559
   42MOL   C30629908   1.500   0.197   0.395  0.1765  0.7619  0.5305
   42MOL   C30729909   1.427   0.280   0.309 -0.0142  0.3498 -0.5685
   42MOL   H30829910   1.107   0.230   0.422  0.4747  1.8798 -1.5395
   42MOL   H30929911   1.233   0.057   0.551  0.0442 -0.5484  0.8008
   42MOL   H31029912   1.336   7.810   0.582 -1.0355  0.5555  1.2672
   42MOL   H31129913   1.392   7.600   0.666  1.3894 -0.0168  1.1527
   42MOL   H31229914   1.549   7.610   0.612 -2.0072 -1.1160 -0.8355
   42MOL   H31329915   1.604   7.748   0.816  1.0292 -0.9519 -0.9423
   42MOL   H31429916   1.568   7.579   0.825  3.0357  1.5853  1.0064
   42MOL   H31529917   1.321   7.654   0.883  1.2926 -1.9740 -2.2108
   42MOL   H31629918   1.453   7.669   1.003  1.3086 -0.6788 -0.0296
   42MOL   H31729919   1.283   7.849   0.988 -2.0003 -0.4070 -1.9761
   42MOL   H31829920   1.369   0.026   0.843 -0.0664 -1.2837 -0.5946
   42MOL   H31929921   1.564   0.058   0.954 -1.6627  0.4716 -2.3975
   42MOL   H32029922   1.533   7.856   1.099 -0.6969 -0.0112  0.2167
   42MOL   H32129923   1.399   0.134   1.197  1.0412  1.0235  0.8035
   42MOL   H32229924   1.532   0.222   1.127  0.3463 -0.3102 -1.1651
   42MOL   H32329925   1.372   0.240   0.922  3.7370  3.4261  0.3018
   42MOL   H32429926   1.607   0.191   0.398  0.1282 -1.2034 -0.4771
   42MOL   H32529927   1.480   0.350   0.246 -1.3411  2.8917  1.0911
   42MOL   C32629928   1.259   0.328   1.067  1.2057  0.2879 -0.1321
   42MOL   O32729929   1.219   0.336   1.183  0.5627  0.0413 -0.2239
   42MOL   C32829930   1.205   0.418   0.967  0.0876  0.3932 -0.5565
   42MOL   C32929931   1.201   0.394   0.827  0.0372 -0.2282 -0.4550
   42MOL   C33029932   1.145   0.487   0.737  0.9888  0.3488 -0.0228
   42MOL   C33129933   1.068   0.589   0.786  0.1664  0.0632  0.0284
   42MOL   C33229934   1.021   0.700   0.694 -0.1378  0.4832  0.1129
   42MOL   O33329935   0.928   0.772   0.737  0.7645  0.1893  0.6640
   42MOL   N33429936   1.086   0.722   0.580  0.4858 -0.1895  0.1659
   42MOL   C33529937   1.041   0.813   0.483  0.8957  0.7042 -0.1685
   42MOL   C33629938   1.143   0.820   0.372 -0.0592 -0.6369 -0.2757
   42MOL   C33729939   1.097   0.895   0.241  0.5907  0.5343 -0.2602
   42MOL   C33829940   1.191   0.891   0.124 -0.3379  0.0501  0.1095
   42MOL   C33929941   1.140   0.972   0.003 -0.4594  1.1192  0.4524
   42MOL   C34029942   1.230   0.973   7.769  0.0738 -0.1568 -0.1885
   42MOL   N34129943   1.164   1.040   7.656  0.2959  0.5158 -0.1150
   42MOL   C34229944   1.053   0.609   0.927  0.0021 -0.4890  0.1997
   42MOL   C34329945   1.123   0.523   1.011  0.2895 -0.2477  0.0094
   42MOL   H34429946   1.256   0.309   0.788  2.0406  1.0203 -0.4491
   42MOL   H34529947   1.166   0.474   0.632 -0.5540  1.7682 -0.5286
   42MOL   H34629948   1.176   0.677   0.566  0.2069  0.1830 -3.1932
   42MOL   H34729949   0.946   0.771   0.450  0.8441 -0.3605  1.2668
   42MOL   H34829950   1.016   0.915   0.511 -3.4038 -0.9164  2.4592
   42MOL   H34929951   1.172   0.720   0.339  0.5072  0.3972 -3.0555
   42MOL   H35029952   1.234   0.870   0.406 -0.8645 -0.1211  1.1377
   42MOL   H35129953   1.000   0.859   0.206  1.0118  0.0581 -0.9513
   42MOL   H35229954   1.074   0.998   0.267 -1.5319  0.3797 -1.3789
   42MOL   H35329955   1.216   0.790   0.090 -0.1918  0.8219 -2.2085
   42MOL   H35429956   1.290   0.931   0.146  0.0302 -0.5845 -0.3652
   42MOL   H35529957   1.106   1.068   0.042 -0.4718  1.6187 -0.7524
   42MOL   H35629958   1.046   0.930   7.855  1.1333 -3.5331  1.5121
   42MOL   H35729959   1.313   1.039   7.792 -0.8638  0.1122  2.6634
   42MOL   H35829960   1.266   0.877   7.732 -1.2182 -0.0234 -1.8958
   42MOL   H35929961   1.085   1.100   7.675 -0.1733 -0.2174  0.2445
   42MOL   H36029962   0.987   0.685   0.964  0.9972  0.4608  0.0407
   42MOL   H36129963   1.117   0.537   1.118  0.6001 -0.6883  0.0860
   42MOL   C36229964   1.206   1.036   7.525 -0.5666  0.3671 -0.0273
   42MOL   O36329965   1.309   0.974   7.496  0.5544 -0.0464 -0.3714
   42MOL   C36429966   1.148   1.122   7.416 -0.7283 -0.5810  0.6033
   42MOL   C36529967   1.204   1.127   7.286 -0.1500  0.0764  0.3416
   42MOL   C36629968   1.157   1.213   7.183  0.1675  0.0139  0.0783
   42MOL   C36729969   1.046   1.299   7.220  0.5219  0.8603 -0.3256
   42MOL   C36829970   1.013   1.402   7.116  0.5559  0.0674 -0.4168
   42MOL   O36929971   0.985   1.372   7.003  0.3531 -0.1711  0.2406
   42MOL   N37029972   1.005   1.524   7.166  0.4191 -0.0717  0.8381
   42MOL   C37129973   0.954   1.629   7.084  0.5146  0.1290 -0.1683
   42MOL   C37229974   0.857   1.716   7.163 -0.3278 -0.8434  0.1560
   42MOL   C37329975   0.821   1.844   7.093 -0.1310  0.0134 -0.2155
   42MOL   C37429976   0.728   1.947   7.156 -0.4606 -0.0920 -0.0298
   42MOL   C37529977   0.792   2.052   7.252  0.0219  0.1215 -0.4549
   42MOL   C37629978   0.687   2.138   7.321 -0.1649 -0.1045  0.1395
   42MOL   N37729979   0.757   2.229   7.414  0.1757 -0.4221  0.3189
   42MOL   C37829980   0.983   1.292   7.348  0.0187 -0.0619  0.0382
   42MOL   C37929981   1.035   1.206   7.445 -0.9735 -0.1001  0.1424
   42MOL   H38029982   1.290   1.067   7.264  1.1627  1.6697  0.9786
   42MOL   H38129983   1.198   1.222   7.084  0.2186  1.2555  0.2082
   42MOL   H38229984   1.021   1.536   7.265 -1.6276  1.3457  1.0433
   42MOL   H38329985   1.041   1.691   7.064 -0.4475  0.8991 -2.0076
   42MOL   H38429986   0.913   1.591   6.991 -0.1239  0.3929  0.0027
   42MOL   H38529987   0.904   1.736   7.260  3.3250  0.3211 -1.7659
   42MOL   H38629988   0.758   1.676   7.184 -1.1761  0.4530 -1.3036
   42MOL   H38729989   0.912   1.899   7.069 -1.1115  1.8872  0.2740
   42MOL   H38829990   0.781   1.815   6.996  0.5540 -0.6570 -0.2978
   42MOL   H38929991   0.643   1.890   7.194  0.2452 -1.5479 -0.6044
   42MOL   H39029992   0.679   2.009   7.081  0.1354  0.0352 -0.3174
   42MOL   H39129993   0.854   2.119   7.192  0.4669 -0.8729 -1.1245
   42MOL   H39229994   0.852   1.995   7.323  0.5545  0.5317 -0.5736
   42MOL   H39329995   0.617   2.194   7.260  1.1622 -0.5460 -1.8446
   42MOL   H39429996   0.624   2.067   7.375  0.3619 -1.1134 -0.5350
   42MOL   H39529997   0.783   2.184   7.501 -0.3644 -3.7479 -1.1339
   42MOL   H39629998   0.909   1.366   7.374 -1.0999  0.8070 -5.0352
   42MOL   H39729999   0.992   1.203   7.544 -2.1220 -1.1602 -0.3857
   42MOL   C39830000   0.807   2.349   7.380  0.2899  0.3212 -0.6101
   42MOL   O39930001   0.792   2.397   7.267  0.2978  0.5454 -0.2180
   42MOL   C40030002   0.879   2.434   7.485 -0.7946 -0.1866 -0.0491
   42MOL   C40130003   0.905   2.574   7.461 -0.2671  0.2397  0.0182
   42MOL   C40230004   0.953   2.657   7.561  0.5027  0.3192 -0.1615
   42MOL   C40330005   0.998   2.609   7.681  0.5340  0.2196 -0.0388
   42MOL   C40430006   1.046   2.705   7.780  1.4160 -0.0576 -0.6282
   42MOL   O40530007   1.054   2.823   7.758  0.0498  0.2539  0.1230
   42MOL   N40630008   1.073   2.653   0.015 -0.8450 -0.0781  0.2603
   42MOL   C40730009   1.076   2.739   0.135 -0.6655  0.3333  0.1022
   42MOL   C40830010   0.941   2.737   0.211  0.0960 -0.7965 -0.0560
   42MOL   C40930011   0.807   2.764   0.136 -0.1588 -0.0456  0.1597
   42MOL   C41030012   0.688   2.790   0.229  0.1043 -0.0810  1.2064
   42MOL   C41130013   0.632   2.673   0.306 -0.3751  0.5222  0.0649
   42MOL   C41230014   0.495   2.687   0.366  1.0233  0.2062 -0.4068
   42MOL   N41330015   0.446   2.567   0.430 -0.0341 -0.2238 -0.1177
   42MOL   C41430016   0.995   2.468   7.699 -0.6279 -0.0673  0.1422
   42MOL   C41530017   0.932   2.383   7.609  1.0884 -0.5706 -0.0450
   42MOL   H41630018   0.862   2.603   7.367  0.2161 -1.3290 -0.7062
   42MOL   H41730019   0.956   2.763   7.541 -0.5453  0.8239  2.1388
   42MOL   H41830020   1.065   2.552   0.023 -1.1002 -0.2317 -1.6601
   42MOL   H41930021   1.161   2.717   0.200  0.0039 -0.8494 -1.1425
   42MOL   H42030022   1.120   2.832   0.100 -0.3609  0.8688  1.8844
   42MOL   H42130023   0.949   2.801   0.298  0.0039  0.7495 -1.1757
   42MOL   H42230024   0.954   2.635   0.249 -0.3749 -0.4925  0.9458
   42MOL   H42330025   0.820   2.850   0.071  0.8341  1.6297  2.5115
   42MOL   H42430026   0.799   2.680   0.066  1.2915 -1.1954  1.3274
   42MOL   H42530027   0.611   2.835   0.166 -0.3705 -1.6883  0.6090
   42MOL   H42630028   0.711   2.865   0.304  1.1086  0.5495  0.2873
   42MOL   H42730029   0.713   2.644   0.373  0.8179  0.7892 -1.2116
   42MOL   H42830030   0.639   2.588   0.238 -1.0298 -0.1795  0.8713
   42MOL   H42930031   0.504   2.770   0.436 -1.5350 -0.1549  0.4128
   42MOL   H43030032   0.424   2.704   0.286  1.2388  0.3284 -0.5712
   42MOL   H43130033   0.416   2.488   0.374 -2.7126  0.3948  0.4012
   42MOL   H43230034   1.026   2.423   7.792  2.9165 -1.4806 -1.6229
   42MOL   H43330035   0.910   2.283   7.642 -0.1950 -0.3717 -0.2407
   42MOL   C43430036   0.430   2.552   0.560  0.1119  0.1389  0.9783
   42MOL   O43530037   0.460   2.641   0.640  0.1428  0.2845 -0.1675
   42MOL   C43630038   0.370   2.424   0.605 -0.0003 -1.0230 -0.7364
   42MOL   C43730039   0.261   2.364   0.541 -0.1796 -0.2475 -0.7334
   42MOL   C43830040   0.217   2.235   0.574  0.0558 -0.4329  0.2019
   42MOL   C43930041   0.284   2.169   0.681 -0.0892 -0.4382  0.4225
   42MOL   C44030042   0.242   2.026   0.699 -0.6493  0.2024 -0.2087
   42MOL   O44130043   0.227   1.950   0.602 -0.9514  0.4828 -0.3053
   42MOL   N44230044   0.200   1.998   0.825 -0.2013  0.2911 -0.3972
   42MOL   C44330045   0.137   1.878   0.873  0.2411  0.3048  0.0717
   42MOL   C44430046   7.873   1.890   0.921 -0.2526  0.5254 -0.1155
   42MOL   C44530047   7.821   1.767   0.997 -0.4599 -0.1161  0.4457
   42MOL   C44630048   7.824   1.638   0.915  0.3259 -0.1693 -0.2639
   42MOL   C44730049   7.787   1.520   1.010  0.1615 -0.9485 -0.5342
   42MOL   C44830050   7.822   1.382   0.951  0.5450  0.3869  0.4558
   42MOL   N44930051   7.799   1.287   1.063  0.4349 -0.6837 -0.0182
   42MOL   C45030052   0.393   2.225   0.754  0.1072 -0.3368 -0.1884
   42MOL   C45130053   0.435   2.356   0.714 -0.1265 -0.0255 -0.1075
   42MOL   H45230054   0.216   2.421   0.461  1.1310  2.3624  0.3219
   42MOL   H45330055   0.138   2.185   0.521 -0.5415  0.1273  0.5474
   42MOL   H45430056   0.219   2.071   0.891 -1.7670  1.2456 -0.9621
   42MOL   H45530057   0.127   1.810   0.788 -0.4806 -0.5056  0.7884
   42MOL   H45630058   0.204   1.824   0.941  0.1348  0.8633  0.6211
   42MOL   H45730059   7.812   1.921   0.836 -0.7965  0.5081  0.2651
   42MOL   H45830060   7.853   1.972   0.990  0.3036 -0.1197  0.8262
   42MOL   H45930061   0.008   1.744   1.075 -1.8986 -3.0764  0.9736
   42MOL   H46030062   7.723   1.778   1.043 -1.2976  1.5412 -1.6579
   42MOL   H46130063   0.029   1.621   0.857  0.5100 -1.9235  0.5208
   42MOL   H46230064   7.745   1.641   0.840 -0.7850 -0.2089  0.8844
   42MOL   H46330065   7.689   1.538   1.056  0.1560  0.9183 -1.2180
   42MOL   H46430066   7.856   1.533   1.093 -0.4145  1.6816 -0.4182
   42MOL   H46530067   7.756   1.351   0.869 -1.0044  2.6043  0.8454
   42MOL   H46630068   0.037   1.378   0.910 -0.5840 -1.6300 -2.3750
   42MOL   H46730069   7.705   1.264   1.091  1.3083 -1.4582  2.4368
   42MOL   H46830070   0.440   2.165   0.830  0.6141  1.8297  1.2581
   42MOL   H46930071   0.509   2.419   0.762 -0.8784 -0.8222  2.2076
   42MOL   C47030072   0.007   1.246   1.148 -0.6394  0.7749 -0.1314
   42MOL   O47130073   0.122   1.240   1.108  0.1694  0.6046  0.2196
   42MOL   C47230074   7.859   1.204   1.288 -0.1225  0.5586  0.5903
   42MOL   C47330075   7.752   1.265   1.356  0.4985  0.5012  0.1022
   42MOL   C47430076   7.722   1.221   1.489  0.0118  0.5780  0.0153
   42MOL   C47530077   7.816   1.134   1.554 -0.3826  0.3359 -0.2022
   42MOL   C47630078   7.779   1.080   1.687 -0.1244 -0.4022  0.0370
   42MOL   O47730079   7.657   1.059   1.710 -0.1328 -0.2627 -0.3037
   42MOL   N47830080   7.869   1.079   1.786 -0.2234  0.2697  0.2322
   42MOL   C47930081   7.841   1.012   1.920  0.0059  0.0030  0.2972
   42MOL   C48030082   7.826   0.857   1.917 -0.0500 -0.4656  0.1613
   42MOL   C48130083   7.767   0.795   2.048  0.3306  0.6166 -0.4070
   42MOL   C48230084   7.621   0.763   2.046  0.6504  0.2638 -0.3259
   42MOL   C48330085   7.534   0.879   1.989  0.9915  0.0011  0.1504
   42MOL   C48430086   7.382   0.838   1.972  0.0689 -0.0556  0.4277
   42MOL   N48530087   7.304   0.956   1.942 -0.1929  0.5241  0.0745
   42MOL   C48630088   0.048   1.080   1.488 -0.3889 -0.1739 -0.1007
   42MOL   C48730089   0.062   1.111   1.352  0.6554 -0.0081  0.1660
   42MOL   H48830090   7.682   1.323   1.297  0.4358  0.3543  0.0309
   42MOL   H48930091   7.630   1.251   1.536 -1.1278  0.7936 -2.2986
   42MOL   H49030092   0.081   1.093   1.769 -0.4427 -1.8425 -3.1022
   42MOL   H49130093   0.044   1.032   1.978 -0.2102 -3.1170  1.8445
   42MOL   H49230094   7.750   1.053   1.964  0.1145  1.9642 -1.2601
   42MOL   H49330095   0.032   0.815   1.878 -0.6310 -0.4359 -1.2737
   42MOL   H49430096   7.759   0.828   1.835  1.5550  0.8449 -1.6522
   42MOL   H49530097   7.820   0.705   2.082 -0.0445 -0.0259 -1.5172
   42MOL   H49630098   7.780   0.867   2.129 -0.4034  0.2842  0.0183
   42MOL   H49730099   7.586   0.733   2.145  1.3101 -0.6533 -0.3721
   42MOL   H49830100   7.611   0.676   1.982 -0.4465  0.6198 -0.6615
   42MOL   H49930101   7.577   0.903   1.891  0.0748 -0.2243 -0.3106
   42MOL   H50030102   7.540   0.971   2.048 -1.1067 -0.3012  0.8684
   42MOL   H50130103   7.380   0.762   1.894  2.3760 -2.4360  2.5804
   42MOL   H50230104   7.356   0.782   2.062  1.9424 -1.3315  0.2081
   42MOL   H50330105   7.266   0.963   1.848 -1.1084 -0.6733  0.3456
   42MOL   H50430106   0.112   1.009   1.539  0.5135  0.9877  0.3921
   42MOL   H50530107   0.145   1.066   1.299 -1.6366 -1.3629 -2.3909
   42MOL   C50630108   7.254   1.036   2.033  0.7074 -0.6305 -0.0480
   42MOL   O50730109   7.285   1.030   2.150  0.0317 -0.2459 -0.0868
   42MOL   C50830110   7.161   1.143   1.986  0.4474  0.1281  0.1237
   42MOL   C50930111   7.062   1.200   2.075 -0.4132 -0.5738 -0.1137
   42MOL   C51030112   6.972   1.294   2.029  0.7035  0.7262  0.0882
   42MOL   C51130113   6.978   1.340   1.897  0.4454  0.5892  0.5071
   42MOL   C51230114   6.886   1.444   1.846 -0.4720 -0.3295 -0.3012
   42MOL   O51330115   6.849   1.438   1.726  0.2797  1.4384  0.1931
   42MOL   N51430116   6.867   1.553   1.918 -0.3888  0.3290 -0.0042
   42MOL   C51530117   6.757   1.650   1.888  0.0326  0.5157  0.1362
   42MOL   C51630118   6.780   1.785   1.950 -0.0363  0.4380 -0.4122
   42MOL   C51730119   6.747   1.784   2.100  0.2989  0.2599 -0.0120
   42MOL   C51830120   6.598   1.771   2.146  0.2112  0.3361  0.0347
   42MOL   C51930121   6.572   1.854   2.269 -0.3960  0.0516 -0.3283
   42MOL   C52030122   6.448   1.811   2.341 -0.0907 -0.4995 -0.6159
   42MOL   N52130123   6.415   1.903   2.451  1.0534  0.0764 -0.2234
   42MOL   C52230124   7.079   1.291   1.813 -0.0649 -1.0554 -0.0787
   42MOL   C52330125   7.171   1.197   1.859  0.1302  0.0253 -0.6939
   42MOL   H52430126   7.061   1.166   2.177  0.5195 -1.0483 -0.2582
   42MOL   H52530127   6.903   1.337   2.100 -0.2598  1.1768 -1.1208
   42MOL   H52630128   6.905   1.558   2.011  2.2922  1.8411 -1.1292
   42MOL   H52730129   6.764   1.666   1.780 -0.7999 -0.0374 -0.0071
   42MOL   H52830130   6.658   1.603   1.898 -0.1517  1.0339  0.7690
   42MOL   H52930131   6.721   1.858   1.894  0.1793  0.0821 -1.1174
   42MOL   H53030132   6.885   1.812   1.942  0.1139 -0.7801 -3.2585
   42MOL   H53130133   6.806   1.716   2.161  0.8030  0.8545  0.1671
   42MOL   H53230134   6.780   1.883   2.131 -0.6463  0.3869  0.5768
   42MOL   H53330135   6.562   1.668   2.154 -0.4385  0.7159  2.1218
   42MOL   H53430136   6.538   1.814   2.066  0.4041 -1.4860 -1.1272
   42MOL   H53530137   6.586   1.959   2.241 -2.9246  0.2898 -0.8413
   42MOL   H53630138   6.653   1.845   2.341 -0.1389  1.6897 -0.3868
   42MOL   H53730139   6.370   1.813   2.265 -1.2130  0.6584  0.5489
   42MOL   H53830140   6.453   1.710   2.382  0.4947 -0.7426 -1.2742
   42MOL   H53930141   6.482   1.974   2.477  0.2118  0.2608  1.4980
   42MOL   H54030142   7.081   1.326   1.711 -0.2784 -1.0435 -0.0802
   42MOL   H54130143   7.252   1.168   1.793  1.0704 -1.1428  0.9487
   42MOL   C54230144   6.302   1.886   2.521  0.1020 -0.4850  0.3302
   42MOL   O54330145   6.235   1.784   2.519 -0.3734  0.3555  0.5129
   42MOL   C54430146   6.275   1.993   2.621 -0.0627  0.1680 -0.8519
   42MOL   C54530147   6.206   1.966   2.745 -0.5893  1.3866  0.0839
   42MOL   C54630148   6.179   2.067   2.838 -0.5234  0.6233 -0.2410
   42MOL   C54730149   6.228   2.200   2.814 -0.0161 -0.2931 -0.1610
   42MOL   C54830150   6.221   2.298   2.928  0.2445 -0.5497  0.6649
   42MOL   O54930151   6.296   2.392   2.931 -0.1342 -0.4703 -0.0579
   42MOL   N55030152   6.118   2.288   3.016 -0.1190 -0.4421  0.5352
   42MOL   C55130153   6.100   2.382   3.127 -0.4996 -0.9834  0.3459
   42MOL   C55230154   6.024   2.507   3.068  0.5876  0.6745  0.6484
   42MOL   C55330155   5.998   2.616   3.168 -0.6482 -0.2568  0.0602
   42MOL   C55430156   5.920   2.737   3.117  0.7857  0.8912  0.0852
   42MOL   C55530157   5.865   2.818   3.231 -0.4790 -0.0529  0.0369
   42MOL   C55630158   5.746   2.909   3.195  0.7777 -0.2378  0.7659
   42MOL   N55730159   5.729   3.019   3.280 -0.1030 -0.2045  0.8787
   42MOL   C55830160   6.285   2.230   2.693 -0.2877 -0.1023  0.1349
   42MOL   C55930161   6.308   2.128   2.597  0.0649  0.6721 -0.1171
   42MOL   H56030162   6.157   1.872   2.764 -0.4025  1.3459  0.3616
   42MOL   H56130163   6.131   2.048   2.933  1.8701  2.9688  1.5239
   42MOL   H56230164   6.047   2.220   2.993 -1.5028  0.5630  1.7098
   42MOL   H56330165   6.047   2.332   3.207 -0.1661 -1.8414  0.0379
   42MOL   H56430166   6.202   2.400   3.163 -0.4947 -0.2210 -0.0360
   42MOL   H56530167   5.923   2.491   3.028  0.4751 -0.3469  1.3393
   42MOL   H56630168   6.090   2.551   2.993 -0.2594 -0.5070 -0.8215
   42MOL   H56730169   5.936   2.569   3.245 -0.7369  0.5862  0.5170
   42MOL   H56830170   6.081   2.647   3.232 -0.1794  1.0186 -1.1510
   42MOL   H56930171   5.838   2.706   3.053  1.2133  1.7990 -0.9310
   42MOL   H57030172   5.987   2.811   3.072  1.9745  0.6989  1.5011
   42MOL   H57130173   5.945   2.883   3.267  0.9634 -0.4625 -2.3033
   42MOL   H57230174   5.840   2.763   3.322  0.5839 -0.0194  0.3517
   42MOL   H57330175   5.736   2.926   3.088  0.9615  0.1134  0.8034
   42MOL   H57430176   5.659   2.845   3.212  0.5766  0.4293  2.3777
   42MOL   H57530177   5.640   3.026   3.327 -1.3983 -0.0556 -1.5361
   42MOL   H57630178   6.316   2.333   2.677  0.6350 -0.3078  0.5578
   42MOL   H57730179   6.357   2.158   2.506 -0.2827 -0.9474 -0.8545
   42MOL   C57830180   5.802   3.133   3.290 -0.3723 -0.2433 -0.3050
   42MOL   O57930181   5.907   3.148   3.225 -0.2072 -0.3496 -0.0818
   42MOL   C58030182   5.753   3.237   3.387 -0.1526  0.9802 -0.3116
   42MOL   C58130183   5.653   3.206   3.487  0.3405 -0.4344  0.2274
   42MOL   C58230184   5.600   3.303   3.575 -1.0267  0.1452  0.5074
   42MOL   C58330185   5.661   3.431   3.575  0.1902  0.8790  0.1072
   42MOL   C58430186   5.633   3.533   3.676  0.0116 -1.3206  0.2736
   42MOL   O58530187   5.723   3.607   3.711  0.0111  0.8094  0.1452
   42MOL   N58630188   5.505   3.539   3.716 -0.0454 -0.0118  0.7511
   42MOL   C58730189   5.466   3.624   3.824  0.6295  0.3991 -0.0930
   42MOL   C58830190   5.322   3.579   3.878 -0.5398 -0.0504  0.0606
   42MOL   C58930191   5.276   3.642   4.005  0.3818  0.9641  0.0339
   42MOL   C59030192   5.188   3.561   4.094 -0.3513 -0.4232 -0.1269
   42MOL   C59130193   5.162   3.627   4.232  0.5345  0.3159  0.3311
   42MOL   C59230194   5.054   3.555   4.312 -0.9111  0.1004 -0.0517
   42MOL   N59330195   5.082   3.410   4.317 -0.5243 -0.2560 -1.1386
   42MOL   C59430196   5.770   3.461   3.488  1.4111 -0.2672  0.2162
   42MOL   C59530197   5.804   3.367   3.387 -0.4505  0.2493 -0.1363
   42MOL   H59630198   5.609   3.107   3.492  0.0712 -0.3067  0.3573
   42MOL   H59730199   5.522   3.282   3.647 -2.8212 -1.1093 -1.7231
   42MOL   H59830200   5.437   3.488   3.663  3.3887 -1.0252 -2.8998
   42MOL   H59930201   5.542   3.625   3.902  0.6668  0.6604 -0.1311
   42MOL   H60030202   5.450   3.724   3.783 -2.8815  0.2657  0.7743
   42MOL   H60130203   5.334   3.471   3.893  2.5432 -0.1850 -2.6941
   42MOL   H60230204   5.241   3.585   3.806 -0.4106 -0.7445 -0.1547
   42MOL   H60330205   5.352   3.686   4.070 -1.7971  3.3520  1.0701
   42MOL   H60430206   5.210   3.726   3.984 -1.7027 -0.8101 -0.6802
   42MOL   H60530207   5.230   3.461   4.106  0.6578 -0.0834 -0.7116
   42MOL   H60630208   5.091   3.558   4.045  0.0995  2.7748 -1.3296
   42MOL   H60730209   5.120   3.726   4.215 -0.7844 -0.1819  0.6183
   42MOL   H60830210   5.251   3.638   4.294  2.0314  0.3344 -1.7797
   42MOL   H60930211   5.040   3.592   4.413  1.6339 -0.4392  0.5364
   42MOL   H61030212   4.961   3.565   4.255  0.8229 -0.7622 -3.1563
   42MOL   H61130213   5.174   3.380   4.346 -0.7958  0.7487  0.8519
   42MOL   H61230214   5.812   3.560   3.482  0.0133  0.3103 -0.4326
   42MOL   H61330215   5.892   3.397   3.333 -1.7922  1.0750 -1.8994
   42MOL   C61430216   5.000   3.309   4.276 -0.1210  0.0531 -0.1674
   42MOL   O61530217   4.885   3.330   4.231  0.0629 -0.1329 -0.0786
   42MOL   C61630218   5.068   3.175   4.282 -0.6029  0.3150 -0.3372
   42MOL   C61730219   4.995   3.060   4.235 -0.0433  0.3913  0.6402
   42MOL   C61830220   5.056   2.933   4.241 -0.0194  0.3523  0.3354
   42MOL   C61930221   5.185   2.911   4.295  0.3789  0.3390  1.8707
   42MOL   C62030222   5.254   2.775   4.296  0.4016 -0.1477  0.9762
   42MOL   O62130223   5.335   2.739   4.378  0.1970  1.2170 -0.3702
   42MOL   N62230224   5.217   2.707   4.190 -0.4642 -0.0534 -0.1034
   42MOL   C62330225   5.257   2.572   4.157 -0.0015  0.3102 -0.1019
   42MOL   C62430226   5.150   2.463   4.194 -0.3075  0.2883 -0.5364
   42MOL   C62530227   5.170   2.328   4.139  0.1097 -0.4090  0.1902
   42MOL   C62630228   5.068   2.227   4.193  0.6455  0.7149 -0.1837
   42MOL   C62730229   5.123   2.087   4.192 -0.1488  0.5215 -0.3709
   42MOL   C62830230   5.005   1.993   4.232 -0.3155 -0.2299 -0.6759
   42MOL   N62930231   5.044   1.860   4.252 -0.3278 -0.1304  0.4064
   42MOL   C63030232   5.255   3.021   4.348 -0.6785 -0.3031  0.0179
   42MOL   C63130233   5.195   3.150   4.342  0.0966 -0.5150 -0.3671
   42MOL   H63230234   4.896   3.072   4.193  0.9594  0.6965 -1.7373
   42MOL   H63330235   4.995   2.850   4.208  0.6734 -0.5694  1.3162
   42MOL   H63430236   5.157   2.748   4.119 -2.0425  0.2124  1.3420
   42MOL   H63530237   5.275   2.564   4.050  2.7137 -2.0707  0.4524
   42MOL   H63630238   5.357   2.552   4.196 -0.7160 -2.1072  0.5732
   42MOL   H63730239   5.058   2.510   4.161 -0.9888 -0.6427  0.0111
   42MOL   H63830240   5.146   2.454   4.302 -1.5405  0.0386 -0.5937
   42MOL   H63930241   5.145   2.326   4.033  1.8604  0.3958 -0.2571
   42MOL   H64030242   5.273   2.294   4.147  0.1277 -0.9349 -2.0985
   42MOL   H64130243   4.979   2.235   4.131  1.4403  2.1070 -1.1766
   42MOL   H64230244   5.047   2.246   4.298  1.2078 -0.5605  0.1728
   42MOL   H64330245   5.211   2.080   4.256  0.3679  0.0349 -1.1413
   42MOL   H64430246   5.148   2.061   4.090  0.6858  0.3288 -0.1238
   42MOL   H64530247   4.954   2.027   4.322 -0.8916 -2.9592  0.0898
   42MOL   H64630248   4.928   2.000   4.155 -2.1242 -1.4074  0.9771
   42MOL   H64730249   5.134   1.838   4.213 -1.0092  0.7950 -1.7831
   42MOL   H64830250   5.349   3.006   4.401  0.2638  4.0408 -0.1978
   42MOL   H64930251   5.247   3.227   4.397  2.1801 -2.1342  0.0217
   42MOL   C65030252   4.976   1.756   4.312 -0.0183  0.2657  0.1753
   42MOL   O65130253   4.861   1.768   4.360  0.1972 -0.0855 -0.4603
   42MOL   C65230254   5.055   1.631   4.341 -0.4827 -0.5884  0.0482
   42MOL   C65330255   5.142   1.586   4.238 -0.1457 -0.0176 -1.0492
   42MOL   C65430256   5.201   1.459   4.243  1.1280  0.1585 -0.1908
   42MOL   C65530257   5.176   1.384   4.365  0.4544 -0.5505 -0.5902
   42MOL   C65630258   5.221   1.242   4.375  0.1789  0.0259 -0.3999
   42MOL   O65730259   5.269   1.199   4.483  0.0752 -0.1101  0.1856
   42MOL   N65830260   5.201   1.160   4.272 -0.3118 -0.6896  0.2039
   42MOL   C65930261   5.245   1.018   4.263 -1.1364 -0.2749 -0.0034
   42MOL   C66030262   5.161   0.948   4.160  0.6223 -0.7611  0.2140
   42MOL   C66130263   5.200   0.793   4.139  0.1276  0.7647 -0.3849
   42MOL   C66230264   5.144   0.730   4.007  0.3550 -0.6896 -0.2171
   42MOL   C66330265   4.990   0.731   3.995 -0.3676  0.0181  0.3072
   42MOL   C66430266   4.943   0.680   3.856  0.4155 -0.1848  0.6316
   42MOL   N66530267   4.791   0.656   3.840  0.4599 -0.3796  0.1837
   42MOL   C66630268   5.105   1.439   4.473 -0.9759  0.8984 -0.3322
   42MOL   C66730269   5.035   1.558   4.461  0.2989 -0.3827  1.1149
   42MOL   H66830270   5.148   1.638   4.143  1.5488 -1.0885 -1.5450
   42MOL   H66930271   5.257   1.418   4.160 -1.1351 -2.5147 -0.4924
   42MOL   H67030272   5.176   1.210   4.188 -0.3908 -0.2747  0.4715
   42MOL   H67130273   5.344   1.015   4.218 -1.7595 -1.1207 -1.3611
   42MOL   H67230274   5.241   0.959   4.354  0.5561 -0.4734 -0.0444
   42MOL   H67330275   5.163   1.015   4.074 -0.9443 -0.1921  0.6034
   42MOL   H67430276   5.060   0.947   4.201  0.5809  1.3345  0.2296
   42MOL   H67530277   5.309   0.789   4.131  0.1508  2.1214 -1.0309
   42MOL   H67630278   5.174   0.736   4.228 -1.4387  1.2137 -0.5480
   42MOL   H67730279   5.188   0.630   4.007  0.7604 -0.5328 -2.1974
   42MOL   H67830280   5.178   0.793   3.925 -0.5688  0.4505  0.2564
   42MOL   H67930281   4.942   0.824   4.026  0.4971 -0.1573  2.2370
   42MOL   H68030282   4.953   0.667   4.075  0.1060  1.6329  1.8325
   42MOL   H68130283   4.970   0.748   3.775 -1.7553 -1.2791 -1.0858
   42MOL   H68230284   4.986   0.582   3.835  2.1416  0.7481 -0.2606
   42MOL   H68330285   4.762   0.559   3.840  1.3603 -0.6461  0.2458
   42MOL   H68430286   5.099   1.378   4.562 -0.1687  0.1500 -0.7814
   42MOL   H68530287   4.979   1.600   4.543  0.4812  1.4268  0.3210
   42MOL   C68630288   4.707   0.761   3.825  0.1282 -0.1056 -0.4070
   42MOL   O68730289   4.741   0.878   3.844  0.1235 -0.4393  0.4653
   42MOL   C68830290   4.566   0.727   3.789  0.0564 -0.4808  0.0143
   42MOL   C68930291   4.534   0.633   3.690  0.0777  0.1141  0.4473
   42MOL   C69030292   4.403   0.621   3.644  0.2994  0.1010 -0.4189
   42MOL   C69130293   4.301   0.699   3.702 -0.1715 -0.4025 -0.1396
   42MOL   C69230294   4.159   0.699   3.650 -0.2983  0.5770 -0.3066
   42MOL   O69330295   4.138   0.645   3.546  0.4883  0.7621 -0.5157
   42MOL   N69430296   4.060   0.744   3.727 -0.5011  0.6604 -0.1167
   42MOL   C69530297   3.924   0.692   3.734  0.5814 -0.0845  0.2615
   42MOL   C69630298   3.826   0.798   3.670 -0.1534 -0.1522 -0.4257
   42MOL   C69730299   3.844   0.809   3.514 -1.5052  0.3673  0.4359
   42MOL   C69830300   3.777   0.918   3.439  0.4135 -0.0090 -0.3303
   42MOL   C69930301   3.750   0.880   3.290  0.2350  0.8706 -0.1507
   42MOL   C70030302   3.886   0.857   3.218 -0.5254 -0.7799  0.4221
   42MOL   N70130303   3.856   0.850   3.072  0.0766  0.3362 -0.0627
   42MOL   C70230304   4.328   0.792   3.807 -0.6264  0.5863 -0.1011
   42MOL   C70330305   4.461   0.805   3.845 -0.0872  0.4249 -0.0323
   42MOL   H70430306   4.607   0.566   3.647 -1.9334 -1.7953 -0.1325
   42MOL   H70530307   4.375   0.542   3.576 -1.7440  1.9056 -1.7462
   42MOL   H70630308   4.097   0.771   3.817 -0.0372  1.7327 -0.6276
   42MOL   H70730309   3.912   0.597   3.683  0.6166 -0.9431  1.8091
   42MOL   H70830310   3.894   0.670   3.837 -0.1262 -2.4373 -0.4349
   42MOL   H70930311   3.857   0.889   3.721 -2.0742 -0.9590  2.2373
   42MOL   H71030312   3.730   0.766   3.711  0.1095 -0.0556  0.2709
   42MOL   H71130313   3.945   0.790   3.479 -1.4520  1.2026  0.1242
   42MOL   H71230314   3.799   0.720   3.470  0.5276  0.3746 -1.7733
   42MOL   H71330315   3.825   1.015   3.454 -0.0689  0.1454  0.2506
   42MOL   H71430316   3.687   0.938   3.497  1.1686 -0.3262  0.9716
   42MOL   H71530317   3.708   0.969   3.243  2.2710  0.4035 -2.9114
   42MOL   H71630318   3.677   0.799   3.281 -0.4708  1.4450  0.2725
   42MOL   H71730319   3.966   0.919   3.257  0.0122 -0.9891 -0.3418
   42MOL   H71830320   3.915   0.754   3.235 -0.6663 -0.5541  2.1173
   42MOL   H71930321   3.779   0.785   3.060  0.7420 -0.2010 -1.5599
   42MOL   H72030322   4.250   0.855   3.846 -0.7572  0.2964  0.1008
   42MOL   H72130323   4.473   0.882   3.920  1.3090 -0.3556  0.5816
   42MOL   H72230324   3.938   0.823   3.020 -1.7002 -2.2713 -1.6649
   43MOL     C130325   3.594   0.492   6.552  0.0042 -0.1141 -0.0871
   43MOL     O230326   3.548   0.378   6.570  0.8498 -0.0175  0.4628
   43MOL     C330327   3.517   0.620   6.516  0.5690  0.2183  0.0063
   43MOL     C430328   3.588   0.744   6.504  0.4440 -0.0486  0.2480
   43MOL     C530329   3.518   0.860   6.458 -0.4395  0.0778  0.1301
   43MOL     C630330   3.377   0.851   6.442 -0.8650 -0.8477  0.4619
   43MOL     C730331   3.299   0.971   6.402 -0.3958  0.3300  0.3320
   43MOL     O830332   3.183   0.983   6.433  0.3689 -0.1145 -0.4600
   43MOL     N930333   3.361   1.061   6.320 -0.3185 -0.3977 -0.4381
   43MOL    C1030334   3.307   1.190   6.270 -0.0748  0.4635  0.5059
   43MOL    C1130335   3.404   1.252   6.173  1.0214 -0.6875  0.8860
   43MOL    C1230336   3.349   1.375   6.112 -0.1341 -0.2300 -0.1605
   43MOL    C1330337   3.240   1.348   6.007 -0.7087  0.6719 -0.4247
   43MOL    C1430338   3.184   1.474   5.931  0.0027  0.1605 -0.6464
   43MOL    C1530339   3.036   1.446   5.905  0.4072  0.0853 -0.8199
   43MOL    N1630340   2.971   1.556   5.832 -0.4064 -0.1751 -0.3792
   43MOL    C1730341   3.313   0.731   6.451 -0.0521  1.5218 -0.4329
   43MOL    C1830342   3.380   0.610   6.486  1.0195 -0.0787  0.0613
   43MOL    H1930343   3.695   0.758   6.514  0.6763 -0.1937 -1.8226
   43MOL    H2030344   3.562   0.954   6.431  0.3563 -0.3526 -0.1115
   43MOL    H2130345   3.446   1.043   6.267 -1.0716  1.5207 -2.3459
   43MOL    H2230346   3.211   1.156   6.231  0.1503  0.5468 -0.1298
   43MOL    H2330347   3.285   1.262   6.349  0.2811  1.7646 -0.5637
   43MOL    H2430348   3.412   1.174   6.098  1.4362  0.9577 -0.8058
   43MOL    H2530349   3.494   1.276   6.230  1.0095  0.6431  0.3671
   43MOL    H2630350   3.326   1.445   6.193 -2.8296 -0.4931 -0.6630
   43MOL    H2730351   3.430   1.430   6.063  1.1115 -1.6174  0.3286
   43MOL    H2830352   3.165   1.286   6.056  0.6284  0.5858  1.5859
   43MOL    H2930353   3.284   1.285   5.930  2.6288  1.5610  0.6573
   43MOL    H3030354   3.235   1.483   5.835  0.8685  1.4691 -0.0808
   43MOL    H3130355   3.204   1.564   5.990 -0.5621 -0.3540  0.3391
   43MOL    H3230356   3.032   1.369   5.828 -2.7670 -1.1647  0.5500
   43MOL    H3330357   2.979   1.422   5.995 -0.0884  0.6375 -0.9845
   43MOL    H3430358   3.022   1.613   5.765  0.4154  1.0028  1.2183
   43MOL    H3530359   3.207   0.724   6.429 -0.1766 -1.2898  0.8180
   43MOL    H3630360   3.333   0.514   6.501  2.9634 -0.7585  2.1137
   43MOL    H3730361   3.702   0.505   6.555 -0.0058 -0.4799  2.3142
   43MOL    C3830362   2.847   1.603   5.854  0.6596  0.3298  0.7280
   43MOL    O3930363   2.779   1.569   5.952  0.4298 -0.0709 -0.1657
   43MOL    C4030364   2.787   1.695   5.746 -0.2414 -0.4330 -0.8922
   43MOL    C4130365   2.865   1.730   5.634 -0.3525  1.5133  0.4201
   43MOL    C4230366   2.807   1.815   5.533 -0.1564  0.6517 -0.2694
   43MOL    C4330367   2.682   1.870   5.547  0.3306 -0.1679 -0.2980
   43MOL    C4430368   2.623   1.951   5.438 -0.0419  0.3640  0.4685
   43MOL    O4530369   2.656   1.945   5.317 -0.1786  0.7719 -0.3121
   43MOL    N4630370   2.532   2.036   5.481  1.1736  0.6507  0.9904
   43MOL    C4730371   2.465   2.142   5.408  0.0869 -0.0474 -0.0657
   43MOL    C4830372   2.477   2.284   5.474 -0.2538 -0.1733 -0.2286
   43MOL    C4930373   2.608   2.361   5.451  0.4284 -0.0877 -0.2630
   43MOL    C5030374   2.582   2.516   5.464 -0.2185  0.4619 -0.4262
   43MOL    C5130375   2.706   2.595   5.500 -0.0107  0.2345 -0.2085
   43MOL    C5230376   2.764   2.588   5.649  0.3788  0.1869  0.2666
   43MOL    N5330377   2.827   2.463   5.671 -0.0442 -0.6459  0.7818
   43MOL    C5430378   2.612   1.836   5.663  0.6124  1.0492  0.4575
   43MOL    C5530379   2.664   1.745   5.754  0.5409  0.7130  0.1125
   43MOL    H5630380   2.956   1.678   5.608 -1.2029  0.8717 -1.3221
   43MOL    H5730381   2.863   1.842   5.444  0.7601  1.2979  0.4870
   43MOL    H5830382   2.513   2.037   5.580 -0.0422 -0.3104  0.7848
   43MOL    H5930383   2.493   2.154   5.303  0.7941 -1.7652 -0.1013
   43MOL    H6030384   2.362   2.106   5.414 -0.9108  2.4929 -1.5276
   43MOL    H6130385   2.446   2.297   5.577  1.0322  1.7316 -0.0451
   43MOL    H6230386   2.403   2.336   5.414 -1.8754 -0.5099  1.4336
   43MOL    H6330387   2.676   2.330   5.531 -1.0803 -2.0677  0.2792
   43MOL    H6430388   2.656   2.324   5.361  0.4458 -0.1461 -0.2294
   43MOL    H6530389   2.512   2.529   5.547 -0.0459 -1.3032  0.0178
   43MOL    H6630390   2.529   2.560   5.380  0.5424 -0.4718 -1.4151
   43MOL    H6730391   2.676   2.697   5.478 -0.1193  0.1888 -0.2746
   43MOL    H6830392   2.790   2.580   5.432 -1.3687 -0.0196 -1.8666
   43MOL    H6930393   2.847   2.657   5.656  1.3634 -1.1654  2.0268
   43MOL    H7030394   2.695   2.608   5.730 -1.6114  0.7965 -1.5138
   43MOL    H7130395   2.778   2.379   5.699  0.1726 -1.4500 -1.1999
   43MOL    H7230396   2.513   1.873   5.687 -0.1822  0.5245 -1.8183
   43MOL    H7330397   2.602   1.733   5.842 -0.3345 -0.6157 -0.6595
   43MOL    C7430398   2.961   2.441   5.665  0.1463  0.4610 -0.4393
   43MOL    O7530399   3.034   2.527   5.619 -0.1956  0.3040  0.5532
   43MOL    C7630400   3.007   2.308   5.701 -0.0824  0.8691  0.4528
   43MOL    C7730401   2.928   2.191   5.696  0.2522 -0.5094  0.9980
   43MOL    C7830402   2.978   2.062   5.728 -0.0560  0.0914 -0.2869
   43MOL    C7930403   3.116   2.046   5.758 -0.7212  0.7616  0.5431
   43MOL    C8030404   3.185   1.912   5.781 -0.3917  0.7171  0.5910
   43MOL    O8130405   3.123   1.822   5.837  0.1865  0.6842 -0.2287
   43MOL    N8230406   3.305   1.892   5.733 -0.3104 -0.9952  0.1309
   43MOL    C8330407   3.380   1.767   5.757  0.2805  0.1577  0.1152
   43MOL    C8430408   3.454   1.755   5.891 -0.3256 -0.1868  0.3434
   43MOL    C8530409   3.576   1.857   5.904  0.5249 -0.6615 -0.2799
   43MOL    C8630410   3.537   2.001   5.925  0.1084  0.7266 -0.7165
   43MOL    C8730411   3.629   2.092   6.001  0.3176  0.4893  0.1101
   43MOL    C8830412   3.610   2.077   6.154 -0.3469 -0.7121  0.3996
   43MOL    N8930413   3.740   2.118   6.218  0.7492 -0.0537  0.1861
   43MOL    C9030414   3.199   2.159   5.764  0.3947 -0.2573 -0.7365
   43MOL    C9130415   3.142   2.289   5.737  0.3749  0.2939 -0.0561
   43MOL    H9230416   2.826   2.202   5.662  0.0967  1.2580  1.9689
   43MOL    H9330417   2.914   1.975   5.728  0.3179 -0.2029  0.6686
   43MOL    H9430418   3.345   1.963   5.672  0.4181 -1.8757 -0.4243
   43MOL    H9530419   3.311   1.684   5.741  1.0251  0.0137 -2.5873
   43MOL    H9630420   3.449   1.758   5.673  0.6432  0.8797  0.3286
   43MOL    H9730421   3.488   1.652   5.888 -1.4614 -0.5309 -1.7612
   43MOL    H9830422   3.383   1.769   5.973  0.2584 -2.5048  1.2673
   43MOL    H9930423   3.641   1.830   5.987  1.4642 -1.9744 -1.4099
   43MOL   H10030424   3.639   1.852   5.815 -0.8194 -0.0349 -1.2790
   43MOL   H10130425   3.447   2.003   5.985  0.8780 -0.7366  0.5190
   43MOL   H10230426   3.514   2.034   5.823 -0.0619 -2.0186 -1.6170
   43MOL   H10330427   3.608   2.197   5.978 -0.7709 -0.2177 -2.2697
   43MOL   H10430428   3.730   2.057   5.979  0.4398  0.8355  0.1114
   43MOL   H10530429   3.530   2.147   6.179  0.4586  1.4598 -2.7711
   43MOL   H10630430   3.587   1.977   6.189  2.0548 -0.6810  2.1791
   43MOL   H10730431   3.821   2.089   6.166  1.4175  0.9647  0.6604
   43MOL   H10830432   3.303   2.159   5.793 -0.3197  0.3575  2.0523
   43MOL   H10930433   3.205   2.377   5.744 -2.4821  2.2936  1.2240
   43MOL   C11030434   3.748   2.176   6.336  0.2137 -0.4732  0.0066
   43MOL   O11130435   3.652   2.200   6.410  0.4326  0.1947 -0.1571
   43MOL   C11230436   3.892   2.194   6.389  0.0879  0.1197  0.3545
   43MOL   C11330437   3.917   2.241   6.519  0.4260  0.3260  0.3825
   43MOL   C11430438   4.047   2.258   6.570  0.1486  0.1092  0.1512
   43MOL   C11530439   4.153   2.217   6.487  0.3184  0.3457 -1.2221
   43MOL   C11630440   4.290   2.231   6.537 -0.1275 -0.9745 -0.8741
   43MOL   O11730441   4.387   2.236   6.467  0.1322 -0.1811 -0.1747
   43MOL   N11830442   4.306   2.240   6.669  0.7562 -0.1805  0.2948
   43MOL   C11930443   4.430   2.254   6.735 -0.0482 -0.5697 -0.3268
   43MOL   C12030444   4.463   2.143   6.833  0.4082 -0.7784 -0.2339
   43MOL   C12130445   4.381   2.160   6.961  0.8877 -0.1865  0.6937
   43MOL   C12230446   4.369   2.019   7.040 -0.1241 -0.2096  1.3924
   43MOL   C12330447   4.278   2.026   7.164 -0.4061  0.0681 -0.1697
   43MOL   C12430448   4.222   1.896   7.210 -0.3554 -0.3722  0.0732
   43MOL   N12530449   4.325   1.792   7.226 -0.7434 -0.1703  0.4774
   43MOL   C12630450   4.133   2.177   6.356  0.2324 -0.3581  0.6983
   43MOL   C12730451   4.003   2.158   6.303  0.6232  0.0804 -0.3086
   43MOL   H12830452   3.841   2.280   6.584 -0.1642  1.0164 -0.7014
   43MOL   H12930453   4.067   2.312   6.661  2.2393 -1.3362  0.5902
   43MOL   H13030454   4.220   2.225   6.719  0.9576 -0.1956  0.6421
   43MOL   H13130455   4.513   2.270   6.666 -0.9147  2.8874 -0.6523
   43MOL   H13230456   4.426   2.350   6.787 -0.4485 -0.4847 -0.5162
   43MOL   H13330457   4.566   2.147   6.868 -0.1178 -0.6758  1.3112
   43MOL   H13430458   4.442   2.044   6.793 -1.9895  0.0297 -1.0469
   43MOL   H13530459   4.402   2.238   7.033 -0.6875  0.9402 -0.0322
   43MOL   H13630460   4.277   2.188   6.944  0.8693 -1.9153 -2.5469
   43MOL   H13730461   4.463   1.974   7.071  0.1887 -0.0469  0.6704
   43MOL   H13830462   4.322   1.942   6.978  0.9718 -0.8366  1.3246
   43MOL   H13930463   4.189   2.084   7.138 -1.7578 -1.5853  0.6296
   43MOL   H14030464   4.327   2.086   7.240 -1.3796  1.0042 -0.2541
   43MOL   H14130465   4.172   1.910   7.306 -0.7974  1.4491 -0.4056
   43MOL   H14230466   4.140   1.866   7.145 -2.5207  2.3958  1.4004
   43MOL   H14330467   4.324   1.717   7.158 -1.8845 -0.6826  1.0506
   43MOL   H14430468   4.215   2.158   6.288 -1.4688  1.3452 -1.8869
   43MOL   H14530469   3.987   2.139   6.198  0.1502 -1.6615  0.0761
   43MOL   C14630470   4.409   1.785   7.334 -0.3588 -0.3489 -0.8230
   43MOL   O14730471   4.409   1.872   7.424 -1.0956 -0.3330 -0.5543
   43MOL   C14830472   4.491   1.661   7.329  0.1883  0.1915  0.1858
   43MOL   C14930473   4.499   1.588   7.207  0.2925 -0.1552 -0.3281
   43MOL   C15030474   4.585   1.475   7.199 -0.9503  0.1041 -0.1255
   43MOL   C15130475   4.644   1.421   7.314 -0.7923  0.0955 -0.2055
   43MOL   C15230476   4.731   1.298   7.317 -0.0814  0.1400 -1.1215
   43MOL   O15330477   4.800   1.271   7.418 -0.3403  0.2863 -0.1587
   43MOL   N15430478   4.720   1.222   7.210 -0.2130 -0.5299 -0.1712
   43MOL   C15530479   4.785   1.088   7.198  0.2290 -0.4023  0.1072
   43MOL   C15630480   4.718   0.978   7.282 -0.5813  0.3039 -0.1834
   43MOL   C15730481   4.574   0.943   7.248  0.4982  0.8419 -0.0767
   43MOL   C15830482   4.524   0.817   7.328 -0.5167  0.0745  1.0121
   43MOL   C15930483   4.378   0.766   7.301  0.3245 -0.4064  0.2492
   43MOL   C16030484   4.359   0.666   7.183  0.8158 -0.6133  0.4008
   43MOL   N16130485   4.220   0.637   7.160  0.2195 -0.8538  0.4080
   43MOL   C16230486   4.629   1.486   7.438 -0.6513  0.6718 -0.6103
   43MOL   C16330487   4.553   1.603   7.441 -0.0779  0.6371  0.5997
   43MOL   H16430488   4.457   1.619   7.113  1.7746  2.6551 -0.0971
   43MOL   H16530489   4.597   1.424   7.105  0.5959 -0.9925  0.6343
   43MOL   H16630490   4.652   1.237   7.138 -0.1606 -3.3521 -0.8613
   43MOL   H16730491   4.774   1.045   7.098 -2.0790  0.3168 -0.0012
   43MOL   H16830492   4.890   1.096   7.222  0.1446 -1.6357  0.9266
   43MOL   H16930493   4.731   0.996   7.389  0.4578  1.6378 -0.5083
   43MOL   H17030494   4.775   0.888   7.258  4.5251  2.7060  2.0385
   43MOL   H17130495   4.510   1.025   7.282  0.1663  0.6427 -0.2190
   43MOL   H17230496   4.580   0.934   7.140  0.8988  1.4730 -0.1122
   43MOL   H17330497   4.532   0.832   7.436 -1.1050  0.7633  0.9580
   43MOL   H17430498   4.591   0.735   7.299 -1.0488 -0.4573  1.2749
   43MOL   H17530499   4.321   0.858   7.288 -0.2816 -0.7283  0.6021
   43MOL   H17630500   4.337   0.729   7.395  1.5272 -0.7334  0.6624
   43MOL   H17730501   4.400   0.704   7.090 -0.5808  0.4950  0.2239
   43MOL   H17830502   4.411   0.574   7.209 -0.8378 -1.4700  0.7427
   43MOL   H17930503   4.164   0.712   7.122 -1.0615 -2.3710 -0.8086
   43MOL   H18030504   4.675   1.442   7.524 -0.3532 -0.1304 -1.1766
   43MOL   H18130505   4.540   1.654   7.536 -0.3033  0.3104  0.7438
   43MOL   C18230506   4.163   0.520   7.169 -0.1260  0.3606 -0.1307
   43MOL   O18330507   4.226   0.418   7.206 -0.9815 -0.1628  0.0782
   43MOL   C18430508   4.019   0.513   7.130 -0.2311 -0.0021  0.2091
   43MOL   C18530509   3.940   0.401   7.142  0.5146  0.5549 -0.4417
   43MOL   C18630510   3.806   0.393   7.093 -0.3467 -0.1058 -0.5359
   43MOL   C18730511   3.748   0.501   7.025  0.2616 -0.5742 -0.1044
   43MOL   C18830512   3.609   0.495   6.981 -0.0275 -0.1041 -0.6476
   43MOL   O18930513   3.540   0.395   7.001 -0.2450 -0.1467 -0.2726
   43MOL   N19030514   3.558   0.598   6.908  0.4985  0.8892  0.0138
   43MOL   C19130515   3.421   0.616   6.864 -0.5654  0.7144 -0.3550
   43MOL   C19230516   3.344   0.684   6.979  0.4203  0.3293 -0.2684
   43MOL   C19330517   3.201   0.738   6.942 -0.7281 -0.0566  0.0411
   43MOL   C19430518   3.140   0.816   7.061 -0.0140 -0.2827 -0.3129
   43MOL   C19530519   3.113   0.732   7.185  1.0510 -0.1274 -0.7794
   43MOL   C19630520   3.067   0.810   7.317 -0.7635 -0.2586  0.2941
   43MOL   N19730521   2.936   0.862   7.318 -0.1833 -0.0317  0.4347
   43MOL   C19830522   3.828   0.610   7.011 -0.1334  0.0442  0.1325
   43MOL   C19930523   3.960   0.620   7.058 -0.5679  0.5747  0.5512
   43MOL   H20030524   3.986   0.315   7.189  0.6332 -0.2168 -1.9301
   43MOL   H20130525   3.755   0.304   7.126  0.5136  0.3719  2.1602
   43MOL   H20230526   3.620   0.677   6.897  2.5969 -0.6625  0.4728
   43MOL   H20330527   3.418   0.675   6.772 -0.8267 -0.7962 -1.3307
   43MOL   H20430528   3.363   0.527   6.842  0.2418  0.1978 -0.3976
   43MOL   H20530529   3.403   0.760   7.031  2.8071 -0.3630 -1.8825
   43MOL   H20630530   3.331   0.602   7.049 -1.4896  0.0181 -0.9680
   43MOL   H20730531   3.202   0.802   6.854  1.1119 -0.2784 -0.1145
   43MOL   H20830532   3.142   0.652   6.908 -1.0399  0.1808 -0.0172
   43MOL   H20930533   3.039   0.845   7.033  0.7130  2.5496 -0.0703
   43MOL   H21030534   3.203   0.902   7.084 -0.2397 -0.1307 -0.2685
   43MOL   H21130535   3.193   0.664   7.213 -0.3114 -1.0124  1.0983
   43MOL   H21230536   3.037   0.656   7.167 -0.4442  0.9753  0.7548
   43MOL   H21330537   3.077   0.740   7.400 -2.2389  1.7516  2.2468
   43MOL   H21430538   3.144   0.886   7.329 -2.0996  1.0165  0.9625
   43MOL   H21530539   2.896   0.893   7.230  0.3666  0.5239  0.3787
   43MOL   H21630540   3.790   0.698   6.961 -2.5797  0.1098  2.0030
   43MOL   H21730541   4.015   0.708   7.028  1.8876 -1.0608  0.1143
   43MOL   C21830542   2.875   0.906   7.435 -0.2838  0.4439  0.1212
   43MOL   O21930543   2.912   0.877   7.548 -0.2116 -0.1114 -0.2547
   43MOL   C22030544   2.758   0.992   7.410 -0.0941 -0.4478  0.2031
   43MOL   C22130545   2.661   0.971   7.313  0.1847  0.4021  0.5630
   43MOL   C22230546   2.560   1.065   7.292 -0.1077  0.3358 -0.1033
   43MOL   C22330547   2.554   1.179   7.372 -0.2669 -0.8273  0.2540
   43MOL   C22430548   2.438   1.268   7.376  0.2898 -0.2846  0.5706
   43MOL   O22530549   2.367   1.274   7.477  0.4534 -0.6512  0.1318
   43MOL   N22630550   2.415   1.339   7.261 -0.0381 -0.3783 -0.2972
   43MOL   C22730551   2.291   1.406   7.235  0.3532 -0.2818 -0.7830
   43MOL   C22830552   2.260   1.407   7.083 -0.1755  0.1130  0.5431
   43MOL   C22930553   2.124   1.471   7.036 -0.1637 -0.3471 -0.3536
   43MOL   C23030554   2.095   1.467   6.891  0.7992  0.0704  0.0974
   43MOL   C23130555   1.981   1.548   6.838  0.0196  0.9441  0.7347
   43MOL   C23230556   1.840   1.495   6.883  0.3175 -0.4869 -0.2265
   43MOL   N23330557   1.728   1.592   6.857  0.0185 -0.4394  0.2530
   43MOL   C23430558   2.643   1.195   7.478  0.3438 -0.0695  0.1780
   43MOL   C23530559   2.745   1.103   7.497 -0.0986 -0.5987  1.0682
   43MOL   H23630560   2.665   0.883   7.250 -1.0877 -0.3149  1.4636
   43MOL   H23730561   2.491   1.062   7.209  1.3191 -0.5624 -1.2771
   43MOL   H23830562   2.490   1.356   7.195  0.2909  0.6206  0.3192
   43MOL   H23930563   2.213   1.351   7.289  1.3832 -1.0411 -0.0483
   43MOL   H24030564   2.295   1.504   7.281 -0.0702 -0.6643  0.0958
   43MOL   H24130565   2.260   1.303   7.050 -1.5512  0.9666 -2.2773
   43MOL   H24230566   2.338   1.463   7.032 -0.4786 -0.0833 -0.1448
   43MOL   H24330567   2.038   1.431   7.089  0.3924  1.7226  2.2164
   43MOL   H24430568   2.122   1.573   7.075  2.4801 -0.4825  0.2582
   43MOL   H24530569   2.081   1.364   6.860  1.6917  0.0196 -0.1555
   43MOL   H24630570   2.174   1.499   6.823  0.5286 -3.4194 -1.9707
   43MOL   H24730571   1.981   1.540   6.730  0.9378  1.6942  0.6825
   43MOL   H24830572   1.985   1.655   6.858 -1.0592  1.1410 -0.0409
   43MOL   H24930573   1.826   1.404   6.824 -1.5888 -0.1752 -0.2988
   43MOL   H25030574   1.835   1.448   6.981 -0.2037 -2.4225 -1.1405
   43MOL   H25130575   1.757   1.688   6.843 -0.3293 -0.5099 -1.0882
   43MOL   H25230576   2.642   1.275   7.551 -0.4132  0.2995 -0.2364
   43MOL   H25330577   2.823   1.121   7.569  1.3898 -2.1718 -0.1461
   43MOL   C25430578   1.594   1.561   6.866 -0.5423  0.5604 -0.0897
   43MOL   O25530579   1.561   1.444   6.887 -0.3906  0.4279 -0.0040
   43MOL   C25630580   1.495   1.673   6.855  0.5688 -0.7206 -1.0294
   43MOL   C25730581   1.351   1.652   6.869  0.4653 -0.0823  0.1093
   43MOL   C25830582   1.262   1.761   6.856  0.1068 -0.9792  0.5552
   43MOL   C25930583   1.307   1.893   6.828  0.1923  0.2375 -0.2488
   43MOL   C26030584   1.217   2.013   6.818 -0.6144 -0.2692  0.6037
   43MOL   O26130585   1.109   2.011   6.881 -0.5304 -0.4737 -0.2267
   43MOL   N26230586   1.255   2.107   6.737 -0.3991  0.3170  0.1473
   43MOL   C26330587   1.174   2.223   6.691 -0.0495  0.2480 -0.4704
   43MOL   C26430588   1.153   2.332   6.795  0.3601 -0.9181  0.2380
   43MOL   C26530589   1.075   2.454   6.743  0.6174 -0.3454  0.1027
   43MOL   C26630590   1.076   2.587   6.826 -1.0654  0.1192 -0.2295
   43MOL   C26730591   0.974   2.693   6.774  0.3005 -0.3879 -0.7888
   43MOL   C26830592   0.958   2.821   6.860 -0.6977 -0.1849  0.9331
   43MOL   N26930593   1.083   2.892   6.882  0.3837  0.2247 -0.2935
   43MOL   C27030594   1.451   1.910   6.814  0.1213  0.6074 -0.5951
   43MOL   C27130595   1.543   1.803   6.825  0.0594 -1.1828 -0.5153
   43MOL   H27230596   1.309   1.553   6.878 -0.0215  0.0090 -1.1028
   43MOL   H27330597   1.157   1.737   6.869 -0.0862 -0.0694  0.7165
   43MOL   H27430598   1.341   2.110   6.685 -1.0480  2.9016 -0.8432
   43MOL   H27530599   1.227   2.259   6.603  1.1112  0.9820  0.5009
   43MOL   H27630600   1.079   2.178   6.664 -0.9223  0.6603  1.7928
   43MOL   H27730601   1.251   2.353   6.839  0.9200  0.0584 -1.4412
   43MOL   H27830602   1.083   2.293   6.869  1.4099 -1.8697  0.7598
   43MOL   H27930603   1.109   2.488   6.646  1.3658 -1.1721  0.0600
   43MOL   H28030604   0.974   2.417   6.725  0.9675 -0.6966 -1.2046
   43MOL   H28130605   1.173   2.634   6.839 -1.8281  2.9580 -3.9898
   43MOL   H28230606   1.038   2.563   6.925 -0.3408  0.2822  0.0867
   43MOL   H28330607   0.869   2.666   6.769  0.0610 -0.0263  1.5169
   43MOL   H28430608   1.014   2.704   6.673  0.4672  1.1195 -0.5631
   43MOL   H28530609   0.893   2.895   6.812  1.5185  1.3926  0.2580
   43MOL   H28630610   0.906   2.785   6.949  0.3862 -0.2674  1.5360
   43MOL   H28730611   1.158   2.846   6.931  1.5275  1.5016 -0.7876
   43MOL   H28830612   1.484   2.010   6.790  0.0986  0.2402 -2.2429
   43MOL   H28930613   1.648   1.827   6.815 -0.3598  0.4423 -1.0994
   43MOL   C29030614   1.095   3.023   6.865  0.1839  0.1124  0.0108
   43MOL   O29130615   1.026   3.083   6.782 -0.0990 -0.1607  0.2809
   43MOL   C29230616   1.214   3.091   6.927 -0.2730 -0.5092 -0.3160
   43MOL   C29330617   1.336   3.015   6.927 -0.1198  0.4895 -0.1409
   43MOL   C29430618   1.465   3.071   6.955  0.0070 -0.2838  0.1185
   43MOL   C29530619   1.462   3.206   7.000  0.8324 -0.4376 -0.5527
   43MOL   C29630620   1.590   3.266   7.057 -0.0986 -0.8612 -0.2172
   43MOL   O29730621   1.597   3.368   7.128  0.1539 -0.1615  0.1678
   43MOL   N29830622   1.701   3.199   7.022 -0.2849 -0.2256  0.1484
   43MOL   C29930623   1.836   3.210   7.072  0.2884  0.1936 -0.6036
   43MOL   C30030624   1.849   3.096   7.171 -0.3354 -0.3079 -0.2364
   43MOL   C30130625   1.993   3.071   7.227  0.0912 -0.5488  0.2655
   43MOL   C30230626   2.002   2.950   7.323  0.0907 -0.2487 -0.3496
   43MOL   C30330627   2.142   2.935   7.371 -0.0865 -0.2143  0.1370
   43MOL   C30430628   2.159   2.844   7.492  0.2185 -0.0144 -0.5765
   43MOL   N30530629   2.285   2.852   7.546  0.6222 -0.3445 -0.3367
   43MOL   C30630630   1.343   3.280   7.007  0.0349 -0.5187  0.0916
   43MOL   C30730631   1.212   3.224   6.970 -0.7050 -0.0199  0.1871
   43MOL   H30830632   1.333   2.914   6.889 -1.2004  0.4271  0.0869
   43MOL   H30930633   1.553   3.008   6.949  1.3889  1.6413 -0.3859
   43MOL   H31030634   1.685   3.120   6.961  1.3862 -0.8475  0.5006
   43MOL   H31130635   1.912   3.204   6.993 -0.5293  0.3877 -1.4165
   43MOL   H31230636   1.852   3.308   7.117  0.8528 -0.4600  0.6088
   43MOL   H31330637   1.806   3.004   7.132  1.2142 -0.9202 -0.5419
   43MOL   H31430638   1.781   3.123   7.252  1.0741  1.2815  0.4408
   43MOL   H31530639   2.050   3.051   7.137 -0.5138 -1.1118  0.0063
   43MOL   H31630640   2.033   3.162   7.273  0.2764  1.1601 -3.1618
   43MOL   H31730641   1.962   2.854   7.289 -3.0879  0.4677  1.2059
   43MOL   H31830642   1.936   2.957   7.409  0.0857 -1.6783 -0.2126
   43MOL   H31930643   2.198   3.025   7.396 -0.4956  0.5029 -1.4267
   43MOL   H32030644   2.212   2.895   7.297 -1.1417 -2.3028  0.2269
   43MOL   H32130645   2.081   2.860   7.566 -0.6014 -0.6281 -1.3025
   43MOL   H32230646   2.135   2.743   7.459 -1.6316  0.0257  0.5474
   43MOL   H32330647   2.358   2.882   7.483  0.2579  0.9930 -0.1382
   43MOL   H32430648   1.345   3.382   7.041 -0.2913 -1.3823  2.7960
   43MOL   H32530649   1.115   3.272   6.964 -0.5779 -0.0370 -2.9113
   43MOL   C32630650   2.321   2.860   7.674  0.4187  0.2897  0.9709
   43MOL   O32730651   2.240   2.858   7.760 -0.1873 -0.4692  0.0462
   43MOL   C32830652   2.474   2.884   7.701 -0.5347 -0.0665  0.4275
   43MOL   C32930653   2.506   2.935   7.829  0.4038 -0.6892 -0.0808
   43MOL   C33030654   2.639   2.953   7.862  0.3430 -0.5695  0.4979
   43MOL   C33130655   2.739   2.930   7.767  0.2629 -0.2648 -0.7780
   43MOL   C33230656   2.881   2.950   7.802  0.0422  0.9282 -0.1124
   43MOL   O33330657   2.912   3.024   0.009  0.0783  0.5047  0.2280
   43MOL   N33430658   2.971   2.895   7.718 -0.0769  0.3881 -0.2511
   43MOL   C33530659   3.115   2.915   7.727 -0.2599  0.5046 -0.0787
   43MOL   C33630660   3.183   2.839   7.840  0.8958  0.1383 -0.0399
   43MOL   C33730661   3.325   2.819   7.806  0.0088 -0.4398  0.3197
   43MOL   C33830662   3.402   2.719   0.007 -0.2916 -0.0906  0.1764
   43MOL   C33930663   3.526   2.675   7.814  0.4010  0.0812  0.3028
   43MOL   C34030664   3.615   2.569   7.867 -0.7063  0.7444  0.1619
   43MOL   N34130665   3.683   2.605   0.107 -0.4195 -0.1711  0.2221
   43MOL   C34230666   2.701   2.869   7.646  0.0110 -0.2647 -0.2151
   43MOL   C34330667   2.573   2.850   7.610  0.2749 -0.4045 -0.0233
   43MOL   H34430668   2.432   2.943   0.020 -0.6839 -1.4751 -1.0335
   43MOL   H34530669   2.662   2.990   0.075 -0.8173 -0.9263  0.9162
   43MOL   H34630670   2.933   2.838   7.644 -2.2504  0.8192  0.5019
   43MOL   H34730671   3.153   2.878   7.632  0.8795  1.4409  0.0011
   43MOL   H34830672   3.129   3.023   7.726 -1.1572  0.6412  1.2140
   43MOL   H34930673   3.132   2.744   7.852  0.5134  0.3232 -0.1691
   43MOL   H35030674   3.163   2.893   0.047  0.1210 -0.1089 -0.0540
   43MOL   H35130675   3.339   2.794   7.701 -0.2590  1.7292 -0.2436
   43MOL   H35230676   3.375   2.913   7.827  2.8150 -1.8024  0.0250
   43MOL   H35330677   3.351   2.628   0.041 -0.4667  0.0543  0.3037
   43MOL   H35430678   3.432   2.765   0.101 -0.7037 -0.9383  0.7355
   43MOL   H35530679   3.590   2.760   7.789  1.1593 -0.1901  1.2790
   43MOL   H35630680   3.493   2.640   7.716 -0.0579  0.6175  0.2604
   43MOL   H35730681   3.560   2.476   7.885 -2.0833  1.5457  0.2107
   43MOL   H35830682   3.694   2.522   7.809 -1.4085 -0.0673 -0.1596
   43MOL   H35930683   3.668   2.696   0.148  0.7249  0.0089  0.2677
   43MOL   H36030684   2.774   2.839   7.572  0.0940 -0.3803 -0.0874
   43MOL   H36130685   2.552   2.796   7.519 -1.0267  0.2602 -0.1199
   43MOL   C36230686   3.778   2.532   0.164 -0.4883  0.5973 -0.6093
   43MOL   O36330687   3.817   2.420   0.127 -0.1354 -0.6373  0.0235
   43MOL   C36430688   3.851   2.586   0.285  0.3935 -0.3730  0.1062
   43MOL   C36530689   3.918   2.501   0.378 -0.1559 -0.2748 -0.5985
   43MOL   C36630690   3.982   2.554   0.491 -0.0914  0.8401 -1.0065
   43MOL   C36730691   3.989   2.695   0.501 -0.1772  0.1705  0.6263
   43MOL   C36830692   4.059   2.747   0.620 -0.7225  0.6816  0.2675
   43MOL   O36930693   4.076   2.670   0.714 -0.2172  0.2204  0.5139
   43MOL   N37030694   4.087   2.877   0.631 -0.2665  0.6016 -0.1699
   43MOL   C37130695   4.126   2.944   0.756  0.1124 -0.0057 -0.1929
   43MOL   C37230696   4.011   3.001   0.843 -0.5210 -0.7733 -0.3743
   43MOL   C37330697   3.909   3.078   0.751 -0.1267 -0.5059 -0.1983
   43MOL   C37430698   3.790   2.994   0.688 -0.1423 -0.2683  0.7482
   43MOL   C37530699   3.709   3.072   0.576 -0.4067  0.1246  0.0401
   43MOL   C37630700   3.596   2.986   0.531  0.1314  0.4828 -0.2825
   43MOL   N37730701   3.511   3.055   0.429  0.7802  0.1371  0.2846
   43MOL   C37830702   3.920   2.776   0.412 -0.1850  0.5874 -0.5317
   43MOL   C37930703   3.847   2.724   0.306 -0.0378  0.0937  0.2331
   43MOL   H38030704   3.920   2.394   0.360  0.6378 -0.0908 -1.6422
   43MOL   H38130705   4.027   2.487   0.563 -0.2986  2.5594  0.7950
   43MOL   H38230706   4.080   2.930   0.546  0.6586  0.3300 -0.4216
   43MOL   H38330707   4.185   2.881   0.822 -2.0557 -1.2080  0.6386
   43MOL   H38430708   4.193   3.024   0.723  0.4031  0.3503  1.2586
   43MOL   H38530709   4.052   3.072   0.915 -2.7544  1.2553 -1.0430
   43MOL   H38630710   3.957   2.930   0.906 -1.7586  0.6741  0.2251
   43MOL   H38730711   3.858   3.155   0.809 -0.8046 -0.8491 -0.3416
   43MOL   H38830712   3.960   3.135   0.674  0.2079  1.4815  1.4312
   43MOL   H38930713   3.719   2.974   0.767 -0.9301 -3.0742 -0.6187
   43MOL   H39030714   3.809   2.893   0.651  0.4284  1.1755 -3.1077
   43MOL   H39130715   3.779   3.106   0.500 -1.6260 -0.7691 -1.5110
   43MOL   H39230716   3.679   3.168   0.619 -1.8754  0.3801 -1.5304
   43MOL   H39330717   3.640   2.893   0.494  0.5247  1.4333 -2.3144
   43MOL   H39430718   3.540   2.955   0.619  0.1026 -0.6278 -0.6925
   43MOL   H39530719   3.439   3.116   0.465  2.2490  1.2585  1.4036
   43MOL   H39630720   3.911   2.883   0.426 -0.9658  0.5651 -0.8025
   43MOL   H39730721   3.790   2.783   0.235  2.5115 -0.3823 -2.2873
   43MOL   C39830722   3.536   3.051   0.302 -0.3584  0.3798  0.0757
   43MOL   O39930723   3.639   2.998   0.260 -0.1019  0.7815  0.3334
   43MOL   C40030724   3.436   3.125   0.219  0.1749  0.0257  0.1978
   43MOL   C40130725   3.467   3.164   0.090 -0.3557 -0.4661 -0.7599
   43MOL   C40230726   3.371   3.222   0.005 -0.0678  0.4702 -0.0691
   43MOL   C40330727   3.239   3.246   0.050 -0.2457 -0.2324  0.4394
   43MOL   C40430728   3.142   3.331   7.861 -0.3291 -0.5019  1.4903
   43MOL   O40530729   3.179   3.405   7.771  0.0851  0.4461 -0.3067
   43MOL   N40630730   3.017   3.314   0.011  0.1498  0.4007  0.1160
   43MOL   C40730731   2.902   3.397   7.845 -0.0135 -0.0115 -0.6751
   43MOL   C40830732   2.773   3.308   7.829  0.0836 -0.2827  0.0390
   43MOL   C40930733   2.655   3.380   7.761 -0.7641  0.0537 -0.5396
   43MOL   C41030734   2.540   3.284   7.754 -1.0720  0.3515  0.0465
   43MOL   C41130735   2.423   3.340   7.675  0.1992 -0.4807  0.1502
   43MOL   C41230736   2.306   3.245   7.668  0.1188  0.5244  0.6591
   43MOL   N41330737   2.192   3.321   7.613  0.4017  0.0706 -0.3808
   43MOL   C41430738   3.208   3.201   0.180 -0.5148  0.2304 -0.0369
   43MOL   C41530739   3.305   3.144   0.263 -0.4463 -0.5881 -0.1758
   43MOL   H41630740   3.570   3.162   0.060 -0.5162 -1.7899 -1.2431
   43MOL   H41730741   3.403   3.266   7.798 -0.5525 -0.4585 -0.6830
   43MOL   H41830742   3.005   3.237   0.074 -2.7866  1.4052  0.8630
   43MOL   H41930743   2.878   3.480   0.025  0.0302 -0.1280 -0.5110
   43MOL   H42030744   2.929   3.440   7.749 -2.2199 -0.7167 -1.6524
   43MOL   H42130745   2.742   3.276   0.042 -2.6909  0.3394 -0.5778
   43MOL   H42230746   2.806   3.222   7.770  1.0910  0.8149 -1.0535
   43MOL   H42330747   2.620   3.463   7.822 -2.9476 -0.1819 -1.4087
   43MOL   H42430748   2.688   3.414   7.663 -1.0467  1.1132 -0.2784
   43MOL   H42530749   2.508   3.252   7.853 -0.7333 -1.3560 -0.3831
   43MOL   H42630750   2.562   3.190   7.703 -3.0847 -0.3373  0.3937
   43MOL   H42730751   2.449   3.369   7.574  0.8462 -0.9249  0.1889
   43MOL   H42830752   2.379   3.427   7.725  0.2351 -0.0503 -0.5553
   43MOL   H42930753   2.324   3.172   7.590  1.1477  2.2529 -0.7551
   43MOL   H43030754   2.283   3.214   7.770 -2.0669  1.4705  0.4890
   43MOL   H43130755   2.211   3.414   7.579 -0.0660  0.4730  0.4616
   43MOL   H43230756   3.112   3.237   0.215  0.1406  3.2434 -1.1625
   43MOL   H43330757   3.278   3.136   0.367 -0.2730 -1.6615 -0.2064
   43MOL   C43430758   2.073   3.266   7.581 -0.4755 -0.2215 -0.6585
   43MOL   O43530759   2.050   3.146   7.603  0.1697 -0.2992 -0.2005
   43MOL   C43630760   1.972   3.364   7.544 -0.2884  0.1730  0.1312
   43MOL   C43730761   1.867   3.324   7.462 -1.0499 -0.1586  0.9983
   43MOL   C43830762   1.765   3.412   7.424  0.3751 -0.2017 -0.6117
   43MOL   C43930763   1.769   3.545   7.468  0.2301 -0.0534  0.8956
   43MOL   C44030764   1.669   3.646   7.423  0.6037  0.3702  0.2119
   43MOL   O44130765   1.673   3.760   7.460 -0.2902 -0.5116 -0.1213
   43MOL   N44230766   1.580   3.601   7.333  0.6361  0.4180 -0.2443
   43MOL   C44330767   1.479   3.679   7.262 -0.1206 -0.4618 -0.4102
   43MOL   C44430768   1.352   3.675   7.352  0.3341 -0.0790  0.5691
   43MOL   C44530769   1.290   3.540   7.336 -0.4027  0.9149 -0.5191
   43MOL   C44630770   1.154   3.521   7.406  0.0035 -0.6295 -0.7036
   43MOL   C44730771   1.062   3.647   7.411 -0.3339 -0.3795 -0.3338
   43MOL   C44830772   0.927   3.607   7.469 -0.0871 -0.0320 -0.4532
   43MOL   N44930773   0.839   3.718   7.467 -0.1432  0.0872 -0.0574
   43MOL   C45030774   1.868   3.592   7.555 -0.2280  0.0338 -0.9511
   43MOL   C45130775   1.966   3.500   7.593  0.1319  0.2265  0.3329
   43MOL   H45230776   1.862   3.221   7.432 -3.4094  0.6155 -1.4843
   43MOL   H45330777   1.689   3.378   7.356 -0.0641 -1.7619  0.6397
   43MOL   H45430778   1.595   3.511   7.290  1.5778 -0.0302  0.9862
   43MOL   H45530779   1.513   3.782   7.247 -1.0575 -0.0471  0.2253
   43MOL   H45630780   1.460   3.629   7.168 -0.8504  0.2300 -0.6372
   43MOL   H45730781   1.288   3.754   7.312 -1.0570 -0.3274  2.2615
   43MOL   H45830782   1.370   3.703   7.456  2.5881 -2.7310  0.9748
   43MOL   H45930783   1.281   3.524   7.229 -1.9909 -0.2593 -0.2297
   43MOL   H46030784   1.363   3.464   7.363 -0.8036  0.3311 -1.0446
   43MOL   H46130785   1.172   3.482   7.506  0.1840 -1.0032 -0.8780
   43MOL   H46230786   1.103   3.440   7.354 -0.5955 -0.4684 -0.3650
   43MOL   H46330787   1.057   3.683   7.308  1.0361 -2.0675 -1.0092
   43MOL   H46430788   1.111   3.727   7.467 -0.6899 -0.6779  0.4163
   43MOL   H46530789   0.891   3.532   7.398 -1.0951  0.1958 -0.1937
   43MOL   H46630790   0.932   3.562   7.568 -0.0676  0.2659 -0.3186
   43MOL   H46730791   0.873   3.794   7.524  0.0638  0.0902 -0.1867
   43MOL   H46830792   1.865   3.693   7.595  2.0496 -0.4596  0.5347
   43MOL   H46930793   2.036   3.544   7.662 -0.7533  0.5978  1.0026
   43MOL   C47030794   0.716   3.716   7.409 -0.0877 -0.8987  0.0334
   43MOL   O47130795   0.667   3.629   7.340  0.1038  0.0569 -0.1099
   43MOL   C47230796   0.631   3.840   7.444 -0.0978 -0.2701  0.7621
   43MOL   C47330797   0.680   3.958   7.515  0.2841 -0.7350 -0.1164
   43MOL   C47430798   0.592   4.068   7.541  0.4831  1.2603 -0.2919
   43MOL   C47530799   0.460   4.063   7.506 -0.7975  0.3630 -0.6535
   43MOL   C47630800   0.364   4.177   7.527  0.3825  0.3778  0.0549
   43MOL   O47730801   0.242   4.159   7.514 -0.2688 -0.2555 -0.5060
   43MOL   N47830802   0.413   4.298   7.559 -0.3612 -0.7383 -0.4280
   43MOL   C47930803   0.321   4.412   7.578 -0.5968  0.0555 -0.3913
   43MOL   C48030804   0.393   4.546   7.597 -0.4937 -0.4025  0.1200
   43MOL   C48130805   0.518   4.555   7.510 -0.0835  0.0823 -0.2438
   43MOL   C48230806   0.587   4.690   7.522 -0.1937  0.0235 -0.0369
   43MOL   C48330807   0.695   4.720   7.415 -0.6334 -0.1707 -0.0306
   43MOL   C48430808   0.757   4.861   7.441 -0.2226  0.4166 -0.5407
   43MOL   N48530809   0.879   4.895   7.368  0.5087  0.3671  0.4503
   43MOL   C48630810   0.409   3.953   7.437  0.2043  0.3507  0.5226
   43MOL   C48730811   0.493   3.843   7.402 -0.0854 -0.4519  0.3641
   43MOL   H48830812   0.782   3.963   7.550 -0.4913 -0.4733  2.1501
   43MOL   H48930813   0.632   4.152   7.595 -1.1728  1.1319  1.1622
   43MOL   H49030814   0.508   4.298   7.594  0.5056  0.3621 -2.7154
   43MOL   H49130815   0.258   4.419   7.490 -0.9637 -0.5528 -0.1841
   43MOL   H49230816   0.259   4.381   7.663 -1.7674 -1.0469 -1.6199
   43MOL   H49330817   0.420   4.559   7.702  3.4737 -0.7187 -0.7913
   43MOL   H49430818   0.326   4.628   7.574  1.1413  1.3720  1.5453
   43MOL   H49530819   0.593   4.482   7.539  0.3972  0.5363 -0.3477
   43MOL   H49630820   0.498   4.534   7.405 -1.2393 -0.1135 -0.0003
   43MOL   H49730821   0.616   4.702   7.626 -1.4890 -0.7939  0.4309
   43MOL   H49830822   0.517   4.772   7.504 -0.4091 -0.7235 -2.8154
   43MOL   H49930823   0.663   4.702   7.312  0.8403  0.1930 -0.5811
   43MOL   H50030824   0.779   4.653   7.431  0.8255  1.2151 -1.5949
   43MOL   H50130825   0.687   4.939   7.408  0.6140  1.1190 -0.6633
   43MOL   H50230826   0.770   4.867   7.549  3.1464  0.4679 -0.9139
   43MOL   H50330827   0.933   4.821   7.326  2.4734  2.1457 -0.1986
   43MOL   H50430828   0.305   3.951   7.409  0.3962  0.5023 -0.2021
   43MOL   H50530829   0.454   3.758   7.347  0.4287  1.7058 -3.4648
   43MOL   C50630830   0.918   5.020   7.334 -0.1970  0.5975  0.4339
   43MOL   O50730831   0.847   5.120   7.357  0.0057 -0.2464 -0.1870
   43MOL   C50830832   1.054   5.035   7.270  0.5788 -0.6932 -0.4994
   43MOL   C50930833   1.119   4.920   7.212  0.1941 -0.0174  0.2676
   43MOL   C51030834   1.238   4.935   7.150 -0.2695  0.2894 -0.5202
   43MOL   C51130835   1.310   5.062   7.150 -0.0456  0.3907 -0.6559
   43MOL   C51230836   1.442   5.078   7.075  0.7366 -0.4891  0.3182
   43MOL   O51330837   1.494   5.188   7.069  0.1500  0.4779 -0.4384
   43MOL   N51430838   1.496   4.967   7.026  1.0532 -0.0284  0.3281
   43MOL   C51530839   1.610   4.974   6.937 -0.1787  0.7851  0.2314
   43MOL   C51630840   1.631   4.838   6.872  0.2709  0.2357 -0.1586
   43MOL   C51730841   1.503   4.790   6.804 -0.3885  0.4497  0.7365
   43MOL   C51830842   1.517   4.696   6.677  0.4088 -0.3444  0.2297
   43MOL   C51930843   1.611   4.574   6.692  0.2026 -0.5303  0.1163
   43MOL   C52030844   1.528   4.461   6.764 -0.0696  0.1268  0.3297
   43MOL   N52130845   1.494   4.501   6.897 -0.6270 -0.4013 -0.6327
   43MOL   C52230846   1.248   5.168   7.215  0.2401 -0.1651  0.0349
   43MOL   C52330847   1.125   5.158   7.274 -0.1244 -0.1193 -0.9600
   43MOL   H52430848   1.066   4.826   7.201 -0.9934  0.6491  0.1923
   43MOL   H52530849   1.276   4.847   7.102 -1.6036 -0.8500  0.4926
   43MOL   H52630850   1.441   4.882   7.022 -1.2852  1.3890  0.8741
   43MOL   H52730851   1.590   5.040   6.853  1.5147 -0.3225 -1.0815
   43MOL   H52830852   1.704   5.017   6.973 -0.1217 -0.3808  1.5283
   43MOL   H52930853   1.668   4.759   6.938 -2.6040  0.5357  1.8888
   43MOL   H53030854   1.706   4.865   6.798  0.3399  0.1908 -0.1050
   43MOL   H53130855   1.448   4.736   6.881 -0.5430  2.5803  2.1420
   43MOL   H53230856   1.436   4.874   6.787  0.7214  1.4972  1.4756
   43MOL   H53330857   1.546   4.765   6.598 -0.8953 -1.1954 -1.0213
   43MOL   H53430858   1.415   4.676   6.646 -0.0888  2.9860 -0.4292
   43MOL   H53530859   1.707   4.589   6.741 -0.2514  0.5882  0.6800
   43MOL   H53630860   1.649   4.537   6.597 -2.1204 -0.6025 -0.8279
   43MOL   H53730861   1.443   4.450   6.697  0.6410  4.8564 -1.5922
   43MOL   H53830862   1.594   4.374   6.772  1.8035  1.3057 -1.6875
   43MOL   H53930863   1.547   4.577   6.937 -1.6890  1.5930 -2.9374
   43MOL   H54030864   1.310   5.256   7.225  1.6576 -1.3476  2.1235
   43MOL   H54130865   1.087   5.247   7.323  0.4869 -0.5867  0.3687
   43MOL   C54230866   1.395   4.447   6.968 -0.2518  0.0014  0.2399
   43MOL   O54330867   1.314   4.365   6.924 -0.3772  0.8108 -0.3461
   43MOL   C54430868   1.374   4.517   7.098 -0.6389 -0.0244 -0.5678
   43MOL   C54530869   1.487   4.564   7.177  0.5208  0.5539  0.0837
   43MOL   C54630870   1.454   4.632   7.298 -1.2052 -0.0684  0.1255
   43MOL   C54730871   1.328   4.640   7.355  0.5763 -0.8093 -0.3542
   43MOL   C54830872   1.311   4.708   7.489 -0.2546 -0.5765 -0.4682
   43MOL   O54930873   1.251   4.649   7.575  0.3054 -0.4835 -0.3433
   43MOL   N55030874   1.361   4.833   7.501  0.3100 -0.0479  0.4282
   43MOL   C55130875   1.341   4.913   7.620  0.0838  0.0836  0.0483
   43MOL   C55230876   1.285   5.047   7.573  0.3149  0.1906  0.6228
   43MOL   C55330877   1.252   5.130   7.699  0.4622 -0.1345  0.2382
   43MOL   C55430878   1.180   5.263   7.664 -1.2344  0.2188 -0.5467
   43MOL   C55530879   1.029   5.243   7.660 -0.1365 -1.0347 -0.2307
   43MOL   C55630880   0.957   5.254   7.797 -0.0545 -0.2932 -0.4882
   43MOL   N55730881   0.822   5.201   7.798 -0.3429  0.3094 -0.4816
   43MOL   C55830882   1.220   4.586   7.279 -0.5014 -0.4665  0.9970
   43MOL   C55930883   1.243   4.529   7.149  0.2158 -0.3246 -0.2941
   43MOL   H56030884   1.591   4.569   7.146  0.3323 -1.3998 -0.9179
   43MOL   H56130885   1.534   4.670   7.360 -2.2304 -1.2646  2.2398
   43MOL   H56230886   1.410   4.868   7.420 -0.7086 -0.8424 -0.5634
   43MOL   H56330887   1.269   4.870   7.689 -1.4854  0.3916 -1.3740
   43MOL   H56430888   1.437   4.918   7.671 -0.9474 -0.8109  2.1194
   43MOL   H56530889   1.203   5.048   7.502  0.7974 -2.3783 -0.0337
   43MOL   H56630890   1.363   5.102   7.519  1.7364 -2.3231  0.0219
   43MOL   H56730891   1.189   5.079   7.772  0.0991  1.2492  0.8970
   43MOL   H56830892   1.340   5.142   7.762 -1.4356 -1.2653  3.2281
   43MOL   H56930893   1.219   5.292   7.566  0.4847 -1.9686 -0.5535
   43MOL   H57030894   1.212   5.341   7.733 -0.6697  0.4513 -1.0590
   43MOL   H57130895   1.029   5.140   7.624  0.2105 -1.2711  0.4476
   43MOL   H57230896   0.984   5.305   7.582  1.6247 -1.9754 -2.0492
   43MOL   H57330897   1.017   5.202   7.872  0.7709  0.6550 -0.4761
   43MOL   H57430898   0.961   5.357   7.834  0.3259 -0.6814  0.5671
   43MOL   H57530899   0.808   5.103   7.814 -2.2910  0.3832 -1.5493
   43MOL   H57630900   1.123   4.585   7.325 -0.0134  0.1040  2.0761
   43MOL   H57730901   1.151   4.506   7.099 -1.6196  0.7828  2.4632
   43MOL   C57830902   0.720   5.270   7.741 -0.7170  0.3374  0.7511
   43MOL   O57930903   0.732   5.386   7.702  0.2774 -0.5348 -0.0123
   43MOL   C58030904   0.599   5.191   7.704 -0.4996 -1.0407  0.3548
   43MOL   C58130905   0.601   5.053   7.721 -0.0849 -1.1328  0.0770
   43MOL   C58230906   0.486   4.978   7.703 -0.2747 -0.4762 -0.0371
   43MOL   C58330907   0.370   5.042   7.655 -0.5564 -0.3910  0.3142
   43MOL   C58430908   0.237   4.966   7.641 -0.4523 -0.4281 -0.2785
   43MOL   O58530909   0.216   4.874   7.715 -0.1694  0.0859  0.0156
   43MOL   N58630910   0.151   5.019   7.554 -0.3109  0.4170 -0.4745
   43MOL   C58730911   0.016   4.965   7.532 -0.5029  0.2158  0.9118
   43MOL   C58830912   7.873   4.932   7.385 -0.5072 -0.1418  0.2046
   43MOL   C58930913   7.722   4.899   7.366 -0.1702  0.3725 -0.3370
   43MOL   C59030914   7.686   4.859   7.223  0.0332  0.1175  0.0866
   43MOL   C59130915   7.534   4.813   7.218  0.1568 -0.5899  0.2708
   43MOL   C59230916   7.483   4.787   7.065  0.4364  0.4889  0.0950
   43MOL   N59330917   7.339   4.758   7.080  0.5204 -0.0531 -0.1095
   43MOL   C59430918   0.374   5.182   7.627 -0.0582 -0.4362 -0.0256
   43MOL   C59530919   0.484   5.258   7.661 -0.9306 -0.5355  0.0207
   43MOL   H59630920   0.685   4.996   7.757 -0.1092 -0.5457  1.0624
   43MOL   H59730921   0.490   4.871   7.721 -0.0647 -0.6140 -0.8688
   43MOL   H59830922   0.173   5.097   7.495  0.1382  0.7086  0.0760
   43MOL   H59930923   7.876   4.880   7.595 -0.4208 -0.6390 -0.1854
   43MOL   H60030924   7.832   5.039   7.569 -1.4143 -0.2752  0.1928
   43MOL   H60130925   0.052   4.854   7.345 -0.0055  0.1937  0.3592
   43MOL   H60230926   0.013   5.017   7.321  0.9321 -0.7063  0.0350
   43MOL   H60330927   7.686   4.836   7.447  0.9399 -0.8428 -0.7728
   43MOL   H60430928   7.666   4.990   7.389  0.3766  0.2946  1.2924
   43MOL   H60530929   7.749   4.778   7.187  0.5107  0.8545 -0.7622
   43MOL   H60630930   7.700   4.947   7.160  1.1647 -0.1837 -0.0816
   43MOL   H60730931   7.474   4.887   7.271 -0.5726 -0.8758 -0.1449
   43MOL   H60830932   7.525   4.721   7.277 -0.3469 -0.3992  0.4940
   43MOL   H60930933   7.493   4.881   7.011 -0.3793  0.7056  0.3203
   43MOL   H61030934   7.533   4.716   6.999 -0.5696 -1.5850  1.4999
   43MOL   H61130935   7.291   4.764   7.169  1.1142  0.8685  0.1564
   43MOL   H61230936   0.285   5.226   7.583  0.7727  0.9823 -0.2899
   43MOL   H61330937   0.491   5.364   7.644 -0.0667 -0.6741 -0.5070
   43MOL   C61430938   7.268   4.719   6.975 -0.6625 -0.5557  0.4018
   43MOL   O61530939   7.312   4.679   6.871  0.7418 -0.1473  0.1449
   43MOL   C61630940   7.120   4.722   7.001  0.0378 -0.4451  0.5764
   43MOL   C61730941   7.050   4.841   6.966  0.1776  0.6536 -0.0112
   43MOL   C61830942   6.911   4.849   7.000 -0.3357 -0.0922  0.2072
   43MOL   C61930943   6.838   4.739   7.057 -0.7989 -0.0879 -0.2962
   43MOL   C62030944   6.698   4.741   7.091 -0.1424 -0.7559 -0.2921
   43MOL   O62130945   6.648   4.852   7.129  0.2174 -0.0528  0.0322
   43MOL   N62230946   6.629   4.626   7.084 -0.1646  0.1415 -0.4890
   43MOL   C62330947   6.499   4.608   7.141 -0.3065 -0.7617  0.3762
   43MOL   C62430948   6.473   4.457   7.158 -0.5202  0.0496  0.5182
   43MOL   C62530949   6.499   4.378   7.033 -0.4528  0.6445  0.2762
   43MOL   C62630950   6.430   4.244   7.027  0.2270 -0.2481  0.9284
   43MOL   C62730951   6.368   4.204   6.887  0.1267  0.0469 -0.2541
   43MOL   C62830952   6.312   4.056   6.891  0.9394 -0.0827  0.4620
   43MOL   N62930953   6.258   4.004   6.760  0.7952 -0.1929 -0.1118
   43MOL   C63030954   6.911   4.616   7.083  0.1315  0.3686 -0.4584
   43MOL   C63130955   7.044   4.609   7.048  0.3993 -0.5393 -0.3379
   43MOL   H63230956   7.092   4.924   6.912  0.1680  1.4397  1.1648
   43MOL   H63330957   6.853   4.938   6.979  0.3009 -0.2577 -2.4919
   43MOL   H63430958   6.671   4.539   7.054 -0.2164  0.4100 -1.3750
   43MOL   H63530959   6.492   4.658   7.238 -3.2130 -0.7311  0.2189
   43MOL   H63630960   6.423   4.657   7.080 -0.7829 -2.3953 -0.4005
   43MOL   H63730961   6.367   4.440   7.176 -1.1601  1.0115 -2.1262
   43MOL   H63830962   6.532   4.409   7.237 -0.0402 -0.8614 -0.3852
   43MOL   H63930963   6.452   4.433   6.952 -0.4929 -2.7955 -2.1772
   43MOL   H64030964   6.605   4.359   7.018 -1.0264 -1.2268 -1.7164
   43MOL   H64130965   6.354   4.232   7.105  0.1247  0.8684  1.0178
   43MOL   H64230966   6.496   4.160   7.048 -1.6874 -2.6060 -2.1167
   43MOL   H64330967   6.438   4.216   6.804  0.8955  0.3197  0.4225
   43MOL   H64430968   6.279   4.267   6.879 -0.7281 -1.0033  0.8344
   43MOL   H64530969   6.380   3.985   6.937 -0.6636 -0.2221  2.6549
   43MOL   H64630970   6.227   4.065   6.959  1.0362  0.6644  0.4884
   43MOL   H64730971   6.164   3.967   6.754  0.2887  0.4322  3.2457
   43MOL   H64830972   6.883   4.528   7.139  0.5377 -1.2151 -2.6676
   43MOL   H64930973   7.093   4.514   7.065 -0.2067 -0.5910  1.2063
   43MOL   C65030974   6.342   3.975   6.661 -0.4667 -0.8095  0.4683
   43MOL   O65130975   6.462   3.989   6.675  0.1987 -0.2851  0.2906
   43MOL   C65230976   6.280   3.916   6.543 -0.0744  0.8014 -0.1293
   43MOL   C65330977   6.174   3.971   6.479  0.8885 -1.2516  0.0250
   43MOL   C65430978   6.102   3.900   6.382  0.1890 -0.2619 -0.7811
   43MOL   C65530979   6.140   3.772   6.346  0.0002  0.0234  0.3593
   43MOL   C65630980   6.060   3.702   6.247  0.1433 -0.3339 -0.2420
   43MOL   O65730981   5.977   3.771   6.191 -0.4409 -0.0830 -0.2379
   43MOL   N65830982   6.073   3.570   6.245 -0.3429  0.1462 -0.1194
   43MOL   C65930983   5.975   3.470   6.203  0.1336  0.1171  0.4616
   43MOL   C66030984   5.975   3.345   6.293 -0.1844 -0.5945 -0.4828
   43MOL   C66130985   5.867   3.243   6.248 -0.1093 -1.2640  0.1879
   43MOL   C66230986   5.885   3.107   6.315  0.4120 -0.1833 -0.1497
   43MOL   C66330987   5.775   3.009   6.262 -0.4053 -0.3114 -0.3250
   43MOL   C66430988   5.799   2.859   6.297  0.6035  0.3463  0.1384
   43MOL   N66530989   5.838   2.832   6.433 -0.1574  0.1836  0.1460
   43MOL   C66630990   6.268   3.727   6.398  0.3937  0.2391  0.2159
   43MOL   C66730991   6.339   3.801   6.494  0.1933  0.2387 -0.7369
   43MOL   H66830992   6.145   4.073   6.498 -1.0373 -1.8536  0.4025
   43MOL   H66930993   6.017   3.949   6.337  0.6757  1.7870  0.4360
   43MOL   H67030994   6.145   3.527   6.302 -1.0991 -1.0700 -0.0748
   43MOL   H67130995   5.874   3.510   6.206  0.0405  0.0751 -1.4212
   43MOL   H67230996   5.998   3.447   6.099  0.1984 -1.3058  0.7840
   43MOL   H67330997   5.945   3.376   6.393  0.4765  0.3485 -0.5747
   43MOL   H67430998   6.071   3.294   6.298 -0.0967 -0.1833  3.2072
   43MOL   H67530999   5.770   3.292   6.252  0.6656  0.3367 -0.4372
   43MOL   H67631000   5.876   3.220   6.142 -0.2000 -1.3026  0.1889
   43MOL   H67731001   5.861   3.133   6.419 -2.3354  2.6291 -1.4104
   43MOL   H67831002   5.987   3.071   6.304  0.0323 -1.6578  0.9892
   43MOL   H67931003   5.769   3.025   6.154  0.7533 -2.3659 -0.7200
   43MOL   H68031004   5.675   3.035   6.296  0.8454  1.3639  2.3351
   43MOL   H68131005   5.707   2.806   6.273  0.7785 -0.3927  1.0518
   43MOL   H68231006   5.887   2.829   6.239  0.0206 -0.4461 -0.3382
   43MOL   H68331007   5.858   2.909   6.495 -0.0106 -0.3946  0.8140
   43MOL   H68431008   6.311   3.636   6.358 -2.7852 -0.1395 -2.5606
   43MOL   H68531009   6.433   3.766   6.534  1.1376  2.6512 -0.8169
   43MOL   C68631010   5.818   2.712   6.491  0.3528  0.5428 -0.9336
   43MOL   O68731011   5.788   2.610   6.428  0.4650 -0.4745 -0.5656
   43MOL   C68831012   5.837   2.702   6.635  0.5838  0.1023  1.2060
   43MOL   C68931013   5.928   2.779   6.708 -0.0892  0.6956 -0.1082
   43MOL   C69031014   5.954   2.759   6.843 -0.0318 -0.4835 -0.9167
   43MOL   C69131015   5.895   2.650   6.913 -0.1511  0.5631  0.4807
   43MOL   C69231016   5.921   2.631   7.061  0.5802 -0.7520 -0.2000
   43MOL   O69331017   6.031   2.641   7.117  0.6842  0.2673 -0.0178
   43MOL   N69431018   5.811   2.621   7.135 -0.1324 -0.0197 -0.0379
   43MOL   C69531019   5.816   2.607   7.282  0.0518  0.1109 -0.1651
   43MOL   C69631020   5.810   2.737   7.364 -0.7550  0.0743 -0.3512
   43MOL   C69731021   5.808   2.706   7.512  0.4228 -0.0692  0.0885
   43MOL   C69831022   5.842   2.837   7.597 -0.1246  0.2157  0.0416
   43MOL   C69931023   5.821   2.809   7.751  0.5084  0.1175  0.0475
   43MOL   C70031024   5.671   2.784   7.781  0.1943  0.2430 -0.0213
   43MOL   N70131025   5.663   2.826   0.031 -0.1101 -0.8580 -0.6032
   43MOL   C70231026   5.808   2.563   6.838 -0.1438  0.6016 -0.0689
   43MOL   C70331027   5.787   2.587   6.699  0.4526  0.7887 -0.1552
   43MOL   H70431028   5.968   2.872   6.671  1.3591  0.7724  1.6203
   43MOL   H70531029   6.032   2.819   6.888 -1.3445  0.7233 -0.2235
   43MOL   H70631030   5.719   2.604   7.097 -0.4868  3.3895 -0.8625
   43MOL   H70731031   5.735   2.545   7.323  0.0592  0.6585  0.6883
   43MOL   H70831032   5.900   2.548   7.318  0.3349 -0.3996 -1.6413
   43MOL   H70931033   5.724   2.788   7.321 -0.5246  1.6788  1.0700
   43MOL   H71031034   5.896   2.800   7.342  0.6821 -2.0543 -1.0783
   43MOL   H71131035   5.708   2.669   7.532  0.9165 -0.7632  1.3511
   43MOL   H71231036   5.882   2.628   7.533  0.8116  0.4991  0.8525
   43MOL   H71331037   5.764   2.905   7.563 -0.0969  0.3591  0.2699
   43MOL   H71431038   5.939   2.883   7.577 -0.5591  0.6217 -1.1650
   43MOL   H71531039   5.860   2.900   7.796  1.6195 -0.3768  0.0904
   43MOL   H71631040   5.886   2.730   7.788  0.6844  1.7541  3.3955
   43MOL   H71731041   5.599   2.821   7.708  1.2803  0.0356 -1.2254
   43MOL   H71831042   5.657   2.677   7.766  1.5045  0.0520 -0.0069
   43MOL   H71931043   5.722   2.767   0.089 -0.4155  0.3634  1.0048
   43MOL   H72031044   5.754   2.479   6.880  0.2086  0.0854 -0.6258
   43MOL   H72131045   5.707   2.539   6.643  1.2682  1.1948 -1.6947
   43MOL   H72231046   5.700   2.920   0.041 -1.1511 -0.2846 -2.0826
   44MOL     C131047   4.191   4.478   0.755  0.7815  0.1101  0.6838
   44MOL     O231048   4.309   4.497   0.742 -0.7602 -0.4009  0.8709
   44MOL     C331049   4.091   4.576   0.707 -0.4990 -0.0883  0.1980
   44MOL     C431050   4.124   4.712   0.678  0.5317 -0.3863  0.5322
   44MOL     C531051   4.020   4.796   0.632 -0.2051 -0.6321  0.6549
   44MOL     C631052   3.889   4.750   0.615 -0.1190 -0.1445  0.3224
   44MOL     C731053   3.782   4.844   0.568  0.4211  0.4305  0.2620
   44MOL     O831054   3.677   4.855   0.627  0.4199 -0.6424 -0.4778
   44MOL     N931055   3.809   4.910   0.460 -0.1284  0.3271  0.3460
   44MOL    C1031056   3.722   4.999   0.382 -0.7647 -0.7472 -0.2229
   44MOL    C1131057   3.756   5.152   0.411  0.6321  0.5223  0.4211
   44MOL    C1231058   3.702   5.195   0.549  0.7055 -0.1535  0.6184
   44MOL    C1331059   3.694   5.345   0.570 -0.4322  0.3127  0.3334
   44MOL    C1431060   3.823   5.381   0.643 -0.3697  0.1893  0.4293
   44MOL    C1531061   3.831   5.528   0.680  0.7916 -0.2426 -0.6010
   44MOL    N1631062   3.956   5.558   0.746  0.0766  0.0702 -0.4964
   44MOL    C1731063   3.859   4.611   0.642 -0.5747  0.2014 -0.3662
   44MOL    C1831064   3.964   4.528   0.682  0.3898 -0.0146  0.0811
   44MOL    H1931065   4.227   4.746   0.678  0.8314 -1.2944  0.5923
   44MOL    H2031066   4.044   4.898   0.609  1.4403 -0.9871  0.6856
   44MOL    H2131067   3.882   4.869   0.402 -0.8085 -0.8838  0.3392
   44MOL    H2231068   3.742   4.977   0.277  0.4423  1.4988 -0.5135
   44MOL    H2331069   3.618   4.997   0.414 -0.9303  0.1578 -0.6803
   44MOL    H2431070   3.697   5.206   0.338  0.0793 -1.0356 -0.3009
   44MOL    H2531071   3.860   5.186   0.414  1.2656 -1.3543  1.1669
   44MOL    H2631072   3.598   5.162   0.549  0.2566  1.2198 -1.3943
   44MOL    H2731073   3.739   5.134   0.632  1.0366  0.2299  0.7554
   44MOL    H2831074   3.606   5.376   0.625 -1.0014  0.4125 -0.6209
   44MOL    H2931075   3.697   5.406   0.479  1.9575  1.6483  1.2764
   44MOL    H3031076   3.903   5.363   0.571  0.1811 -1.5843  1.4494
   44MOL    H3131077   3.831   5.318   0.732  1.2719 -1.7262 -1.0104
   44MOL    H3231078   3.826   5.585   0.587 -0.2207  2.3021  0.9738
   44MOL    H3331079   3.744   5.556   0.738  0.7926  0.4849 -0.9412
   44MOL    H3431080   4.029   5.488   0.742  0.8365  0.8389 -0.1378
   44MOL    H3531081   3.755   4.583   0.647 -0.7118  0.6680 -0.5432
   44MOL    H3631082   3.940   4.423   0.692 -0.3446  0.1348 -0.0839
   44MOL    H3731083   4.147   4.385   0.791 -0.7691  0.2103 -0.9093
   44MOL    C3831084   4.000   5.681   0.792  0.1287 -0.1308 -0.5542
   44MOL    O3931085   3.920   5.772   0.809 -0.2243 -0.5310 -0.4657
   44MOL    C4031086   4.146   5.694   0.812  0.8719  0.3413  0.0795
   44MOL    C4131087   4.195   5.809   0.865  0.5346 -0.7004  0.4041
   44MOL    C4231088   4.329   5.831   0.905 -0.1948 -0.1712 -0.1828
   44MOL    C4331089   4.411   5.715   0.911 -0.2087  0.1178  0.2999
   44MOL    C4431090   4.549   5.710   0.959 -0.0411 -0.4461  0.5660
   44MOL    O4531091   4.612   5.606   0.967  0.1054 -0.5139  0.0710
   44MOL    N4631092   4.600   5.831   0.990 -0.1356 -0.1862 -0.7170
   44MOL    C4731093   4.736   5.856   1.036  0.4646  1.0128  0.1656
   44MOL    C4831094   4.813   5.880   0.907  0.0544 -0.2754 -0.1502
   44MOL    C4931095   4.956   5.893   0.935  0.1016  0.6818  0.9275
   44MOL    C5031096   5.037   5.909   0.803 -0.3649 -0.0941 -0.1666
   44MOL    C5131097   5.183   5.881   0.824 -0.0879 -0.4523  0.8703
   44MOL    C5231098   5.250   5.873   0.692 -0.1858  0.1157 -0.5847
   44MOL    N5331099   5.390   5.850   0.713 -0.7949  0.4497  0.0707
   44MOL    C5431100   4.361   5.597   0.846 -0.4468 -0.5393 -0.1071
   44MOL    C5531101   4.232   5.583   0.785 -0.0457 -0.2492 -0.1437
   44MOL    H5631102   4.134   5.898   0.864  2.9138  0.9996  0.6832
   44MOL    H5731103   4.369   5.926   0.936  0.0389  0.3726 -2.1273
   44MOL    H5831104   4.538   5.911   0.993  0.6153  0.3762  0.4959
   44MOL    H5931105   4.731   5.947   1.096  0.2763  1.0557  0.0823
   44MOL    H6031106   4.773   5.778   1.103 -1.6142 -0.3321 -0.2105
   44MOL    H6131107   4.783   5.978   0.871 -1.9820 -0.6324  0.4895
   44MOL    H6231108   4.805   5.802   0.832 -1.6041 -2.2332  1.9842
   44MOL    H6331109   4.964   5.979   1.002  0.4843  0.4211  1.2208
   44MOL    H6431110   4.992   5.811   0.997 -0.4505 -0.2697 -0.0055
   44MOL    H6531111   5.035   6.001   0.745 -1.5115  0.0259  0.0463
   44MOL    H6631112   5.005   5.831   0.733  0.8699 -0.0876 -0.7469
   44MOL    H6731113   5.200   5.785   0.874  2.4250 -0.6219 -0.2049
   44MOL    H6831114   5.227   5.958   0.887  3.4669 -1.0007 -0.7820
   44MOL    H6931115   5.213   5.788   0.635 -0.5111  0.9640 -1.6615
   44MOL    H7031116   5.237   5.965   0.636 -0.8832  0.5569  0.2819
   44MOL    H7131117   5.437   5.904   0.784  1.0064  0.0108 -0.7466
   44MOL    H7231118   4.418   5.508   0.825 -0.3540 -0.4278 -0.3324
   44MOL    H7331119   4.194   5.488   0.750  0.8556 -0.4329 -0.6402
   44MOL    C7431120   5.472   5.788   0.628  0.0838  0.3011  1.2589
   44MOL    O7531121   5.430   5.739   0.524 -0.2818 -0.3616  0.1614
   44MOL    C7631122   5.607   5.756   0.686 -0.5613 -0.6910  0.0143
   44MOL    C7731123   5.707   5.698   0.606 -0.7547  0.2701  0.0458
   44MOL    C7831124   5.838   5.672   0.655  0.4914 -0.0075 -0.5106
   44MOL    C7931125   5.868   5.696   0.790 -0.0183  0.3752  0.2768
   44MOL    C8031126   6.003   5.679   0.846  0.1590 -0.2168 -0.6802
   44MOL    O8131127   6.013   5.637   0.964  0.0872 -0.0820 -0.9134
   44MOL    N8231128   6.106   5.676   0.761  0.5856 -0.9057  0.1058
   44MOL    C8331129   6.248   5.656   0.800 -0.2856  0.0333  0.1791
   44MOL    C8431130   6.359   5.687   0.697  0.8078  0.0756  0.5478
   44MOL    C8531131   6.503   5.679   0.741  0.3636  0.2418 -0.2233
   44MOL    C8631132   6.612   5.680   0.632  0.1076 -0.1277  0.0549
   44MOL    C8731133   6.750   5.643   0.681  0.0744  0.1421 -0.2956
   44MOL    C8831134   6.767   5.504   0.747  0.1141 -0.2125 -0.4109
   44MOL    N8931135   6.719   5.401   0.658  0.1825  0.0617  0.5007
   44MOL    C9031136   5.767   5.745   0.874  0.5988  0.6877  0.4349
   44MOL    C9131137   5.637   5.771   0.827 -0.1891 -0.4146 -1.1341
   44MOL    H9231138   5.673   5.670   0.507  0.0918  1.7634 -0.6867
   44MOL    H9331139   5.914   5.622   0.597  0.8298  1.6798 -1.5652
   44MOL    H9431140   6.090   5.684   0.662  0.3258  2.3203  0.3518
   44MOL    H9531141   6.274   5.714   0.889  0.5884  1.1591 -0.7923
   44MOL    H9631142   6.261   5.554   0.837 -0.9128 -1.1318 -2.7087
   44MOL    H9731143   6.344   5.789   0.662  1.5559  0.3982  1.1657
   44MOL    H9831144   6.337   5.622   0.612  0.9108 -1.0031  1.3189
   44MOL    H9931145   6.520   5.747   0.825  0.0960  0.6082 -0.4669
   44MOL   H10031146   6.513   5.581   0.787  1.4206 -0.7142 -2.4069
   44MOL   H10131147   6.614   5.774   0.576 -2.6757 -0.7372 -1.1501
   44MOL   H10231148   6.596   5.614   0.547  1.1222 -1.1364  0.6462
   44MOL   H10331149   6.794   5.715   0.751  1.7508 -2.1229  1.0466
   44MOL   H10431150   6.815   5.646   0.593  0.4407 -2.7990 -0.1571
   44MOL   H10531151   6.869   5.488   0.781  0.8915  1.9626 -1.6433
   44MOL   H10631152   6.713   5.514   0.841 -0.5746  1.3601 -0.9565
   44MOL   H10731153   6.620   5.408   0.641  0.3003 -0.8716 -0.6272
   44MOL   H10831154   5.806   5.771   0.971  1.6576  0.5148  0.0584
   44MOL   H10931155   5.570   5.812   0.902 -1.1437 -1.7612 -1.2259
   44MOL   C11031156   6.792   5.308   0.596 -0.3167 -0.2558 -0.5700
   44MOL   O11131157   6.912   5.306   0.604 -0.2895  0.2941 -0.4056
   44MOL   C11231158   6.726   5.199   0.512  0.2412 -0.5174  0.5544
   44MOL   C11331159   6.591   5.208   0.466 -0.9552  0.1227  0.8400
   44MOL   C11431160   6.533   5.099   0.394  0.3395 -0.3156 -0.1459
   44MOL   C11531161   6.608   4.982   0.369 -0.3149 -0.3712 -0.6290
   44MOL   C11631162   6.540   4.858   0.324  0.1795 -0.1463 -0.5581
   44MOL   O11731163   6.601   4.760   0.291 -0.0938 -0.4440  0.5075
   44MOL   N11831164   6.410   4.862   0.312 -0.0954  0.0617 -0.4113
   44MOL   C11931165   6.330   4.748   0.276  0.2139  0.2830 -0.2868
   44MOL   C12031166   6.359   4.695   0.135  0.4364  0.6182 -0.2248
   44MOL   C12131167   6.326   4.794   0.027  0.0023  0.2025  0.2147
   44MOL   C12231168   6.366   4.730   7.776  0.1952  0.3452  0.1580
   44MOL   C12331169   6.308   4.810   7.653  0.2385  0.4188 -0.0458
   44MOL   C12431170   6.344   4.747   7.521  0.3578  0.0125 -0.4099
   44MOL   N12531171   6.492   4.737   7.506 -0.4677 -0.2271  0.9745
   44MOL   C12631172   6.744   4.979   0.405  0.4956 -0.1937 -0.6660
   44MOL   C12731173   6.798   5.086   0.480 -0.8454  0.0697  0.7156
   44MOL   H12831174   6.532   5.298   0.476 -0.7549  0.3666 -0.1469
   44MOL   H12931175   6.427   5.101   0.370  0.4180  0.5501 -0.4438
   44MOL   H13031176   6.363   4.951   0.313 -0.1225  0.0484  2.3379
   44MOL   H13131177   6.355   4.659   0.335 -3.3666 -0.0488  0.8682
   44MOL   H13231178   6.222   4.760   0.285  0.3666  2.2610 -1.0410
   44MOL   H13331179   6.289   4.611   0.126  0.5409  0.6504 -1.3573
   44MOL   H13431180   6.457   4.648   0.124  0.1247 -0.3768  1.1685
   44MOL   H13531181   6.224   4.832   0.028  1.0373  3.1413  2.1324
   44MOL   H13631182   6.377   4.890   0.036  0.0682  0.0234  2.0256
   44MOL   H13731183   6.322   4.630   7.777  1.6905 -0.3125  1.6564
   44MOL   H13831184   6.475   4.729   7.777  0.2052 -0.3897 -0.9777
   44MOL   H13931185   6.350   4.911   7.661  0.4997  0.2979  0.1318
   44MOL   H14031186   6.201   4.829   7.655 -0.0313 -0.6353 -2.6601
   44MOL   H14131187   6.302   4.646   7.520 -1.9696  0.9344  1.3953
   44MOL   H14231188   6.299   4.799   7.437 -0.0088  2.3980  1.2189
   44MOL   H14331189   6.531   4.646   7.490 -0.1318  0.1004 -0.0982
   44MOL   H14431190   6.811   4.894   0.395  1.3929 -0.0281  3.0504
   44MOL   H14531191   6.901   5.073   0.509 -0.4256 -0.1514 -0.8033
   44MOL   C14631192   6.581   4.840   7.495  0.1930  0.8602  0.4417
   44MOL   O14731193   6.547   4.960   7.498  0.1964 -0.0062 -0.6088
   44MOL   C14831194   6.724   4.799   7.475 -0.4678 -0.4168  0.4947
   44MOL   C14931195   6.758   4.666   7.456  0.4799 -0.0750  0.2664
   44MOL   C15031196   6.891   4.638   7.423  0.0513 -0.8692  0.0733
   44MOL   C15131197   6.994   4.738   7.416 -0.4287  0.8994 -0.4085
   44MOL   C15231198   7.139   4.706   7.384  0.4870  0.3333  0.1370
   44MOL   O15331199   7.207   4.793   7.332 -0.1432  0.0228 -0.2962
   44MOL   N15431200   7.178   4.581   7.412 -0.1902  0.0053 -0.1682
   44MOL   C15531201   7.300   4.511   7.360  0.0696 -0.0351 -0.4817
   44MOL   C15631202   7.410   4.517   7.466 -0.2586  0.5515  0.0764
   44MOL   C15731203   7.534   4.444   7.406 -0.3960  0.1635 -0.4726
   44MOL   C15831204   7.631   4.391   7.517 -0.3315 -0.4293 -0.2889
   44MOL   C15931205   7.738   4.283   7.480 -0.1055  0.1947  0.1416
   44MOL   C16031206   7.810   4.238   7.610  0.4750  0.2179  0.6912
   44MOL   N16131207   7.867   4.103   7.600 -0.4648 -0.2040 -0.1534
   44MOL   C16231208   6.956   4.874   7.433 -0.2777  0.2864  0.2658
   44MOL   C16331209   6.820   4.905   7.459 -0.3893  0.1673 -0.8410
   44MOL   H16431210   6.689   4.583   7.463 -2.1286  2.0014 -0.0898
   44MOL   H16531211   6.917   4.534   7.408  0.5271 -0.7109 -0.2101
   44MOL   H16631212   7.109   4.527   7.463  1.3533 -0.7583  1.1853
   44MOL   H16731213   7.280   4.408   7.329  2.3154 -0.4591 -0.5741
   44MOL   H16831214   7.326   4.559   7.266 -0.2738  1.7487  0.3093
   44MOL   H16931215   7.382   4.471   7.560  2.6178  0.2977  0.8482
   44MOL   H17031216   7.421   4.624   7.486 -0.7673  0.7229 -0.5287
   44MOL   H17131217   7.500   4.372   7.331 -3.9476 -0.1422  1.3334
   44MOL   H17231218   7.596   4.513   7.349 -0.9191  1.9180  1.0276
   44MOL   H17331219   7.571   4.350   7.598 -2.5665 -0.9513 -2.1657
   44MOL   H17431220   7.679   4.471   7.574 -2.9129  1.9685 -1.3703
   44MOL   H17531221   7.811   4.326   7.411 -0.4232 -1.5346 -1.3083
   44MOL   H17631222   7.694   4.200   7.425  0.2570  0.8187 -1.1066
   44MOL   H17731223   0.012   4.293   7.641  0.3919  0.0501  1.2346
   44MOL   H17831224   7.745   4.222   7.696 -0.0773 -0.2278  0.1960
   44MOL   H17931225   0.076   4.096   7.566 -0.3788  2.3284 -0.5806
   44MOL   H18031226   7.034   4.946   7.413 -0.1590  0.0101 -0.2784
   44MOL   H18131227   6.781   5.006   7.453 -0.4986  0.1222 -0.8792
   44MOL   C18231228   7.808   3.989   7.642 -0.0818 -0.9593  0.5216
   44MOL   O18331229   7.691   3.980   7.684  0.2660  0.5210 -0.2055
   44MOL   C18431230   0.003   3.865   7.639 -0.8836 -0.1867 -0.3320
   44MOL   C18531231   7.827   3.742   7.620 -0.0241  0.0255 -0.7251
   44MOL   C18631232   0.009   3.621   7.616 -0.4955  0.1123  0.4748
   44MOL   C18731233   0.145   3.613   7.640  0.3414 -0.2985  0.5880
   44MOL   C18831234   0.204   3.475   7.638  0.7142 -0.0997  0.3411
   44MOL   O18931235   0.131   3.376   7.649  0.3239  0.0439  0.3675
   44MOL   N19031236   0.338   3.469   7.626 -0.3780  0.5503  0.3957
   44MOL   C19131237   0.404   3.341   7.602  0.2095 -0.1459 -0.3231
   44MOL   C19231238   0.551   3.328   7.648  0.5166 -0.0563 -0.1455
   44MOL   C19331239   0.616   3.190   7.605  0.7040  0.3442  0.3674
   44MOL   C19431240   0.578   3.060   7.684 -0.4106 -0.3073 -0.3197
   44MOL   C19531241   0.657   2.934   7.624 -0.2474 -0.2368  0.7567
   44MOL   C19631242   0.638   2.799   7.690 -0.6079  0.0769 -0.2262
   44MOL   N19731243   0.500   2.744   7.687 -0.2696 -0.0415 -0.3754
   44MOL   C19831244   0.214   3.737   7.653 -0.1641 -0.5968 -0.0047
   44MOL   C19931245   0.142   3.861   7.660 -0.2824 -0.2442 -0.0103
   44MOL   H20031246   7.722   3.736   7.597  0.0613  1.3556 -1.5078
   44MOL   H20131247   7.833   3.533   7.609 -1.8876  0.9179  2.2683
   44MOL   H20231248   0.389   3.556   7.619  0.9703 -0.3052 -0.6009
   44MOL   H20331249   0.347   3.263   7.653  1.5610 -0.0335  1.4192
   44MOL   H20431250   0.401   3.326   7.494  1.2852 -0.3408 -0.3377
   44MOL   H20531251   0.567   3.355   7.752  0.9276  1.7747 -0.6671
   44MOL   H20631252   0.611   3.397   7.588  0.8027 -0.5517 -0.4400
   44MOL   H20731253   0.598   3.164   7.501  0.0644 -1.7670  0.9758
   44MOL   H20831254   0.722   3.211   7.622  1.1620 -1.3463 -0.2352
   44MOL   H20931255   0.470   3.047   7.680 -0.4052 -0.5525  0.2281
   44MOL   H21031256   0.600   3.083   7.789  0.3956  1.1565 -0.7849
   44MOL   H21131257   0.764   2.950   7.613 -0.4282  0.4396 -0.1042
   44MOL   H21231258   0.633   2.915   7.519 -2.2094  0.3748  1.0738
   44MOL   H21331259   0.711   2.736   7.640 -0.4090 -0.0741  0.2514
   44MOL   H21431260   0.675   2.805   7.792 -0.8541 -1.5164 -0.0272
   44MOL   H21531261   0.434   2.793   7.629 -2.5718 -1.3693  1.0491
   44MOL   H21631262   0.322   3.737   7.659 -0.1025 -4.2796  0.3188
   44MOL   H21731263   0.190   3.957   7.662  0.7282 -0.7464  0.5642
   44MOL   C21831264   0.458   2.658   7.779 -0.1148 -0.6542 -0.0936
   44MOL   O21931265   0.524   2.610   7.872  0.2444 -0.1545  0.3920
   44MOL   C22031266   0.307   2.635   7.769 -0.3815  0.5425 -0.2482
   44MOL   C22131267   0.244   2.558   7.865 -0.4713  0.3242 -0.9043
   44MOL   C22231268   0.107   2.525   7.856  0.0470 -0.2952  0.5210
   44MOL   C22331269   0.026   2.569   7.753  0.3120  0.1375 -0.2666
   44MOL   C22431270   7.776   2.513   7.733 -0.0986 -0.1504  0.3518
   44MOL   O22531271   7.748   2.394   7.765 -0.4564 -0.2180  0.7311
   44MOL   N22631272   7.685   2.596   7.680 -0.2376 -0.1426 -0.2597
   44MOL   C22731273   7.547   2.562   7.669  0.4916 -0.7356 -0.4604
   44MOL   C22831274   7.472   2.628   7.548 -0.1937  0.0252 -0.5754
   44MOL   C22931275   7.462   2.779   7.524 -0.8642 -0.1905  0.5283
   44MOL   C23031276   7.370   2.810   7.406 -0.9660 -0.4220 -0.3011
   44MOL   C23131277   7.319   2.952   7.408 -0.3541  0.4209 -0.4175
   44MOL   C23231278   7.221   2.982   7.289  0.2163 -0.0812 -0.0930
   44MOL   N23331279   7.194   3.123   7.304 -0.5786  0.6396 -0.3478
   44MOL   C23431280   0.095   2.645   7.648  0.2320 -0.1151 -0.5018
   44MOL   C23531281   0.229   2.671   7.655  0.5629 -0.3810  0.3649
   44MOL   H23631282   0.294   2.521   0.067 -1.0272 -0.5524 -0.9498
   44MOL   H23731283   0.062   2.463   0.046  0.6734 -1.8074 -0.3378
   44MOL   H23831284   7.716   2.688   7.652 -1.3770 -0.0827 -1.3436
   44MOL   H23931285   7.538   2.456   7.648 -1.4180 -0.9668  1.2831
   44MOL   H24031286   7.492   2.567   7.763  0.9601 -1.3686 -0.1521
   44MOL   H24131287   7.373   2.583   7.552  0.5079 -1.5523 -0.2796
   44MOL   H24231288   7.515   2.589   7.456  0.1098  1.1228 -0.8976
   44MOL   H24331289   7.431   2.823   7.619  0.6465  0.5848  0.6756
   44MOL   H24431290   7.561   2.821   7.506 -0.1119 -1.9439  0.4909
   44MOL   H24531291   7.283   2.745   7.406 -1.6108  0.4140 -1.1404
   44MOL   H24631292   7.426   2.799   7.313  1.5986 -0.7350  1.2305
   44MOL   H24731293   7.406   3.017   7.409 -1.6991  2.2465 -0.4259
   44MOL   H24831294   7.263   2.973   7.499  0.2593 -1.7246  0.4931
   44MOL   H24931295   7.266   2.971   7.190 -0.6682  1.4743 -0.6931
   44MOL   H25031296   7.139   2.910   7.288 -1.6178  1.9508 -0.7150
   44MOL   H25131297   7.265   3.182   7.262  1.1046  0.9799  2.7890
   44MOL   H25231298   0.039   2.668   7.559 -1.1343 -2.4282 -0.2667
   44MOL   H25331299   0.269   2.730   7.574  1.0137  0.5811  1.2805
   44MOL   C25431300   7.081   3.184   7.337  0.2339  0.8288 -0.4870
   44MOL   O25531301   6.983   3.124   7.374 -0.5568  0.6101  0.1428
   44MOL   C25631302   7.081   3.333   7.325 -0.2805 -0.5949  0.3007
   44MOL   C25731303   7.207   3.405   7.295  0.4415 -0.0012 -0.4331
   44MOL   C25831304   7.207   3.540   7.259 -0.3499 -0.0297  0.6148
   44MOL   C25931305   7.086   3.607   7.244  0.0692 -0.1117  0.1499
   44MOL   C26031306   7.086   3.745   7.190 -0.4665 -0.0483  0.3829
   44MOL   O26131307   6.992   3.820   7.217 -0.7517 -0.6909  0.4060
   44MOL   N26231308   7.185   3.771   7.102  0.4831  0.4462  0.2806
   44MOL   C26331309   7.193   3.891   7.023 -0.3660  0.8711  0.2869
   44MOL   C26431310   7.274   3.864   6.895  0.5609  0.5459 -0.5229
   44MOL   C26531311   7.273   3.987   6.796  0.3266 -0.3919  0.8496
   44MOL   C26631312   7.359   3.962   6.671 -0.3127  0.0436 -0.0859
   44MOL   C26731313   7.296   3.856   6.566  0.0446  0.0220 -0.5733
   44MOL   C26831314   7.386   3.826   6.442 -0.1472  0.3334  0.5357
   44MOL   N26931315   7.434   3.950   6.390 -0.1392  0.0193 -0.1793
   44MOL   C27031316   6.964   3.545   7.285  0.7431  0.3363  0.1014
   44MOL   C27131317   6.963   3.407   7.319  0.7282 -0.5357  0.6534
   44MOL   H27231318   7.302   3.355   7.285  0.4953  0.5120 -2.6013
   44MOL   H27331319   7.302   3.586   7.237  0.5226 -1.5027  1.2058
   44MOL   H27431320   7.255   3.700   7.086  0.0437  0.1627 -0.4438
   44MOL   H27531321   7.086   3.908   7.014 -0.7887 -1.2857  0.8131
   44MOL   H27631322   7.242   3.973   7.076 -2.8497  1.8800  1.0721
   44MOL   H27731323   7.235   3.775   6.846 -0.7856  0.3116  0.9223
   44MOL   H27831324   7.375   3.840   6.929 -0.2279 -2.8072 -0.3387
   44MOL   H27931325   7.169   4.008   6.772 -0.0376  0.5931  3.2181
   44MOL   H28031326   7.302   4.074   6.856  0.0608 -0.3911  0.9769
   44MOL   H28131327   7.453   3.913   6.695 -0.7510 -1.1649 -0.8221
   44MOL   H28231328   7.376   4.059   6.624  0.5778 -0.5657 -1.0582
   44MOL   H28331329   7.195   3.881   6.535 -0.7505 -1.2916  0.8700
   44MOL   H28431330   7.279   3.762   6.618  0.3436  0.4685  0.3483
   44MOL   H28531331   7.463   3.755   6.469  1.2415  1.1193 -1.2692
   44MOL   H28631332   7.341   3.768   6.362  2.6117 -0.1665 -0.6951
   44MOL   H28731333   7.381   3.979   6.309  0.2190 -0.3607 -0.5492
   44MOL   H28831334   6.868   3.593   7.271  0.9503  0.3351 -1.4611
   44MOL   H28931335   6.876   3.345   7.334  0.1665 -0.2494 -1.2647
   44MOL   C29031336   7.558   4.001   6.409 -0.4163  0.2389 -0.3315
   44MOL   O29131337   7.642   3.949   6.482  0.1287 -0.0020  0.0366
   44MOL   C29231338   7.603   4.113   6.322 -0.4498 -0.2295 -0.3621
   44MOL   C29331339   7.743   4.138   6.306  0.0508  0.1100  0.7841
   44MOL   C29431340   7.795   4.252   6.245 -0.0534 -0.9320 -0.4065
   44MOL   C29531341   7.706   4.345   6.185 -0.2519 -0.2082 -0.5049
   44MOL   C29631342   7.759   4.460   6.107  0.4646 -0.4861 -0.6814
   44MOL   O29731343   7.724   4.579   6.126  0.1241 -0.3264  0.2548
   44MOL   N29831344   7.853   4.417   6.025 -0.1697 -0.1569  0.5858
   44MOL   C29931345   0.062   4.497   5.944  0.1356 -0.4092 -0.3813
   44MOL   C30031346   0.197   4.429   5.918 -0.4899  0.1179  0.9082
   44MOL   C30131347   0.298   4.526   5.846  0.0926  0.2068  0.2479
   44MOL   C30231348   0.281   4.519   5.692 -0.6950  0.2220 -0.0524
   44MOL   C30331349   0.190   4.620   5.630 -0.3329  0.5646 -0.0556
   44MOL   C30431350   0.246   4.753   5.628  0.4027 -0.6539 -0.6610
   44MOL   N30531351   0.169   4.843   5.539  0.2753 -0.1678 -0.3143
   44MOL   C30631352   7.566   4.329   6.209 -0.1649 -0.7307  0.1681
   44MOL   C30731353   7.513   4.214   6.272  0.7917 -0.4470 -0.8909
   44MOL   H30831354   7.813   4.060   6.336  0.2850  0.3317  0.8147
   44MOL   H30931355   0.015   4.275   6.244 -0.4634  1.0573 -2.4517
   44MOL   H31031356   7.862   4.317   6.015  0.5121 -0.0309 -0.0959
   44MOL   H31131357   0.019   4.535   5.852  0.9400  0.3015 -0.4770
   44MOL   H31231358   0.090   4.578   6.012  2.0082 -0.2560 -1.2787
   44MOL   H31331359   0.179   4.337   5.861 -0.9365  0.4885  0.4349
   44MOL   H31431360   0.242   4.390   6.009  1.2943  0.0380  0.0192
   44MOL   H31531361   0.287   4.629   5.880 -2.2550  0.2541 -0.5208
   44MOL   H31631362   0.399   4.499   5.876 -0.4227  1.0008  2.8077
   44MOL   H31731363   0.238   4.421   5.671  0.8549 -0.7003  0.9877
   44MOL   H31831364   0.372   4.522   5.631 -0.7195  0.8736 -0.0562
   44MOL   H31931365   0.098   4.615   5.689  0.7590  1.9096  1.8159
   44MOL   H32031366   0.173   4.586   5.528  0.7016  1.1881 -0.4335
   44MOL   H32131367   0.252   4.798   5.728  0.1656 -0.8105 -0.5745
   44MOL   H32231368   0.347   4.754   5.587  0.7017  0.6713  0.0691
   44MOL   H32331369   0.223   4.872   5.458 -1.6483  0.7770 -1.2973
   44MOL   H32431370   7.500   4.404   6.166 -0.2037  1.6925  4.1265
   44MOL   H32531371   7.410   4.191   6.295  0.5656  1.7742  0.4860
   44MOL   C32631372   0.051   4.898   5.563 -0.8303 -0.1148  0.2765
   44MOL   O32731373   7.863   4.852   5.650 -0.0653 -0.2657 -0.2794
   44MOL   C32831374   0.006   5.004   5.465 -1.3267  0.3098 -0.6438
   44MOL   C32931375   7.754   5.021   5.446  0.2736  0.0148  0.6178
   44MOL   C33031376   7.722   5.116   5.341 -0.2205 -0.1216  0.6963
   44MOL   C33131377   7.827   5.192   5.278  0.0577 -0.7602 -0.0369
   44MOL   C33231378   7.791   5.297   5.181 -1.0017 -0.6325 -0.6812
   44MOL   O33331379   7.860   5.319   5.081 -0.0558  0.2346  0.0487
   44MOL   N33431380   7.686   5.361   5.214  0.0604 -0.5719 -0.2875
   44MOL   C33531381   7.616   5.450   5.122  0.3285 -0.2201 -0.1717
   44MOL   C33631382   7.487   5.508   5.185  0.6582 -0.5994 -0.5839
   44MOL   C33731383   7.387   5.395   5.227 -0.2095 -0.6515  0.4535
   44MOL   C33831384   7.265   5.456   5.291 -0.2735 -0.8869  0.1854
   44MOL   C33931385   7.179   5.351   5.363 -0.2162  0.2615  0.1608
   44MOL   C34031386   7.045   5.414   5.403 -0.1504  0.9339  0.7453
   44MOL   N34131387   6.952   5.322   5.468  0.5777 -0.0200  0.3116
   44MOL   C34231388   0.074   5.180   5.317  0.5644 -0.3144  0.1620
   44MOL   C34331389   0.105   5.087   5.416 -0.4466 -1.3433 -0.3553
   44MOL   H34431390   7.676   4.960   5.487 -1.5191  1.0764 -1.1262
   44MOL   H34531391   7.621   5.111   5.305  0.5904 -4.7258 -1.3451
   44MOL   H34631392   7.635   5.341   5.299 -1.2974  0.8465 -0.7439
   44MOL   H34731393   7.684   5.527   5.086  0.8745 -0.9110 -0.6443
   44MOL   H34831394   7.592   5.386   5.037 -1.1255 -1.1572  0.9380
   44MOL   H34931395   7.447   5.571   5.106 -1.5792 -0.4105  0.6492
   44MOL   H35031396   7.506   5.576   5.268 -1.4498 -1.4355  0.6285
   44MOL   H35131397   7.352   5.340   5.141 -2.3757 -1.0864  1.5930
   44MOL   H35231398   7.430   5.330   5.304 -1.3259  2.3338  3.7368
   44MOL   H35331399   7.199   5.503   5.217 -1.8000  1.0818  2.6706
   44MOL   H35431400   7.288   5.541   5.356 -2.2928 -1.6158  1.9207
   44MOL   H35531401   7.228   5.323   5.457  0.8092  1.5412  0.0345
   44MOL   H35631402   7.160   5.264   5.302  0.2480  1.0477 -1.1154
   44MOL   H35731403   7.074   5.496   5.469  2.4740 -0.8313  1.8649
   44MOL   H35831404   7.003   5.459   5.312  1.7162 -1.6093 -1.4656
   44MOL   H35931405   6.909   5.259   5.402 -0.7675  0.0868  1.0677
   44MOL   H36031406   0.156   5.240   5.280 -0.1566  1.1958  0.9830
   44MOL   H36131407   0.208   5.065   5.441 -0.4037  0.1632  0.9201
   44MOL   C36231408   6.899   5.340   5.585  1.0493  0.0181 -0.1456
   44MOL   O36331409   6.951   5.417   5.668 -0.0484 -0.4480 -0.5400
   44MOL   C36431410   6.771   5.269   5.617 -0.2748  0.4587 -1.2567
   44MOL   C36531411   6.723   5.275   5.750 -0.0351  0.0364  0.6669
   44MOL   C36631412   6.601   5.217   5.777  0.0083  0.9960 -0.0139
   44MOL   C36731413   6.514   5.165   5.678 -0.6818  0.0639 -0.2297
   44MOL   C36831414   6.384   5.099   5.714 -0.4867 -0.0134  0.1448
   44MOL   O36931415   6.330   5.130   5.817 -0.1455  0.3145  0.3110
   44MOL   N37031416   6.329   5.012   5.632  0.3752 -0.4511 -0.5252
   44MOL   C37131417   6.223   4.921   5.673 -1.3390  0.6214 -0.1121
   44MOL   C37231418   6.079   4.974   5.654  0.1640 -0.5042 -0.4194
   44MOL   C37331419   5.971   4.856   5.656 -0.2043  0.0022  0.1754
   44MOL   C37431420   5.957   4.779   5.526  0.0073  0.8217 -0.1401
   44MOL   C37531421   5.884   4.643   5.541  0.5722 -0.4176 -0.6228
   44MOL   C37631422   5.852   4.595   5.402  0.1848  0.1147  0.2553
   44MOL   N37731423   5.769   4.478   5.388  0.0599  0.1094  0.2150
   44MOL   C37831424   6.560   5.166   5.546  0.0338 -0.2125  0.0415
   44MOL   C37931425   6.689   5.216   5.516  0.1530 -0.4917  0.5428
   44MOL   H38031426   6.780   5.318   5.831 -1.0176  0.5602  1.0927
   44MOL   H38131427   6.566   5.223   5.879 -0.7601 -1.8118 -0.0743
   44MOL   H38231428   6.374   4.989   5.545 -0.6345  1.1337 -1.5063
   44MOL   H38331429   6.239   4.830   5.615 -3.9707  0.3741 -0.5454
   44MOL   H38431430   6.237   4.893   5.777 -0.4943 -2.0243 -0.9063
   44MOL   H38531431   6.074   5.041   5.569 -1.8942  1.5203  1.2463
   44MOL   H38631432   6.052   5.037   5.739 -1.2498  1.1884 -2.0906
   44MOL   H38731433   6.004   4.778   5.724  0.8852 -1.5611 -2.0841
   44MOL   H38831434   5.874   4.898   5.680 -0.2150  0.4350 -0.5862
   44MOL   H38931435   6.056   4.751   5.489  0.6869  0.9655  1.5008
   44MOL   H39031436   5.911   4.837   5.446  0.4270 -1.2637 -1.9482
   44MOL   H39131437   5.798   4.685   5.595  1.0643  2.2182 -1.8184
   44MOL   H39231438   5.940   4.566   5.594  1.3164  2.1355  2.4566
   44MOL   H39331439   5.773   4.661   5.365  1.1444  1.8569  1.2345
   44MOL   H39431440   5.942   4.585   5.342  1.2016 -0.0508  1.7942
   44MOL   H39531441   5.682   4.514   5.352 -0.2110 -0.2805  0.4787
   44MOL   H39631442   6.499   5.144   5.459 -0.4852 -0.8414  0.5648
   44MOL   H39731443   6.709   5.233   5.412 -0.6375 -1.4983  0.2166
   44MOL   C39831444   5.804   4.348   5.377 -0.4884  0.4193 -0.3207
   44MOL   O39931445   5.914   4.313   5.418 -0.3955 -0.0693  0.0404
   44MOL   C40031446   5.696   4.255   5.335  0.4057 -0.1177  0.3609
   44MOL   C40131447   5.566   4.264   5.397  0.1705 -0.4275  0.7034
   44MOL   C40231448   5.462   4.179   5.356 -0.2492  0.0982 -0.5859
   44MOL   C40331449   5.482   4.083   5.256 -0.8042  0.8554 -0.1327
   44MOL   C40431450   5.366   3.997   5.212 -0.2037 -0.5343  0.3891
   44MOL   O40531451   5.269   3.981   5.290 -0.9070  0.3178 -0.0478
   44MOL   N40631452   5.379   3.919   5.109 -0.5137  0.1174  0.8611
   44MOL   C40731453   5.308   3.798   5.061 -0.7457  0.1001 -0.7940
   44MOL   C40831454   5.418   3.681   5.053 -0.5286 -0.6340 -0.4494
   44MOL   C40931455   5.513   3.689   4.935 -0.3004  0.5215  0.6534
   44MOL   C41031456   5.604   3.567   4.916  0.1162 -0.5592  0.5733
   44MOL   C41131457   5.739   3.571   4.999 -0.2066  0.3720  0.1947
   44MOL   C41231458   5.812   3.437   4.997  0.0519 -0.3182  0.3484
   44MOL   N41331459   5.920   3.436   5.091 -0.5488  0.0968  0.3227
   44MOL   C41431460   5.616   4.062   5.202 -0.0569  0.4826  0.0188
   44MOL   C41531461   5.718   4.146   5.247  0.1611 -0.2616  0.1693
   44MOL   H41631462   5.530   4.341   5.463  1.2982  0.5362  0.2104
   44MOL   H41731463   5.362   4.192   5.394  0.2731  2.9894 -0.0319
   44MOL   H41831464   5.448   3.952   5.043  0.7424 -2.5076  0.7841
   44MOL   H41931465   5.238   3.760   5.136  1.3431 -0.5594  0.8754
   44MOL   H42031466   5.254   3.810   4.967  0.1217  1.2893 -1.1500
   44MOL   H42131467   5.353   3.594   5.048 -0.7395 -0.4709 -0.5326
   44MOL   H42231468   5.482   3.666   5.141 -0.4881  0.7074 -0.2389
   44MOL   H42331469   5.458   3.697   4.841  1.2144 -2.4915 -0.5486
   44MOL   H42431470   5.573   3.781   4.931  0.7305 -0.1529  0.4684
   44MOL   H42531471   5.629   3.530   4.816  0.6739 -2.1399  1.2759
   44MOL   H42631472   5.544   3.481   4.945 -0.1354 -0.8570 -0.7729
   44MOL   H42731473   5.708   3.591   5.101  1.2781 -0.2955  0.7841
   44MOL   H42831474   5.806   3.653   4.975 -0.0328 -0.3648 -2.0133
   44MOL   H42931475   5.755   3.347   5.018  0.7884 -0.9269 -0.2336
   44MOL   H43031476   5.864   3.418   4.903  1.9412  0.2901  1.2539
   44MOL   H43131477   5.945   3.520   5.142 -0.4178 -0.7959  1.7368
   44MOL   H43231478   5.645   3.989   5.129 -1.2390 -0.7435  0.7639
   44MOL   H43331479   5.810   4.128   5.193 -1.2769  0.9218 -2.7330
   44MOL   C43431480   5.993   3.332   5.134  0.5027 -0.4270  0.1566
   44MOL   O43531481   5.988   3.222   5.080 -0.0049  0.0282  0.0571
   44MOL   C43631482   6.087   3.358   5.244 -0.4730  0.0644 -0.3649
   44MOL   C43731483   6.075   3.466   5.329  0.3851 -0.1327  0.4177
   44MOL   C43831484   6.157   3.483   5.438 -0.5731 -0.4749 -0.8303
   44MOL   C43931485   6.273   3.404   5.463 -0.0004  1.1998  0.6799
   44MOL   C44031486   6.353   3.408   5.589  0.1584  0.5744 -0.2493
   44MOL   O44131487   6.414   3.315   5.641 -0.0662  0.3790 -0.0815
   44MOL   N44231488   6.368   3.530   5.644 -0.1340 -0.5615  0.0206
   44MOL   C44331489   6.426   3.554   5.776  0.0146  0.1600  0.0711
   44MOL   C44431490   6.467   3.704   5.784 -0.0413  0.1893  0.0583
   44MOL   C44531491   6.480   3.752   5.928  0.3100  0.5690  0.2073
   44MOL   C44631492   6.354   3.754   6.026  0.1178  0.3177  0.9101
   44MOL   C44731493   6.271   3.879   6.024 -0.0146 -1.0048  0.3071
   44MOL   C44831494   6.168   3.898   5.912 -0.1893 -0.0963  0.6444
   44MOL   N44931495   6.074   3.781   5.906  0.2066 -0.5764 -0.4937
   44MOL   C45031496   6.297   3.303   5.368 -0.3632 -0.3140 -0.5291
   44MOL   C45131497   6.210   3.284   5.263  0.3477 -0.3793 -0.7112
   44MOL   H45231498   5.986   3.525   5.310  0.7427 -0.6579 -3.3439
   44MOL   H45331499   6.143   3.564   5.508 -1.2598 -1.3587  0.0792
   44MOL   H45431500   6.303   3.602   5.614 -1.2517 -0.6711  2.0962
   44MOL   H45531501   6.349   3.528   5.848 -2.0369 -0.3698 -2.2569
   44MOL   H45631502   6.515   3.499   5.808 -0.8272 -0.5569  1.2253
   44MOL   H45731503   6.389   3.766   5.739 -0.4704  1.6880  2.7586
   44MOL   H45831504   6.554   3.719   5.721 -2.1921  1.2642 -2.7697
   44MOL   H45931505   6.556   3.691   5.977  0.1703 -1.1060 -1.6297
   44MOL   H46031506   6.528   3.850   5.928 -0.5625  1.0050  0.2322
   44MOL   H46131507   6.395   3.747   6.127 -0.9887 -0.8806  1.2829
   44MOL   H46231508   6.296   3.665   6.001  1.1010 -0.3220  0.8903
   44MOL   H46331509   6.337   3.964   6.004  1.3464 -2.3509 -1.0614
   44MOL   H46431510   6.217   3.897   6.117 -1.4423 -1.7940 -0.3574
   44MOL   H46531511   6.111   3.990   5.917 -2.1604 -1.2822  0.5887
   44MOL   H46631512   6.224   3.900   5.818  0.7952  2.2687  1.2480
   44MOL   H46731513   6.022   3.752   5.987 -0.3302  1.1793 -0.1782
   44MOL   H46831514   6.373   3.231   5.394  1.0579  1.4645  0.2726
   44MOL   H46931515   6.221   3.201   5.194 -1.5417  1.0608 -2.8232
   44MOL   C47031516   6.053   3.699   5.807 -0.0553  0.4095  0.2584
   44MOL   O47131517   6.106   3.705   5.694 -0.1836 -0.2930 -0.1815
   44MOL   C47231518   5.949   3.593   5.832  0.2463  0.1507  0.5118
   44MOL   C47331519   5.857   3.615   5.933 -1.0526 -0.0474  0.4894
   44MOL   C47431520   5.761   3.512   5.962 -0.0349  0.1013  0.5079
   44MOL   C47531521   5.759   3.391   5.892  0.3818  0.9951 -0.2869
   44MOL   C47631522   5.642   3.295   5.907  0.8060 -0.0048  0.2394
   44MOL   O47731523   5.544   3.323   5.978  0.1852 -0.0701 -0.6508
   44MOL   N47831524   5.648   3.184   5.833  0.2285 -0.3082 -0.4123
   44MOL   C47931525   5.561   3.070   5.834  0.6739  0.0611  0.0194
   44MOL   C48031526   5.595   2.976   5.711  0.0062  0.6271  0.5186
   44MOL   C48131527   5.511   2.845   5.696  0.3334 -0.6546 -0.2820
   44MOL   C48231528   5.360   2.864   5.715 -0.6243 -0.0024 -1.1078
   44MOL   C48331529   5.275   2.744   5.704 -0.3397 -0.4421 -0.4676
   44MOL   C48431530   5.280   2.680   5.563 -0.3063  1.0716  0.0239
   44MOL   N48531531   5.236   2.770   5.462  0.1890  0.0871 -0.0051
   44MOL   C48631532   5.847   3.383   5.781  0.3623  0.0463  0.8653
   44MOL   C48731533   5.937   3.482   5.746  0.1036 -0.4329 -0.0729
   44MOL   H48831534   5.865   3.707   5.989  1.9229  0.3671 -0.5646
   44MOL   H48931535   5.688   3.538   6.038 -0.4200  0.1152  0.1341
   44MOL   H49031536   5.728   3.171   5.773 -0.2639 -0.3109 -1.0691
   44MOL   H49131537   5.561   3.027   5.934 -2.3749  2.7979  1.3345
   44MOL   H49231538   5.457   3.104   5.832 -0.5978 -3.5607  1.2453
   44MOL   H49331539   5.702   2.956   5.705 -0.3106 -0.8744 -0.5207
   44MOL   H49431540   5.572   3.032   5.621  0.1473  0.6412  0.4904
   44MOL   H49531541   5.529   2.822   5.591 -1.5236 -1.7122 -0.4056
   44MOL   H49631542   5.552   2.764   5.757 -1.3390 -0.0816  1.6734
   44MOL   H49731543   5.326   2.942   5.648  1.6989 -0.2415 -2.6379
   44MOL   H49831544   5.344   2.900   5.817  0.9667 -1.3211 -0.3652
   44MOL   H49931545   5.171   2.760   5.732 -0.5308 -4.1253  1.2871
   44MOL   H50031546   5.306   2.665   5.773 -2.1895 -0.3798  0.4686
   44MOL   H50131547   5.381   2.655   5.532 -1.1204 -1.8447 -0.4293
   44MOL   H50231548   5.211   2.595   5.561 -1.3559  1.8757  1.1921
   44MOL   H50331549   5.193   2.856   5.493 -1.0295 -0.8090  0.8320
   44MOL   H50431550   5.829   3.303   5.711  0.8232  0.0130  0.7870
   44MOL   H50531551   5.993   3.471   5.654  0.4202 -0.6602  0.1466
   44MOL   C50631552   5.256   2.765   5.334  0.3853  0.1602 -0.2211
   44MOL   O50731553   5.316   2.669   5.279 -0.1357 -0.3521  0.1517
   44MOL   C50831554   5.195   2.869   5.251 -0.1056  0.4777  0.6349
   44MOL   C50931555   5.214   3.003   5.291  0.4168  0.2377  0.1558
   44MOL   C51031556   5.143   3.102   5.222  0.4484 -0.2766  0.2478
   44MOL   C51131557   5.061   3.074   5.115 -0.8513 -0.1685  0.3275
   44MOL   C51231558   4.976   3.183   5.044  0.0267  0.3649  0.5124
   44MOL   O51331559   4.879   3.144   4.977 -0.6059  0.4608 -0.0037
   44MOL   N51431560   5.014   3.307   5.057  0.2785  0.1129 -0.0656
   44MOL   C51531561   4.935   3.421   5.010  0.6354 -0.2825 -0.2029
   44MOL   C51631562   5.011   3.551   5.053 -0.0701 -0.1527 -0.0955
   44MOL   C51731563   4.925   3.677   5.059  0.0957 -0.2681  0.4192
   44MOL   C51831564   4.838   3.698   4.933 -0.1072 -0.5541  0.1241
   44MOL   C51931565   4.739   3.817   4.935 -0.1493 -0.5020 -0.0817
   44MOL   C52031566   4.600   3.783   4.972  0.4940  0.0623 -0.6398
   44MOL   N52131567   4.599   3.718   5.100  0.0183 -0.1636  0.2573
   44MOL   C52231568   5.049   2.942   5.077 -0.6651  0.6962 -1.1728
   44MOL   C52331569   5.113   2.837   5.144 -0.3961  0.4044  0.3724
   44MOL   H52431570   5.264   3.028   5.384 -1.1103 -0.0276  1.0700
   44MOL   H52531571   5.152   3.204   5.259 -1.8443  0.1382 -0.2722
   44MOL   H52631572   5.107   3.319   5.096 -0.6462  0.4119  2.1357
   44MOL   H52731573   4.913   3.405   4.904 -0.8434 -1.1098  0.2246
   44MOL   H52831574   4.841   3.429   5.064  1.9698 -0.8764  2.3074
   44MOL   H52931575   5.108   3.567   5.005  0.7867 -2.1294  0.9190
   44MOL   H53031576   5.050   3.531   5.152  1.5046 -0.8027 -0.8256
   44MOL   H53131577   4.864   3.660   5.147 -1.4577  0.0015 -0.5773
   44MOL   H53231578   4.991   3.762   5.080 -0.1680 -0.4983  2.1999
   44MOL   H53331579   4.779   3.608   4.913 -2.2713  1.2426 -1.8795
   44MOL   H53431580   4.908   3.711   4.851  0.4843  1.1637  0.8918
   44MOL   H53531581   4.735   3.866   4.838 -0.0832 -0.3266  0.0043
   44MOL   H53631582   4.777   3.896   4.999 -1.7969  0.1117  0.1542
   44MOL   H53731583   4.539   3.872   4.987  0.4158 -0.6202  3.6117
   44MOL   H53831584   4.552   3.731   4.889  0.5954 -0.9451 -0.0811
   44MOL   H53931585   4.686   3.708   5.151  0.4490  2.7022  0.1335
   44MOL   H54031586   4.982   2.910   4.998 -1.8881  0.8758 -0.2314
   44MOL   H54131587   5.087   2.741   5.103 -0.7206 -0.4845  2.6085
   44MOL   C54231588   4.491   3.658   5.148  0.1744  0.2322  0.1737
   44MOL   O54331589   4.379   3.656   5.089  0.1459 -0.5265  0.4482
   44MOL   C54431590   4.521   3.582   5.276 -0.1314  0.4197  0.2120
   44MOL   C54531591   4.418   3.582   5.371 -0.7370  0.0480 -0.2698
   44MOL   C54631592   4.440   3.511   5.493  0.6932 -0.3519 -0.0687
   44MOL   C54731593   4.562   3.450   5.521 -0.0698  0.1016  0.0543
   44MOL   C54831594   4.598   3.397   5.658  0.7340  0.0029 -0.9239
   44MOL   O54931595   4.675   3.303   5.677  0.4788 -0.1248  0.2942
   44MOL   N55031596   4.548   3.477   5.756  0.0708  0.6909 -0.1894
   44MOL   C55131597   4.567   3.435   5.896  0.6440 -0.7239  0.0162
   44MOL   C55231598   4.694   3.500   5.949 -1.3741 -0.5236 -0.0147
   44MOL   C55331599   4.692   3.659   5.974 -0.1072 -0.2598 -0.0256
   44MOL   C55431600   4.820   3.721   6.038 -0.1815  1.0732 -0.0229
   44MOL   C55531601   4.931   3.730   5.930  0.5168  0.1895 -1.0727
   44MOL   C55631602   5.054   3.814   5.979  0.3977 -0.1205 -0.2957
   44MOL   N55731603   5.176   3.795   5.901  0.2056 -0.7964 -0.6540
   44MOL   C55831604   4.658   3.444   5.421 -0.8036  0.6413  0.1583
   44MOL   C55931605   4.643   3.508   5.298  0.3959 -0.2860  0.5794
   44MOL   H56031606   4.322   3.625   5.344 -0.1601  1.3017 -0.3302
   44MOL   H56131607   4.361   3.510   5.567  1.3901 -0.5840  0.6762
   44MOL   H56231608   4.503   3.566   5.739  1.3130  1.3066 -0.3089
   44MOL   H56331609   4.474   3.463   5.945 -1.2906 -1.3102 -3.1503
   44MOL   H56431610   4.585   3.328   5.905 -0.4032 -0.8383  0.8437
   44MOL   H56531611   4.775   3.465   5.885 -1.1018 -2.1823  1.2066
   44MOL   H56631612   4.702   3.441   6.040  0.1907 -1.1765 -0.5700
   44MOL   H56731613   4.673   3.720   5.885  3.6688 -0.6292 -1.1807
   44MOL   H56831614   4.607   3.677   6.040 -0.1987 -1.3111  0.1498
   44MOL   H56931615   4.851   3.660   6.123 -0.7613  1.9774  0.8501
   44MOL   H57031616   4.803   3.819   6.081 -1.9868  0.7093  0.1409
   44MOL   H57131617   4.894   3.785   5.844 -1.5186  2.2163  1.0245
   44MOL   H57231618   4.968   3.632   5.899  1.2818  0.0588  0.2125
   44MOL   H57331619   5.024   3.919   5.980  0.8618  0.0411 -2.2317
   44MOL   H57431620   5.080   3.781   6.080 -1.3529 -1.3811 -0.2289
   44MOL   H57531621   5.231   3.716   5.933  1.0892  0.1219  0.1206
   44MOL   H57631622   4.756   3.401   5.436  0.1017  1.6790 -2.3489
   44MOL   H57731623   4.721   3.507   5.223 -1.8216 -1.8670 -1.8077
   44MOL   C57831624   5.210   3.860   5.790  0.6041  0.6874  0.5115
   44MOL   O57931625   5.142   3.958   5.751 -0.0081 -0.8281 -0.1856
   44MOL   C58031626   5.337   3.821   5.714 -0.1222 -0.7469 -0.1356
   44MOL   C58131627   5.377   3.909   5.610 -0.2775 -0.3426  0.2629
   44MOL   C58231628   5.501   3.878   5.550 -0.3005  0.3172  0.4611
   44MOL   C58331629   5.587   3.773   5.599  0.2202  0.6544 -0.1550
   44MOL   C58431630   5.726   3.743   5.539  0.1999 -0.1229 -0.2570
   44MOL   O58531631   5.774   3.626   5.539  0.2443 -0.7366  0.4850
   44MOL   N58631632   5.799   3.855   5.513 -0.6167 -0.1162  0.0229
   44MOL   C58731633   5.936   3.866   5.467  0.1835 -0.2875 -0.3697
   44MOL   C58831634   6.007   3.982   5.537 -0.2241 -0.3055  0.5563
   44MOL   C58931635   6.141   4.020   5.465 -0.9936 -0.5587 -0.3645
   44MOL   C59031636   6.256   3.933   5.500  0.2068 -0.0855  0.1150
   44MOL   C59131637   6.391   3.964   5.431 -0.2582 -0.4522  0.0788
   44MOL   C59231638   6.446   4.101   5.463  0.0744  0.3648 -0.1881
   44MOL   N59331639   6.568   4.135   5.394 -0.2504 -0.3386  0.3926
   44MOL   C59431640   5.540   3.692   5.700 -0.3133 -0.4907 -0.1393
   44MOL   C59531641   5.417   3.708   5.759 -0.1975 -0.1480  0.7193
   44MOL   H59631642   5.306   3.985   5.580  0.1391 -0.1705 -0.2772
   44MOL   H59731643   5.534   3.937   5.466 -0.9382 -1.0174 -0.7373
   44MOL   H59831644   5.750   3.941   5.532 -0.2704  0.0232  0.2980
   44MOL   H59931645   5.998   3.781   5.496  0.1575  0.3792  1.7604
   44MOL   H60031646   5.936   3.876   5.359  0.6274  0.6498 -0.2842
   44MOL   H60131647   6.020   3.970   5.644  3.2360  0.5687  0.2804
   44MOL   H60231648   5.942   4.069   5.519  0.7598  0.6986  1.7597
   44MOL   H60331649   6.122   4.008   5.358  0.5186  3.1126 -1.1176
   44MOL   H60431650   6.156   4.127   5.478  0.4927 -0.8676  0.5563
   44MOL   H60531651   6.248   3.825   5.485  2.4186 -0.3862  0.8014
   44MOL   H60631652   6.266   3.942   5.608  2.2584 -1.2564  0.0532
   44MOL   H60731653   6.366   3.960   5.325  1.3015 -1.5090 -0.2665
   44MOL   H60831654   6.462   3.882   5.439  0.2171  0.0204  0.7509
   44MOL   H60931655   6.366   4.172   5.442 -0.6562  0.5128  2.8559
   44MOL   H61031656   6.466   4.101   5.570 -0.1180 -0.5389 -0.1467
   44MOL   H61131657   6.610   4.061   5.340 -0.0480  0.9725 -1.2888
   44MOL   H61231658   5.601   3.611   5.737  0.2570 -0.4224 -0.9413
   44MOL   H61331659   5.381   3.645   5.838  1.2561 -1.1408  0.6096
   44MOL   C61431660   6.618   4.254   5.381 -1.2894  0.1179  0.5530
   44MOL   O61531661   6.579   4.348   5.445 -0.4390 -0.0197  0.0273
   44MOL   C61631662   6.708   4.274   5.261  0.7329  0.2680  0.0461
   44MOL   C61731663   6.824   4.202   5.246 -0.7159 -0.4314  0.3041
   44MOL   C61831664   6.907   4.224   5.139 -0.0155  0.3336  0.1977
   44MOL   C61931665   6.868   4.308   5.035 -1.0719 -0.1395  0.0526
   44MOL   C62031666   6.963   4.330   4.919 -0.7066 -0.2023 -0.0540
   44MOL   O62131667   7.073   4.272   4.912  0.7812 -0.0420  1.1319
   44MOL   N62231668   6.928   4.428   4.831  0.6229 -0.5326 -0.2937
   44MOL   C62331669   7.023   4.476   4.733  0.1501  0.9957  0.2274
   44MOL   C62431670   6.994   4.414   4.595  0.9389  0.1628 -0.4605
   44MOL   C62531671   7.094   4.450   4.489  0.2947  0.4958  0.6018
   44MOL   C62631672   7.063   4.381   4.362  0.7029  1.2445 -0.7775
   44MOL   C62731673   7.122   4.237   4.355  1.0159 -0.4188  0.2694
   44MOL   C62831674   7.089   4.163   4.222  0.3451  0.0798  0.4305
   44MOL   N62931675   7.154   4.228   4.117 -0.2708 -0.1873  0.9259
   44MOL   C63031676   6.743   4.382   5.046 -0.2752 -0.3498  0.1587
   44MOL   C63131677   6.668   4.370   5.165  0.1342  0.4170 -0.7240
   44MOL   H63231678   6.850   4.132   5.324 -1.9951 -2.2168 -0.8255
   44MOL   H63331679   6.999   4.168   5.135  0.7519  1.5134  0.8131
   44MOL   H63431680   6.839   4.473   4.849  1.4026  0.3714  1.3270
   44MOL   H63531681   6.997   4.582   4.728 -0.5003  0.8894  1.1764
   44MOL   H63631682   7.128   4.473   4.761 -0.2601 -0.8136  1.6340
   44MOL   H63731683   6.892   4.443   4.573  0.2292  0.0687  2.5108
   44MOL   H63831684   7.005   4.306   4.600 -1.2635 -0.0813 -0.4342
   44MOL   H63931685   7.091   4.557   4.466 -0.2972  0.8989  2.5108
   44MOL   H64031686   7.192   4.422   4.527 -0.3802 -2.6434  0.1660
   44MOL   H64131687   7.090   4.439   4.273 -0.9186  3.3009  0.0199
   44MOL   H64231688   6.955   4.369   4.348  0.5040  1.5711  0.4749
   44MOL   H64331689   7.079   4.176   4.435 -0.7984  1.2538  0.5934
   44MOL   H64431690   7.230   4.235   4.373  0.9809  1.2863  0.7606
   44MOL   H64531691   7.107   4.055   4.229  0.9846  0.0541 -1.3341
   44MOL   H64631692   6.983   4.176   4.199  0.6323 -1.3508 -1.9357
   44MOL   H64731693   7.098   4.279   4.051  1.5719 -0.7415 -1.1380
   44MOL   H64831694   6.693   4.436   4.967 -2.1108  1.6503  2.6378
   44MOL   H64931695   6.573   4.418   5.184  0.1292 -1.0179  3.3342
   44MOL   C65031696   7.291   4.233   4.098 -0.2517 -0.2045 -0.6544
   44MOL   O65131697   7.360   4.152   4.159  0.6898 -0.5337  0.6500
   44MOL   C65231698   7.341   4.327   3.994 -0.1816  0.2735 -0.2766
   44MOL   C65331699   7.448   4.288   3.911 -0.3746  0.3829 -0.0159
   44MOL   C65431700   7.495   4.368   3.808  1.5888 -0.1200  0.0859
   44MOL   C65531701   7.438   4.501   3.799 -0.8331  0.2141  0.3939
   44MOL   C65631702   7.501   4.603   3.704  0.1156  0.2006 -0.3559
   44MOL   O65731703   7.459   4.717   3.698 -0.1051 -0.1623  0.0039
   44MOL   N65831704   7.603   4.566   3.626  0.1662  0.3265  0.0360
   44MOL   C65931705   7.649   4.646   3.515 -0.1450  0.4895  0.1148
   44MOL   C66031706   7.777   4.715   3.550  0.0315  0.0200  0.4274
   44MOL   C66131707   7.820   4.818   3.440 -0.4743  0.0375 -0.4344
   44MOL   C66231708   0.077   4.840   3.433  0.3072  0.1955 -0.5832
   44MOL   C66331709   0.118   4.944   3.540 -0.4654  0.5506 -0.0677
   44MOL   C66431710   0.263   4.993   3.524  0.1915  0.4611 -0.0990
   44MOL   N66531711   0.293   5.109   3.602 -0.6045  0.7288 -0.3280
   44MOL   C66631712   7.325   4.537   3.874 -0.1827  0.1663 -0.0664
   44MOL   C66731713   7.282   4.451   3.974  0.4115  0.0625  0.4940
   44MOL   H66831714   7.489   4.189   3.917 -1.1828 -0.1114 -1.9597
   44MOL   H66931715   7.577   4.341   3.743  0.0189  1.4918 -2.6644
   44MOL   H67031716   7.637   4.471   3.627  0.4867  0.4482  0.8075
   44MOL   H67131717   7.650   4.580   3.428  1.7968 -0.5373  0.9019
   44MOL   H67231718   7.575   4.719   3.480  0.1010  1.2656  1.2091
   44MOL   H67331719   7.856   4.645   3.578 -0.8532 -2.4170 -2.7668
   44MOL   H67431720   7.754   4.771   3.640  1.7286 -0.1755  1.0035
   44MOL   H67531721   7.791   4.779   3.342  0.5942 -1.4466 -0.1743
   44MOL   H67631722   7.766   4.913   3.441 -0.5141  0.0258 -1.0856
   44MOL   H67731723   0.113   4.885   3.341 -0.2994  3.3968  0.6916
   44MOL   H67831724   0.124   4.741   3.437 -5.0490 -2.5735 -1.0331
   44MOL   H67931725   0.091   4.921   3.643  0.7958 -0.6568 -0.0070
   44MOL   H68031726   0.059   5.034   3.521  0.2046  0.9302 -0.3506
   44MOL   H68131727   0.334   4.911   3.537  0.1632  0.1686 -1.5872
   44MOL   H68231728   0.268   5.013   3.417 -2.1168  0.9308 -0.1323
   44MOL   H68331729   0.224   5.141   3.667  0.0201  0.1811  0.6089
   44MOL   H68431730   7.265   4.624   3.852  1.6055  1.2184 -0.8434
   44MOL   H68531731   7.200   4.475   4.040 -0.5850 -2.6111  0.2882
   44MOL   C68631732   0.405   5.182   3.577  0.1938  0.1253 -0.2081
   44MOL   O68731733   0.502   5.153   3.511 -0.5049  0.0648  0.0353
   44MOL   C68831734   0.397   5.317   3.648 -0.3343 -0.1355 -0.2484
   44MOL   C68931735   0.516   5.374   3.699 -0.2297 -0.6703  0.1332
   44MOL   C69031736   0.518   5.495   3.771  0.0065 -0.5402  0.0447
   44MOL   C69131737   0.400   5.572   3.777 -0.4917  0.2681 -0.3786
   44MOL   C69231738   0.403   5.700   3.855 -0.2974  0.4203 -0.1200
   44MOL   O69331739   0.499   5.719   3.927  0.4883  0.1525  0.0800
   44MOL   N69431740   0.313   5.790   3.816 -0.8204 -1.6515  0.8528
   44MOL   C69531741   0.298   5.917   3.883  0.2158  0.4305 -0.0837
   44MOL   C69631742   0.222   5.893   4.010 -1.0586 -0.2172 -0.6879
   44MOL   C69731743   0.174   6.025   4.082 -0.5254 -0.1949  0.4036
   44MOL   C69831744   0.089   5.996   4.203 -0.4214  0.1807 -0.1883
   44MOL   C69931745   0.033   6.127   4.248 -0.0522 -0.2113  0.0809
   44MOL   C70031746   7.818   6.112   4.356  0.0123  0.5668 -0.0062
   44MOL   N70131747   7.761   6.243   4.390 -0.0274 -0.7776 -0.0195
   44MOL   C70231748   0.279   5.511   3.725 -0.3797  0.3016  0.0692
   44MOL   C70331749   0.276   5.384   3.672 -0.0609  0.2627  0.5615
   44MOL   H70431750   0.612   5.327   3.683 -0.8885 -1.5990 -1.2243
   44MOL   H70531751   0.608   5.538   3.813  0.1281 -1.1632  0.4320
   44MOL   H70631752   0.257   5.760   3.738  0.8140 -0.3870 -0.8493
   44MOL   H70731753   0.398   5.954   3.908 -0.3524  0.6128  2.0354
   44MOL   H70831754   0.248   5.986   3.815  0.5068 -0.0714 -0.8186
   44MOL   H70931755   0.285   5.846   4.085 -0.4620  0.6476 -0.6397
   44MOL   H71031756   0.139   5.823   4.001  0.7739 -2.5008 -0.1724
   44MOL   H71131757   0.256   6.094   4.097  0.9291 -1.5180 -1.2139
   44MOL   H71231758   0.104   6.066   4.009  1.4563 -0.9736 -2.0138
   44MOL   H71331759   0.152   5.955   4.282 -1.3189  1.4387  1.2020
   44MOL   H71431760   0.013   5.923   4.177  0.5213 -0.5298 -0.9925
   44MOL   H71531761   7.865   6.170   4.164  0.2483  2.2935  1.1563
   44MOL   H71631762   0.113   6.199   4.264 -0.8633  0.1315  2.7982
   44MOL   H71731763   7.739   6.043   4.326 -0.2973 -0.1016  2.1861
   44MOL   H71831764   7.870   6.075   4.445  0.4924  0.9348 -0.1332
   44MOL   H71931765   7.677   6.233   4.444 -0.2657 -0.1626 -0.2728
   44MOL   H72031766   0.182   5.554   3.744 -1.2842 -1.8234  0.3635
   44MOL   H72131767   0.188   5.341   3.626 -0.1275  3.5864 -2.6924
   44MOL   H72231768   7.730   6.274   4.299  1.0877  2.0568  0.5346
   45MOL     C131769   1.202   7.069   0.628 -0.1034  0.7678 -0.3744
   45MOL     O231770   1.109   7.094   0.559  0.0085 -0.2963 -0.4353
   45MOL     C331771   1.334   7.138   0.632  0.1909 -0.5620 -0.7208
   45MOL     C431772   1.348   7.262   0.564  0.2430 -0.2804 -0.0042
   45MOL     C531773   1.474   7.323   0.564 -0.0793 -0.1368 -0.4858
   45MOL     C631774   1.582   7.258   0.623  0.0791  0.4804  0.2420
   45MOL     C731775   1.727   7.318   0.612 -0.0368  0.1166  0.6559
   45MOL     O831776   1.821   7.265   0.666 -0.8499 -0.1747  0.1147
   45MOL     N931777   1.733   7.430   0.548 -0.0489 -0.1508  0.3276
   45MOL    C1031778   1.856   7.511   0.539  0.4529 -0.2165 -0.0320
   45MOL    C1131779   1.839   7.624   0.441  0.3209 -0.0777  0.3478
   45MOL    C1231780   1.958   7.717   0.439 -0.2768  0.3243  0.2709
   45MOL    C1331781   2.084   7.662   0.375  0.1040 -0.5992  0.5805
   45MOL    C1431782   2.185   7.766   0.332  0.0907  0.6676 -0.3567
   45MOL    C1531783   2.314   7.704   0.274  0.1321  0.1908 -1.1940
   45MOL    N1631784   2.410   7.795   0.221 -0.4954  0.1070  0.3655
   45MOL    C1731785   1.567   7.138   0.697  0.1239 -0.1082  0.3031
   45MOL    C1831786   1.440   7.081   0.705  0.3758  0.1806  0.1102
   45MOL    H1931787   1.263   7.299   0.507  1.0469 -1.0405 -1.7394
   45MOL    H2031788   1.487   7.405   0.495  0.3223 -0.1638 -0.4445
   45MOL    H2131789   1.647   7.458   0.503  1.3650  0.9426 -1.7652
   45MOL    H2231790   1.870   7.550   0.640 -0.6189  1.2956 -0.4438
   45MOL    H2331791   1.946   7.457   0.511  0.0018 -0.5646 -0.8182
   45MOL    H2431792   1.762   7.694   0.474 -0.4068 -1.2324  1.1481
   45MOL    H2531793   1.815   7.580   0.345  0.2668 -4.3602  2.1902
   45MOL    H2631794   1.934   7.806   0.379  1.7062 -0.6995 -2.1342
   45MOL    H2731795   1.978   7.756   0.538 -4.2120  1.6241  0.6504
   45MOL    H2831796   2.055   7.599   0.291  0.1475  1.0060 -0.6621
   45MOL    H2931797   2.140   7.603   0.447  3.1974  1.1301 -0.3139
   45MOL    H3031798   2.199   7.837   0.414 -1.8467  1.7210 -0.9047
   45MOL    H3131799   2.149   7.821   0.245  1.8251  1.6527 -0.4669
   45MOL    H3231800   2.371   7.669   0.360 -0.8160 -0.1397 -0.6967
   45MOL    H3331801   2.285   7.621   0.210  1.5577 -0.2403 -1.2987
   45MOL    H3431802   2.413   7.880   0.275  0.7476 -0.4281  1.1882
   45MOL    H3531803   1.642   7.104   0.766  1.3544 -1.4199 -1.6289
   45MOL    H3631804   1.430   6.991   0.765 -1.8276 -0.0056 -0.4578
   45MOL    H3731805   1.188   7.001   0.712  1.5361  0.6552 -0.1835
   45MOL    C3831806   2.502   7.765   0.131 -0.1582  0.1791  0.1344
   45MOL    O3931807   2.525   7.651   0.086 -0.0384 -0.1676 -0.2662
   45MOL    C4031808   2.589   7.876   0.090 -0.4718  0.6515 -0.0335
   45MOL    C4131809   2.550   0.125   0.107  0.5217  0.1096 -0.4821
   45MOL    C4231810   2.648   0.224   0.074 -0.1141 -0.4284  0.7071
   45MOL    C4331811   2.774   0.199   0.009 -0.7212 -0.7950  0.4746
   45MOL    C4431812   2.867   0.310   7.872  0.4135 -0.0878  0.0227
   45MOL    O4531813   2.886   0.400   0.070  0.3304  0.1129  0.4462
   45MOL    N4631814   2.932   0.308   7.749 -0.5699  0.0633 -0.2967
   45MOL    C4731815   3.024   0.419   7.714 -0.6350 -0.4955  0.0823
   45MOL    C4831816   3.013   0.454   7.568 -0.8677  0.4176  0.6172
   45MOL    C4931817   2.872   0.511   7.531 -1.0205  0.2530 -0.2982
   45MOL    C5031818   2.850   0.520   7.378  0.0633  0.1527 -0.0777
   45MOL    C5131819   2.710   0.543   7.319 -0.4456  0.6803 -0.1470
   45MOL    C5231820   2.719   0.511   7.168 -0.0129 -0.1224 -0.2282
   45MOL    N5331821   2.591   0.537   7.094  0.3126 -0.9442  0.5609
   45MOL    C5431822   2.812   0.062   7.885  0.0536  0.8870  0.5719
   45MOL    C5531823   2.722   7.850   0.033 -0.0479  0.4640  0.2188
   45MOL    H5631824   2.458   0.148   0.158 -0.0322 -1.5016 -0.7081
   45MOL    H5731825   2.627   0.327   0.101 -1.3505 -0.6756  0.7076
   45MOL    H5831826   2.890   0.255   7.674 -1.0236 -0.2063  0.1532
   45MOL    H5931827   3.009   0.505   7.780  0.2399 -0.4406  0.2225
   45MOL    H6031828   3.124   0.379   7.734  0.3607  3.2271  3.2466
   45MOL    H6131829   3.031   0.363   7.510 -0.0095 -0.0889  1.6672
   45MOL    H6231830   3.092   0.523   7.537  0.6301 -1.6936 -0.4559
   45MOL    H6331831   2.808   0.437   7.577 -1.7548  0.6508 -0.6684
   45MOL    H6431832   2.854   0.600   7.591 -0.4691  0.3764 -0.3114
   45MOL    H6531833   2.885   0.424   7.340  2.7495 -0.0437  2.6341
   45MOL    H6631834   2.906   0.597   7.326 -1.4457  0.5375 -1.1558
   45MOL    H6731835   2.679   0.645   7.339 -1.6840  0.5470 -1.3321
   45MOL    H6831836   2.625   0.483   7.351 -1.2977  1.3029 -1.2160
   45MOL    H6931837   2.799   0.558   7.110 -1.7078  3.5294  0.2647
   45MOL    H7031838   2.736   0.404   7.153  2.4781 -0.3822  3.6701
   45MOL    H7131839   2.584   0.626   7.047  3.0444 -2.5515 -3.1095
   45MOL    H7231840   2.909   0.028   7.850 -0.1611 -0.2022  1.0025
   45MOL    H7331841   2.741   7.743   0.039 -0.9713  0.3273  0.8832
   45MOL    C7431842   2.486   0.448   7.072 -0.1097 -0.3155  0.0691
   45MOL    O7531843   2.495   0.331   7.110  0.5276  0.0826 -0.1646
   45MOL    C7631844   2.370   0.499   6.992  0.1691 -0.2357 -0.4565
   45MOL    C7731845   2.249   0.509   7.070 -0.2806  0.7157  0.0134
   45MOL    C7831846   2.143   0.569   7.006  0.5690  0.5402 -1.4152
   45MOL    C7931847   2.145   0.609   6.868 -0.0163 -0.2766 -0.6612
   45MOL    C8031848   2.020   0.668   6.805 -0.1340 -0.4415 -0.4892
   45MOL    O8131849   2.009   0.689   6.683  0.2050 -0.0414  0.0402
   45MOL    N8231850   1.922   0.687   6.894 -0.5918 -0.1097  0.0161
   45MOL    C8331851   1.780   0.729   6.865  0.5827 -0.1523  0.0740
   45MOL    C8431852   1.708   0.768   6.998 -0.8966  0.2531 -0.1766
   45MOL    C8531853   1.699   0.666   7.109 -0.3198 -0.2745  0.6809
   45MOL    C8631854   1.572   0.653   7.187 -0.1071 -0.4214 -0.1460
   45MOL    C8731855   1.528   0.779   7.261  0.1906  0.6157  0.0705
   45MOL    C8831856   1.562   0.791   7.413  0.0372  0.2755  0.2649
   45MOL    N8931857   1.692   0.729   7.449  1.1073 -0.1984  0.6158
   45MOL    C9031858   2.261   0.600   6.793  0.0539  0.4394  0.0276
   45MOL    C9131859   2.375   0.550   6.858 -0.4717  0.3154  0.4344
   45MOL    H9231860   2.235   0.488   7.174  1.1818 -1.6535 -0.2304
   45MOL    H9331861   2.057   0.588   7.069  1.3138 -1.3348  0.1917
   45MOL    H9431862   1.939   0.662   6.990  0.4546  0.7908  0.0824
   45MOL    H9531863   1.778   0.810   6.792 -2.6662 -1.7846 -1.8061
   45MOL    H9631864   1.727   0.643   6.822  0.2891  0.0507  0.0244
   45MOL    H9731865   1.611   0.810   6.972 -0.6225  1.3582  0.5489
   45MOL    H9831866   1.768   0.854   7.030 -0.1041 -0.5280  0.4700
   45MOL    H9931867   1.691   0.569   7.061 -0.7873 -0.4247  1.0560
   45MOL   H10031868   1.781   0.679   7.181 -0.1366  1.7217  0.1602
   45MOL   H10131869   1.569   0.576   7.264  0.9538 -0.2321  0.0878
   45MOL   H10231870   1.493   0.626   7.116  1.1352  1.2893 -2.2443
   45MOL   H10331871   1.420   0.796   7.251  0.0021 -1.0007 -0.9505
   45MOL   H10431872   1.581   0.859   7.209 -0.0090  0.5684 -0.2096
   45MOL   H10531873   1.565   0.896   7.442 -0.2448  0.6472 -1.0388
   45MOL   H10631874   1.484   0.743   7.472  0.4077 -1.6284 -0.7640
   45MOL   H10731875   1.706   0.630   7.434 -0.6566 -0.1906 -1.2280
   45MOL   H10831876   2.262   0.634   6.690 -0.0144  2.2056  0.5862
   45MOL   H10931877   2.466   0.549   6.800  0.3146 -1.3390  1.6467
   45MOL   C11031878   1.788   0.800   7.502 -0.4060 -0.0070 -0.2177
   45MOL   O11131879   1.786   0.922   7.510  0.0448  0.1633  0.5332
   45MOL   C11231880   1.903   0.713   7.550  0.6329 -0.2698 -0.3524
   45MOL   C11331881   1.954   0.609   7.473 -0.3231 -0.2032  0.0130
   45MOL   C11431882   2.067   0.534   7.513 -0.1213  0.8890  0.0327
   45MOL   C11531883   2.134   0.554   7.636  0.5069  0.0573 -0.0594
   45MOL   C11631884   2.250   0.480   7.700  0.3183 -0.1413  0.2357
   45MOL   O11731885   2.258   0.463   7.826 -0.3376  0.5917 -0.2559
   45MOL   N11831886   2.348   0.435   7.625  0.8209 -0.4229 -0.3298
   45MOL   C11931887   2.447   0.338   7.669  0.1593  0.1247  0.4546
   45MOL   C12031888   2.530   0.293   7.542 -0.4489  0.6282 -0.6711
   45MOL   C12131889   2.449   0.267   7.405 -0.8795 -0.2159 -0.4956
   45MOL   C12231890   2.350   0.155   7.422  0.7888  0.2238  0.4972
   45MOL   C12331891   2.272   0.126   7.293 -0.2153 -0.1257  0.0952
   45MOL   C12431892   2.158   0.020   7.315  0.9946 -0.4224 -0.8710
   45MOL   N12531893   2.221   7.781   7.361  0.7301  0.1987 -0.4369
   45MOL   C12631894   2.071   0.645   7.722  0.0007 -0.4727 -0.1636
   45MOL   C12731895   1.970   0.730   7.678 -0.3477  0.0825 -0.1382
   45MOL   H12831896   1.912   0.596   7.374 -1.0537  1.8713  0.0288
   45MOL   H12931897   2.109   0.457   7.451  2.4900  2.8000 -0.6882
   45MOL   H13031898   2.340   0.463   7.528  0.6045 -2.0566 -0.8080
   45MOL   H13131899   2.506   0.371   7.755  1.0620 -1.2523  0.3889
   45MOL   H13231900   2.394   0.253   7.709  0.5855 -0.3228  0.0858
   45MOL   H13331901   2.588   0.203   7.564 -0.9215  0.6778  0.7991
   45MOL   H13431902   2.604   0.373   7.535 -1.5865  1.7983  0.3725
   45MOL   H13531903   2.399   0.353   7.360 -0.6920 -0.5373 -1.3378
   45MOL   H13631904   2.533   0.244   7.339  0.4563 -0.1841  1.1580
   45MOL   H13731905   2.280   0.198   7.493 -0.4577  0.5996 -0.9374
   45MOL   H13831906   2.397   0.072   7.475  0.6456  1.4588  2.6359
   45MOL   H13931907   2.338   0.113   7.207  0.9450  1.6162  0.7116
   45MOL   H14031908   2.224   0.219   7.262 -2.4357 -0.6415  1.7909
   45MOL   H14131909   2.084   0.064   7.381  1.9344  1.4187 -1.0113
   45MOL   H14231910   2.115   0.007   7.216 -1.8255 -1.4692  0.4543
   45MOL   H14331911   2.306   7.750   7.317 -1.1688 -1.1161 -3.2996
   45MOL   H14431912   2.116   0.659   7.820  0.8351 -1.0986 -0.4473
   45MOL   H14531913   1.939   0.808   7.745 -0.1469 -0.3481  0.4570
   45MOL   C14631914   2.157   7.684   7.424  0.2631  0.8990  0.1161
   45MOL   O14731915   2.035   7.699   7.456 -0.2174 -0.3718  0.4679
   45MOL   C14831916   2.225   7.554   7.446 -0.6908  1.0241 -0.0228
   45MOL   C14931917   2.362   7.541   7.471  1.1556 -0.5461 -0.6904
   45MOL   C15031918   2.415   7.412   7.495 -0.6867 -0.0176  0.4394
   45MOL   C15131919   2.335   7.299   7.499 -0.9532 -0.2860  0.3879
   45MOL   C15231920   2.414   7.173   7.500 -0.7154  0.1479  0.6581
   45MOL   O15331921   2.431   7.102   7.397  0.0348 -0.4987  0.2848
   45MOL   N15431922   2.465   7.149   7.626 -0.4808 -0.3367 -0.0341
   45MOL   C15531923   2.527   7.024   7.664 -0.1628 -0.0880  0.5042
   45MOL   C15631924   2.482   6.975   7.800 -0.1044  0.9431  0.4911
   45MOL   C15731925   2.576   6.864   7.837 -0.4519  0.7885 -0.3884
   45MOL   C15831926   2.545   6.794   0.081  0.0156 -0.3019 -0.5535
   45MOL   C15931927   2.417   6.711   0.084  0.2641 -0.4097 -0.3209
   45MOL   C16031928   2.403   6.600   7.874  0.3996  0.4091 -0.6604
   45MOL   N16131929   2.281   6.516   0.006  0.7132 -0.1212 -0.3516
   45MOL   C16231930   2.201   7.310   7.467 -0.2898  0.3395 -0.7146
   45MOL   C16331931   2.143   7.436   7.445 -0.2026  0.3088  0.1860
   45MOL   H16431932   2.426   7.627   7.475  1.3935 -0.7182 -0.7502
   45MOL   H16531933   2.520   7.412   7.520 -0.7491  1.3479  0.6887
   45MOL   H16631934   2.432   7.202   7.705  0.1847  1.2475 -0.7816
   45MOL   H16731935   2.505   6.940   7.598  0.1038  0.2052  0.0442
   45MOL   H16831936   2.635   7.038   7.669 -0.0494 -1.1540  1.4160
   45MOL   H16931937   2.380   6.935   7.795  0.3745 -0.4528  1.3182
   45MOL   H17031938   2.493   7.051   7.877 -1.5215  3.0524 -1.3397
   45MOL   H17131939   2.564   6.792   7.756 -2.2589  2.1290 -1.3660
   45MOL   H17231940   2.679   6.900   7.837 -0.1082 -0.1732  0.2726
   45MOL   H17331941   2.548   6.869   0.160  1.1472 -0.3427 -0.5400
   45MOL   H17431942   2.634   6.733   0.100  0.0001 -0.3780 -0.7221
   45MOL   H17531943   2.330   6.778   0.089 -1.8542 -3.0926  0.1572
   45MOL   H17631944   2.410   6.660   0.179  0.4884 -2.0350 -1.1626
   45MOL   H17731945   2.397   6.641   7.774  0.1614  2.1323  0.0298
   45MOL   H17831946   2.500   6.552   0.002 -0.2005 -0.2488  1.5235
   45MOL   H17931947   2.199   6.558   0.048  1.4983  2.2353 -1.1051
   45MOL   H18031948   2.133   7.231   7.442  0.1685 -0.3697  0.2589
   45MOL   H18131949   2.037   7.441   7.423 -0.1929  0.8447  0.2473
   45MOL   C18231950   2.271   6.395   7.843  0.2524 -0.2060 -0.3858
   45MOL   O18331951   2.366   6.339   7.787 -0.4793  0.8989  0.2220
   45MOL   C18431952   2.137   6.328   7.844  0.1490 -0.1425 -0.3542
   45MOL   C18531953   2.028   6.380   0.031  0.1512  0.6087  0.3831
   45MOL   C18631954   1.897   6.318   0.022 -0.2001 -0.3266  0.0830
   45MOL   C18731955   1.881   6.206   7.827  0.1284 -0.2888  0.2022
   45MOL   C18831956   1.751   6.127   7.824 -0.5493  0.2431 -0.1201
   45MOL   O18931957   1.645   6.182   7.800  0.4172 -0.0044  0.2984
   45MOL   N19031958   1.753   5.997   7.861 -0.2298 -1.1576  0.1197
   45MOL   C19131959   1.638   5.902   7.842 -0.2056  0.3829 -0.2532
   45MOL   C19231960   1.688   5.761   7.790 -0.4845 -0.2714  0.2699
   45MOL   C19331961   1.767   5.779   7.661  0.8322  0.0884 -0.6815
   45MOL   C19431962   1.798   5.642   7.597  0.7697 -0.3398  0.3285
   45MOL   C19531963   1.872   5.664   7.459 -0.3371 -0.2012  0.0829
   45MOL   C19631964   2.028   5.666   7.481  0.2106  0.6280  0.3204
   45MOL   N19731965   2.093   5.696   7.358 -0.1473  0.3304 -0.5901
   45MOL   C19831966   1.990   6.153   7.750 -0.7539 -0.5457  0.4760
   45MOL   C19931967   2.116   6.215   7.757 -0.6025 -0.8505 -0.6005
   45MOL   H20031968   2.054   6.459   0.100 -1.3671  1.8579 -0.4415
   45MOL   H20131969   1.816   6.345   0.089 -1.3646 -0.8279 -1.1017
   45MOL   H20231970   1.839   5.956   0.011  0.1398 -1.6196 -1.2487
   45MOL   H20331971   1.582   5.881   0.047  2.1916  1.7210  1.5835
   45MOL   H20431972   1.569   5.934   7.765  1.0784  2.5025 -0.5704
   45MOL   H20531973   1.605   5.693   7.776 -0.7098  0.0300  0.1498
   45MOL   H20631974   1.760   5.732   7.867  0.2959  1.3625  0.1914
   45MOL   H20731975   1.700   5.831   7.593  0.4183  1.2625  0.5901
   45MOL   H20831976   1.854   5.843   7.675  1.2955 -0.9260  1.2904
   45MOL   H20931977   1.705   5.589   7.574  0.6301  0.7569 -1.7556
   45MOL   H21031978   1.861   5.596   7.672 -1.2224  2.2849  3.7920
   45MOL   H21131979   1.846   5.766   7.431 -0.1889 -0.6778 -1.8530
   45MOL   H21231980   1.828   5.593   7.389 -1.8456 -0.8187  1.6127
   45MOL   H21331981   2.058   5.737   7.558  0.5747 -0.5599  1.2796
   45MOL   H21431982   2.070   5.573   7.519  3.3428  1.2485 -1.4358
   45MOL   H21531983   2.110   5.792   7.332  0.4277 -0.1176 -1.8568
   45MOL   H21631984   1.983   6.058   7.699  1.2475 -0.3994 -0.1301
   45MOL   H21731985   2.196   6.182   7.692 -0.0822  0.2911 -0.5548
   45MOL   C21831986   2.125   5.602   7.272  0.7513  0.1480 -1.0388
   45MOL   O21931987   2.113   5.483   7.292  0.1275 -0.5054  0.0585
   45MOL   C22031988   2.194   5.647   7.148  0.2136  0.2008 -0.2166
   45MOL   C22131989   2.288   5.563   7.082 -0.2034  0.0074 -0.2655
   45MOL   C22231990   2.340   5.601   6.954 -0.3272  0.1552  0.8741
   45MOL   C22331991   2.307   5.729   6.899 -1.3033  0.0186  0.7280
   45MOL   C22431992   2.341   5.765   6.761  0.0552 -0.0928 -0.4459
   45MOL   O22531993   2.434   5.704   6.712 -0.0519  0.4453 -0.3111
   45MOL   N22631994   2.290   5.872   6.697  0.2771  0.1983 -0.4975
   45MOL   C22731995   2.327   5.903   6.561  0.1789  0.2570 -0.7304
   45MOL   C22831996   2.256   6.025   6.498 -0.3153 -0.3805  0.6241
   45MOL   C22931997   2.305   6.051   6.350 -0.2255 -0.2432 -0.3085
   45MOL   C23031998   2.237   6.165   6.265  0.1211 -0.1895  0.5676
   45MOL   C23131999   2.318   6.218   6.141 -0.0221 -0.4048 -0.0936
   45MOL   C23232000   2.269   6.346   6.070  0.9074 -0.9641  0.3318
   45MOL   N23332001   2.124   6.353   6.041  0.1297  0.2659 -0.4577
   45MOL   C23432002   2.226   5.818   6.981 -0.9241 -0.4298  0.1277
   45MOL   C23532003   2.158   5.774   7.095 -0.0385  0.1748  0.2121
   45MOL   H23632004   2.313   5.465   7.120 -1.0845 -0.2029 -0.2059
   45MOL   H23732005   2.381   5.520   6.895 -1.4631  0.2759 -0.1003
   45MOL   H23832006   2.231   5.931   6.753  0.2364  0.0075 -0.3414
   45MOL   H23932007   2.433   5.929   6.559  1.1381 -3.2910  0.0538
   45MOL   H24032008   2.306   5.825   6.487  1.2555  0.7252 -1.5612
   45MOL   H24132009   2.275   6.120   6.548 -0.5197 -0.6344  1.1858
   45MOL   H24232010   2.148   6.021   6.511 -0.4448 -1.2455 -0.5863
   45MOL   H24332011   2.412   6.071   6.359 -0.3890  0.4330  0.1334
   45MOL   H24432012   2.300   5.952   6.304 -1.9079 -0.0656 -0.5431
   45MOL   H24532013   2.225   6.253   6.329  1.6449  2.5137 -2.7023
   45MOL   H24632014   2.138   6.138   6.229  0.6467  0.2802 -1.3088
   45MOL   H24732015   2.321   6.137   6.068  1.1160  0.2408 -0.7678
   45MOL   H24832016   2.424   6.231   6.166  0.0521  0.3809 -0.8235
   45MOL   H24932017   2.278   6.428   6.141 -1.7972 -0.0682 -0.2982
   45MOL   H25032018   2.326   6.389   5.988  0.8253  0.4483  1.0145
   45MOL   H25132019   2.063   6.353   6.122  0.1791 -4.3300 -0.3164
   45MOL   H25232020   2.204   5.916   6.942  0.6031 -0.3973 -0.6704
   45MOL   H25332021   2.089   5.838   7.148  1.4057 -0.2112  2.6735
   45MOL   C25432022   2.065   6.373   5.924 -0.8629 -0.6139  0.7989
   45MOL   O25532023   2.132   6.383   5.817 -0.0154  0.2593 -0.5360
   45MOL   C25632024   1.913   6.381   5.915  0.6410 -0.8093  0.0906
   45MOL   C25732025   1.854   6.440   5.807 -0.2004  0.3564  0.3935
   45MOL   C25832026   1.710   6.455   5.808  0.9362 -0.6933 -0.3264
   45MOL   C25932027   1.633   6.406   5.912  0.0355 -0.7375 -0.5994
   45MOL   C26032028   1.485   6.421   5.923 -0.0996  0.3152  0.1794
   45MOL   O26132029   1.430   6.393   6.026  0.3477 -0.0997  0.0907
   45MOL   N26232030   1.424   6.460   5.811 -0.3088 -0.2023  0.2460
   45MOL   C26332031   1.279   6.484   5.797  0.0092  0.5807 -0.2437
   45MOL   C26432032   1.236   6.623   5.835  0.0141 -0.1499 -0.3270
   45MOL   C26532033   1.281   6.691   5.962 -0.0242  0.1056 -0.1668
   45MOL   C26632034   1.229   6.835   5.963  0.3346  0.1618 -0.1591
   45MOL   C26732035   1.297   6.923   6.069 -0.0141 -0.3392  0.3267
   45MOL   C26832036   1.256   7.064   6.086 -0.2544  0.1497  0.3726
   45MOL   N26932037   1.350   7.137   6.175 -0.3983  0.1061 -0.3830
   45MOL   C27032038   1.704   6.338   6.019 -0.0474  0.3734 -0.0184
   45MOL   C27132039   1.839   6.316   6.019  0.0850 -0.2659 -0.4160
   45MOL   H27232040   1.908   6.479   5.721 -1.8754 -0.2217 -0.9444
   45MOL   H27332041   1.662   6.509   5.728 -1.1853 -1.9409  0.0700
   45MOL   H27432042   1.480   6.445   5.729 -0.9362 -0.9678 -0.0548
   45MOL   H27532043   1.250   6.459   5.695 -1.8745  0.0270  0.4162
   45MOL   H27632044   1.231   6.410   5.861  1.2455 -0.0268 -0.0026
   45MOL   H27732045   1.129   6.634   5.822 -0.2115 -1.3005  0.4251
   45MOL   H27832046   1.268   6.681   5.749 -0.9864 -0.4480 -0.9033
   45MOL   H27932047   1.248   6.636   6.050 -0.6256 -1.6660 -1.4715
   45MOL   H28032048   1.389   6.687   5.980  0.1975  0.9983 -1.2406
   45MOL   H28132049   1.124   6.820   5.988  0.2886 -1.3870 -1.2046
   45MOL   H28232050   1.225   6.879   5.864 -1.8635  0.6788  0.1201
   45MOL   H28332051   1.405   6.923   6.055 -0.1715 -0.4619 -0.9251
   45MOL   H28432052   1.276   6.871   6.163  0.9063  1.2203  1.4152
   45MOL   H28532053   1.250   7.104   5.985  0.6609  0.6905  0.5212
   45MOL   H28632054   1.157   7.086   6.125  0.7513  0.9226  2.5919
   45MOL   H28732055   1.388   7.091   6.257 -0.5669  2.0399  0.8146
   45MOL   H28832056   1.644   6.299   6.100  1.0563  0.9570  1.1026
   45MOL   H28932057   1.884   6.266   6.104  0.9826  0.5242 -0.4167
   45MOL   C29032058   1.400   7.258   6.136 -1.0920 -0.1264 -0.0684
   45MOL   O29132059   1.360   7.315   6.034 -0.0726 -0.2329 -0.1237
   45MOL   C29232060   1.499   7.321   6.231 -0.4068  0.1507  0.2147
   45MOL   C29332061   1.520   7.278   6.364  0.7059  0.0573 -0.5623
   45MOL   C29432062   1.617   7.339   6.451 -0.2849  0.3656  0.5318
   45MOL   C29532063   1.697   7.439   6.405 -0.0238  0.2293  0.5299
   45MOL   C29632064   1.819   7.476   6.483 -0.2178  0.1570 -0.9279
   45MOL   O29732065   1.843   7.434   6.592  0.1085 -0.0319 -0.6117
   45MOL   N29832066   1.897   7.563   6.409 -0.0929  0.0193  0.1944
   45MOL   C29932067   2.024   7.620   6.451  0.0047  0.0972  0.4243
   45MOL   C30032068   2.150   7.547   6.385  0.2323 -0.5815 -0.7569
   45MOL   C30132069   2.285   7.600   6.435 -0.1478 -0.4071 -0.6965
   45MOL   C30232070   2.315   7.564   6.591 -0.2624 -0.6792  0.6484
   45MOL   C30332071   2.346   7.415   6.606 -0.3217 -0.3514  0.3646
   45MOL   C30432072   2.411   7.382   6.741  0.2687  0.2017 -0.5233
   45MOL   N30532073   2.440   7.239   6.755  0.2096  1.0955 -0.0826
   45MOL   C30632074   1.666   7.492   6.273  0.8794  0.2292 -0.5219
   45MOL   C30732075   1.575   7.433   6.189  0.1011 -0.6434 -0.0466
   45MOL   H30832076   1.461   7.194   6.397  1.8973 -1.3582 -1.9485
   45MOL   H30932077   1.630   7.292   6.547 -0.7090  0.4566  0.6335
   45MOL   H31032078   1.857   7.591   6.321 -0.1301 -0.4562  0.0581
   45MOL   H31132079   2.026   7.727   6.433 -0.3311  0.3407  1.7709
   45MOL   H31232080   2.023   7.608   6.559 -1.3079  0.8156  0.5057
   45MOL   H31332081   2.152   7.561   6.277  1.1047  0.7667 -0.5735
   45MOL   H31432082   2.132   7.440   6.398  0.6245 -0.3879  1.5439
   45MOL   H31532083   2.364   7.565   6.369  0.4644 -0.3972  0.0315
   45MOL   H31632084   2.289   7.708   6.419 -0.2567 -0.3424 -0.3117
   45MOL   H31732085   2.225   7.584   6.649 -0.0809 -0.6911  0.9347
   45MOL   H31832086   2.393   7.628   6.633 -0.1605 -1.0596  1.0447
   45MOL   H31932087   2.416   7.402   6.523  0.0103 -0.0730  0.5990
   45MOL   H32032088   2.259   7.351   6.594  0.0952 -0.3846 -2.9600
   45MOL   H32132089   2.493   7.452   6.758  1.2564 -0.5427 -2.1686
   45MOL   H32232090   2.331   7.396   6.815  0.9999 -1.6530  0.6531
   45MOL   H32332091   2.374   7.179   6.802  0.3600  1.5548  0.7195
   45MOL   H32432092   1.733   7.562   6.226  2.8547 -1.5849 -0.4959
   45MOL   H32532093   1.571   7.483   6.094 -0.2335  1.1277  0.8811
   45MOL   C32632094   2.560   7.181   6.716 -0.5117 -0.1248 -1.1256
   45MOL   O32732095   2.654   7.254   6.674  0.1619 -0.3008 -0.6062
   45MOL   C32832096   2.579   7.037   6.744  0.0768 -1.0555  0.0603
   45MOL   C32932097   2.493   6.946   6.684  0.3674 -0.4164  0.5408
   45MOL   C33032098   2.502   6.803   6.703 -0.3946 -0.0848  0.0378
   45MOL   C33132099   2.610   6.755   6.775 -0.2287  0.3106  0.2338
   45MOL   C33232100   2.640   6.604   6.805  0.4178  1.0831 -0.6538
   45MOL   O33332101   2.554   6.517   6.811 -0.1712 -0.1115 -0.3425
   45MOL   N33432102   2.768   6.572   6.811  0.1547  0.5277  0.3039
   45MOL   C33532103   2.834   6.440   6.828  0.3987  0.3374 -0.5938
   45MOL   C33632104   2.934   6.449   6.948 -0.0104  0.2728 -0.3935
   45MOL   C33732105   2.866   6.472   7.075  0.6810 -0.3001 -0.0489
   45MOL   C33832106   2.958   6.525   7.189  0.1959  0.0531  0.1542
   45MOL   C33932107   2.987   6.672   7.183  0.2159 -0.5375  0.4101
   45MOL   C34032108   3.093   6.715   7.280 -0.4064  0.0661 -0.8321
   45MOL   N34132109   3.134   6.852   7.243 -0.1388  0.2603  0.3920
   45MOL   C34232110   2.698   6.853   6.833 -0.5549  0.2173  0.0555
   45MOL   C34332111   2.685   6.991   6.816 -0.7589  0.3790  0.3470
   45MOL   H34432112   2.413   6.977   6.619 -1.1485 -3.4223  0.8545
   45MOL   H34532113   2.443   6.728   6.653 -2.0696  0.7237  0.7646
   45MOL   H34632114   2.832   6.650   6.807  1.2747 -0.3784  0.2698
   45MOL   H34732115   2.772   6.353   6.848  0.3559  1.4139  4.7215
   45MOL   H34832116   2.881   6.418   6.733  1.8445 -1.9499  0.6185
   45MOL   H34932117   2.996   6.538   6.935 -0.1538  0.6925  1.6944
   45MOL   H35032118   2.997   6.361   6.955  0.2033  0.4469 -0.1327
   45MOL   H35132119   2.785   6.544   7.065  0.2284 -0.3873  2.5936
   45MOL   H35232120   2.820   6.382   7.114  0.6084 -1.0151 -1.7749
   45MOL   H35332121   3.054   6.472   7.193  1.0774  1.7362  1.8449
   45MOL   H35432122   2.902   6.497   7.278  0.3065 -2.7623 -0.6090
   45MOL   H35532123   2.899   6.731   7.208  0.8733  1.0826 -0.9777
   45MOL   H35632124   3.013   6.694   7.080  0.0060 -1.9687  0.0431
   45MOL   H35732125   3.054   6.720   7.381  2.4995  1.5890  0.2617
   45MOL   H35832126   3.169   6.637   7.286  0.3379  0.9053  0.7633
   45MOL   H35932127   3.074   6.917   7.194  2.2877  1.6198 -0.8589
   45MOL   H36032128   2.775   6.816   6.898  0.3349  1.2713 -0.3909
   45MOL   H36132129   2.754   7.060   6.862 -1.0382  0.9061 -0.0222
   45MOL   C36232130   3.257   6.895   7.257 -0.3689  0.0817 -0.5752
   45MOL   O36332131   3.348   6.827   7.298 -0.1245 -0.6338  0.2690
   45MOL   C36432132   3.285   7.043   7.223 -0.2776 -0.5021  0.2709
   45MOL   C36532133   3.205   7.139   7.279  0.5188 -0.8934 -0.2247
   45MOL   C36632134   3.215   7.281   7.249 -0.3836 -0.2443 -0.6076
   45MOL   C36732135   3.309   7.324   7.158  0.2304 -0.2735  0.5268
   45MOL   C36832136   3.323   7.474   7.125  0.5116 -0.7661  0.0279
   45MOL   O36932137   3.379   7.514   7.017  0.0941 -0.3673 -0.3656
   45MOL   N37032138   3.283   7.556   7.220 -0.1871  0.5128  0.3005
   45MOL   C37132139   3.229   7.687   7.208 -0.1783  0.0299  0.0578
   45MOL   C37232140   3.086   7.691   7.152  0.1751  0.1845 -0.7182
   45MOL   C37332141   3.042   7.835   7.113  1.0058 -0.1586 -0.1525
   45MOL   C37432142   2.896   7.852   7.077  0.0488 -0.0801  0.5938
   45MOL   C37532143   2.825   0.098   7.115 -0.2395 -0.1209  0.1620
   45MOL   C37632144   2.816   0.149   7.259 -0.2191 -0.3498 -0.0634
   45MOL   N37732145   2.789   0.033   7.345  0.7105 -0.0999  0.0953
   45MOL   C37832146   3.393   7.232   7.094 -0.1696  0.5176 -0.2035
   45MOL   C37932147   3.379   7.088   7.126 -0.2496 -0.2920 -0.3351
   45MOL   H38032148   3.140   7.120   7.363  1.0550  0.3984  0.4880
   45MOL   H38132149   3.148   7.346   7.305  0.9499  0.2078  0.4926
   45MOL   H38232150   3.265   7.508   7.308  2.2149  2.3806  1.8820
   45MOL   H38332151   3.245   7.739   7.302 -1.5142  2.5118 -1.0456
   45MOL   H38432152   3.287   7.750   7.141 -1.7981 -0.5984 -1.9845
   45MOL   H38532153   3.017   7.668   7.233 -0.4068  1.7750 -0.7486
   45MOL   H38632154   3.070   7.635   7.060  1.0497 -1.5992  0.2055
   45MOL   H38732155   3.047   0.001   7.209  0.6114 -0.1795 -0.1209
   45MOL   H38832156   3.106   7.878   7.036  0.1828  0.1160 -0.6891
   45MOL   H38932157   2.831   7.773   7.113  2.5917 -1.4131  2.3595
   45MOL   H39032158   2.891   7.837   6.969  2.8537 -0.7949  0.5163
   45MOL   H39132159   2.720   0.085   7.088  0.3090 -2.6543 -0.8697
   45MOL   H39232160   2.862   0.180   7.052  0.4030  0.1515  0.8911
   45MOL   H39332161   2.917   0.185   7.279  0.5865 -1.5049 -1.8960
   45MOL   H39432162   2.731   0.217   7.259 -0.4066 -0.5714 -1.2636
   45MOL   H39532163   2.739   7.846   7.297 -0.3124  1.6231 -1.5260
   45MOL   H39632164   3.473   7.256   7.026  0.5744 -2.3689 -0.4336
   45MOL   H39732165   3.452   7.019   7.087 -0.1017 -0.3091 -0.0254
   45MOL   C39832166   2.818   0.028   7.477 -0.3705 -0.2653 -0.4715
   45MOL   O39932167   2.882   0.116   7.538 -0.1546  0.3726 -0.1768
   45MOL   C40032168   2.785   7.786   7.548 -0.0747  0.0256 -0.2381
   45MOL   C40132169   2.874   7.683   7.546  0.6289  0.4763 -0.5783
   45MOL   C40232170   2.856   7.564   7.619 -0.5057 -0.1123  0.9310
   45MOL   C40332171   2.732   7.544   7.684  0.0386  0.1269 -0.3583
   45MOL   C40432172   2.712   7.408   7.756 -0.5564 -0.6311 -0.3717
   45MOL   O40532173   2.745   7.300   7.707  0.4650  0.0135  0.2991
   45MOL   N40632174   2.685   7.422   7.885  0.2104 -0.0631 -0.0409
   45MOL   C40732175   2.709   7.320   0.099 -0.7768  0.1777 -0.1426
   45MOL   C40832176   2.651   7.372   0.232 -0.0231  0.5206 -0.3688
   45MOL   C40932177   2.693   7.307   0.364 -0.2104  0.4789  0.0166
   45MOL   C41032178   2.615   7.382   0.479  0.4973  0.4001 -0.1360
   45MOL   C41132179   2.624   7.539   0.497  0.2300  0.8373 -0.0899
   45MOL   C41232180   2.767   7.588   0.512 -0.4398 -0.0848 -0.0933
   45MOL   N41332181   2.770   7.729   0.532 -0.3260  0.4957 -0.1828
   45MOL   C41432182   2.637   7.648   7.678  0.0367  0.0023 -0.6797
   45MOL   C41532183   2.660   7.769   7.608  0.4571 -0.2519 -0.8748
   45MOL   H41632184   2.971   7.697   7.500  1.9785  1.8604  2.5688
   45MOL   H41732185   2.934   7.490   7.623 -0.4937 -0.2133 -1.0868
   45MOL   H41832186   2.643   7.504   0.041  0.0638  0.5061 -1.2641
   45MOL   H41932187   2.679   7.219   0.070  0.6407 -0.3572  0.2115
   45MOL   H42032188   2.817   7.308   0.096 -0.8521 -0.1326 -2.3131
   45MOL   H42132189   2.545   7.394   0.217 -0.3099 -1.3070 -1.1821
   45MOL   H42232190   2.700   7.468   0.244 -0.8426  1.3439 -3.2661
   45MOL   H42332191   2.669   7.201   0.378 -0.7924  0.5632 -0.3120
   45MOL   H42432192   2.799   7.310   0.385 -0.0200  0.8433 -0.9713
   45MOL   H42532193   2.651   7.329   0.568 -3.4964  0.4536  1.6276
   45MOL   H42632194   2.508   7.361   0.482  0.5951 -0.1707 -0.5916
   45MOL   H42732195   2.571   7.547   0.592  0.2119  0.1161 -0.0409
   45MOL   H42832196   2.574   7.601   0.423  0.6626 -1.2095 -2.1520
   45MOL   H42932197   2.810   7.523   0.589 -0.7445  0.6707  0.7258
   45MOL   H43032198   2.820   7.558   0.422  0.7028  1.3404  0.0897
   45MOL   H43132199   2.693   7.795   0.528 -0.4811  0.2793 -0.8187
   45MOL   H43232200   2.542   7.630   7.727  0.1161  0.7652 -0.2234
   45MOL   H43332201   2.594   7.854   7.596  1.4114  0.8632  1.4897
   45MOL   C43432202   2.885   7.784   0.553  0.6378 -0.9721  0.2888
   45MOL   O43532203   2.993   7.730   0.561  0.8678 -0.1070 -0.2130
   45MOL   C43632204   2.879   0.050   0.537  1.1467  0.4752  0.8095
   45MOL   C43732205   2.963   0.133   0.612 -0.7677 -0.0111  0.8220
   45MOL   C43832206   2.976   0.268   0.593  0.1752  0.4565  0.0955
   45MOL   C43932207   2.912   0.331   0.487 -0.3232 -0.4204 -0.0753
   45MOL   C44032208   2.937   0.477   0.445  0.4527  0.0154  0.6734
   45MOL   O44132209   2.992   0.551   0.528  0.2390 -0.1219  0.0048
   45MOL   N44232210   2.897   0.532   0.323 -0.5719  0.3112  0.0485
   45MOL   C44332211   2.908   0.681   0.313  0.3357  0.1425 -0.6629
   45MOL   C44432212   2.870   0.728   0.170 -0.2846 -0.1192  0.1471
   45MOL   C44532213   2.724   0.690   0.116 -0.3591  0.1743 -0.1809
   45MOL   C44632214   2.710   0.674   7.853  0.6310  0.6825 -0.6561
   45MOL   C44732215   2.573   0.723   7.785 -0.0807  0.5814 -0.2814
   45MOL   C44832216   2.579   0.742   7.626  0.1520 -0.3173  0.1984
   45MOL   N44932217   2.456   0.796   7.566  0.0633  0.2011  0.4385
   45MOL   C45032218   2.826   0.250   0.412  0.2500 -0.8655 -0.4750
   45MOL   C45132219   2.804   0.111   0.435 -0.1521  0.8501 -0.5592
   45MOL   H45232220   3.022   0.104   0.698  1.5065  1.1147 -0.3297
   45MOL   H45332221   3.043   0.321   0.659  3.0540 -0.5801 -1.8830
   45MOL   H45432222   2.868   0.465   0.254  0.3883 -0.9472  0.8383
   45MOL   H45532223   2.831   0.734   0.370  0.0250  0.4863 -1.3971
   45MOL   H45632224   3.011   0.706   0.335  1.4346 -3.4689 -1.3406
   45MOL   H45732225   2.947   0.689   0.103 -0.4058  0.5334 -0.3740
   45MOL   H45832226   2.898   0.831   0.148  1.9881 -0.6903  0.2987
   45MOL   H45932227   2.681   0.603   0.165  1.0470 -1.1140 -1.2213
   45MOL   H46032228   2.655   0.769   0.147 -0.5096 -0.0612  0.0924
   45MOL   H46132229   2.731   0.571   7.824 -1.5670 -0.0509  0.2469
   45MOL   H46232230   2.791   0.727   7.803  1.5078 -2.1260 -2.3246
   45MOL   H46332231   2.529   0.806   7.842 -1.0416 -0.5629  0.6784
   45MOL   H46432232   2.497   0.647   7.803  1.1628 -0.5247  0.3204
   45MOL   H46532233   2.645   0.825   7.600 -1.3701  0.1686 -2.3689
   45MOL   H46632234   2.622   0.653   7.580 -0.0051  0.5857 -1.7657
   45MOL   H46732235   2.417   0.883   7.599 -2.0701  0.3359 -2.2751
   45MOL   H46832236   2.771   0.298   0.332  2.9667  1.9089 -0.7767
   45MOL   H46932237   2.743   0.049   0.372  1.4214  0.1702 -1.4293
   45MOL   C47032238   2.386   0.738   7.465 -0.2050  0.1465 -0.1169
   45MOL   O47132239   2.412   0.623   7.421  0.6870  0.2064 -0.0999
   45MOL   C47232240   2.276   0.822   7.396  0.1914  0.3190  0.1128
   45MOL   C47332241   2.248   0.805   7.256 -0.7220  0.7014  0.7082
   45MOL   C47432242   2.148   0.870   7.188  0.6161  0.0961  0.0041
   45MOL   C47532243   2.066   0.960   7.255  0.2535 -0.3108 -0.4606
   45MOL   C47632244   1.947   1.028   7.181  0.0422 -0.3113 -0.2620
   45MOL   O47732245   1.948   1.037   7.058  0.7827 -0.0358 -0.2375
   45MOL   N47832246   1.841   1.067   7.252 -0.3376 -0.2896 -0.0984
   45MOL   C47932247   1.740   1.147   7.193 -0.3506  0.2431  0.3840
   45MOL   C48032248   1.627   1.179   7.300 -0.3785  0.6072  0.9377
   45MOL   C48132249   1.520   1.279   7.269 -0.0266  0.0355 -0.3889
   45MOL   C48232250   1.560   1.433   7.265 -0.8542  0.5709  0.3888
   45MOL   C48332251   1.450   1.536   7.234  0.0430  0.1550  0.6964
   45MOL   C48432252   1.513   1.684   7.217  0.3182  0.1551  0.2193
   45MOL   N48532253   1.555   1.723   7.350 -0.6595  0.6516  0.0107
   45MOL   C48632254   2.091   0.981   7.392  0.3684  0.5116  0.0805
   45MOL   C48732255   2.197   0.913   7.462  0.7514  0.2989 -0.2797
   45MOL   H48832256   2.311   0.731   7.209 -1.4684  1.0517 -0.8767
   45MOL   H48932257   2.126   0.850   7.084 -2.4319 -1.2944  0.8790
   45MOL   H49032258   1.846   1.058   7.353  1.3361  1.0653 -0.0356
   45MOL   H49132259   1.785   1.240   7.160 -0.3920  0.0963 -0.0827
   45MOL   H49232260   1.695   1.094   7.109 -0.3650  2.4737 -1.0663
   45MOL   H49332261   1.676   1.203   7.394 -2.7865  0.5638  2.2183
   45MOL   H49432262   1.578   1.083   7.318  0.2996  0.0869  0.0819
   45MOL   H49532263   1.464   1.255   7.179 -0.3186  0.5829 -0.3547
   45MOL   H49632264   1.448   1.270   7.351  1.1677  0.3597  0.7032
   45MOL   H49732265   1.636   1.451   7.189 -1.8411  0.5342 -0.6073
   45MOL   H49832266   1.605   1.440   7.364 -0.2550  1.9192  0.0360
   45MOL   H49932267   1.364   1.541   7.300  0.4842  0.6650  1.2353
   45MOL   H50032268   1.406   1.510   7.138 -1.7337  2.7662  0.7630
   45MOL   H50132269   1.593   1.685   7.143  1.2741 -0.6024  1.2327
   45MOL   H50232270   1.434   1.754   7.190 -0.9420 -0.9046  1.0984
   45MOL   H50332271   1.542   1.652   7.421 -1.1862  1.5658  0.8256
   45MOL   H50432272   2.027   1.058   7.434 -0.1809  0.2199 -0.2171
   45MOL   H50532273   2.218   0.928   7.567 -1.5429  0.6044  0.1782
   45MOL   C50632274   1.585   1.852   7.388 -0.4100 -0.2053  0.1609
   45MOL   O50732275   1.588   1.947   7.311  0.2019 -0.0862 -0.4574
   45MOL   C50832276   1.635   1.867   7.524  0.0049  0.1633 -0.2260
   45MOL   C50932277   1.687   1.755   7.602  0.3119 -0.4120  0.6750
   45MOL   C51032278   1.721   1.782   7.742 -0.1833 -0.1290  0.0948
   45MOL   C51132279   1.694   1.901   7.810 -0.2178  0.1700 -0.3714
   45MOL   C51232280   1.718   1.916   0.068 -0.7278 -0.0045 -0.1702
   45MOL   O51332281   1.625   1.894   0.148 -0.6804 -0.3607 -0.9174
   45MOL   N51432282   1.844   1.937   0.100 -0.5345 -0.1216 -0.6288
   45MOL   C51532283   1.901   1.937   0.236 -0.3301  0.8074 -0.0927
   45MOL   C51632284   1.874   1.814   0.322 -0.1106  0.2216 -0.3403
   45MOL   C51732285   1.928   1.686   0.258  0.3046  0.6867  0.2790
   45MOL   C51832286   1.969   1.573   0.358 -0.2835  0.3233 -0.3243
   45MOL   C51932287   2.076   1.479   0.311 -0.6067 -0.6018  0.5971
   45MOL   C52032288   2.113   1.376   0.419  0.3040  0.5567  0.1142
   45MOL   N52132289   2.145   1.432   0.550  0.2417 -0.5752  0.1684
   45MOL   C52232290   1.638   2.006   7.735 -0.6836 -0.1313  1.1958
   45MOL   C52332291   1.613   1.992   7.592  0.0750  0.3305 -0.7172
   45MOL   H52432292   1.695   1.655   7.562  0.4010  1.1814 -3.5350
   45MOL   H52532293   1.753   1.691   7.789  0.2553 -0.6992 -1.2964
   45MOL   H52632294   1.906   1.943   0.021 -0.3097 -2.1932 -0.6227
   45MOL   H52732295   2.006   1.968   0.235 -0.1832  0.4099  1.5464
   45MOL   H52832296   1.850   2.015   0.293 -0.3753 -0.5438  1.7438
   45MOL   H52932297   1.769   1.798   0.343  0.3048 -2.9415 -0.4454
   45MOL   H53032298   1.920   1.833   0.419 -1.2031 -2.6010  0.7795
   45MOL   H53132299   1.852   1.644   0.193  0.3382 -0.1774  0.7958
   45MOL   H53232300   2.021   1.713   0.207  0.7886  0.1160  0.8517
   45MOL   H53332301   1.890   1.502   0.381  1.4287 -1.5295 -0.0350
   45MOL   H53432302   1.989   1.624   0.453 -2.7368  0.3541  0.2116
   45MOL   H53532303   2.168   1.526   0.277  0.0552 -1.5964  0.9866
   45MOL   H53632304   2.042   1.414   0.230  1.6853 -0.6869 -0.3224
   45MOL   H53732305   2.024   1.319   0.446  0.6804 -1.1526 -2.1428
   45MOL   H53832306   2.187   1.299   0.397  0.8400  0.2217  2.9231
   45MOL   H53932307   2.077   1.413   0.622 -1.5739  0.9887 -1.0947
   45MOL   H54032308   1.610   2.100   7.781 -3.1876  0.2849 -1.0698
   45MOL   H54132309   1.572   2.082   7.550  1.0132  1.5048  0.8326
   45MOL   C54232310   2.254   1.504   0.585 -0.0724  0.2475 -0.2574
   45MOL   O54332311   2.348   1.523   0.507  0.3081 -0.3719  0.0540
   45MOL   C54432312   2.271   1.547   0.730  1.0608 -0.4090  0.3614
   45MOL   C54532313   2.402   1.578   0.770 -0.2351 -0.9155 -0.5156
   45MOL   C54632314   2.424   1.625   0.900 -0.3517  0.4455 -0.4115
   45MOL   C54732315   2.318   1.626   0.997 -0.3893  0.0170 -0.2703
   45MOL   C54832316   2.343   1.648   1.144  0.5369 -0.2935  0.2717
   45MOL   O54932317   2.270   1.586   1.225 -0.2949  0.1594 -0.1997
   45MOL   N55032318   2.436   1.738   1.182  0.0511 -0.1370  0.4139
   45MOL   C55132319   2.471   1.781   1.319  0.4064  0.5564  0.0509
   45MOL   C55232320   2.617   1.818   1.335  0.1252 -0.0583  0.0563
   45MOL   C55332321   2.659   1.957   1.280  0.1876 -0.7092  0.9920
   45MOL   C55432322   2.652   2.072   1.381 -0.2154  0.1785  0.2775
   45MOL   C55532323   2.783   2.070   1.458 -0.4974  0.6509  0.2528
   45MOL   C55632324   2.776   2.127   1.596  0.5267 -0.5870  1.5001
   45MOL   N55732325   2.734   2.264   1.591 -0.0317  0.2953 -0.2229
   45MOL   C55832326   2.189   1.600   0.953 -0.4662  0.0646 -0.1284
   45MOL   C55932327   2.160   1.560   0.823 -1.4286  0.5457  0.1539
   45MOL   H56032328   2.477   1.583   0.692  1.0871 -1.6938  0.6972
   45MOL   H56132329   2.523   1.650   0.937 -0.3334  2.1308 -1.5664
   45MOL   H56232330   2.458   1.800   1.106 -2.8077  2.5557  1.6815
   45MOL   H56332331   2.416   1.868   1.356  0.2890 -0.1639  1.6152
   45MOL   H56432332   2.457   1.693   1.382 -0.7083  1.0316  0.4733
   45MOL   H56532333   2.669   1.737   1.285 -1.7771  0.1262 -2.2658
   45MOL   H56632334   2.641   1.820   1.442 -0.5806  2.3450  0.2128
   45MOL   H56732335   2.755   1.949   1.229  0.9275  1.1552  2.0481
   45MOL   H56832336   2.586   1.983   1.203  1.3341 -2.8817 -0.8869
   45MOL   H56932337   2.565   2.062   1.445  0.3823  2.2380  1.4716
   45MOL   H57032338   2.656   2.171   1.336  0.9116 -0.4975 -1.1803
   45MOL   H57132339   2.873   2.105   1.409  0.6630 -1.1655  1.0192
   45MOL   H57232340   2.805   1.966   1.484 -0.0525  0.7275  0.1824
   45MOL   H57332341   2.707   2.064   1.652 -0.4017 -0.9257  0.0028
   45MOL   H57432342   2.872   2.115   1.647  1.6101 -0.6595 -0.5125
   45MOL   H57532343   2.673   2.282   1.513 -0.3283  1.0680  0.1831
   45MOL   H57632344   2.102   1.616   1.014  0.7720  1.3347  1.3211
   45MOL   H57732345   2.056   1.545   0.801 -1.5426  0.0218  1.0346
   45MOL   C57832346   2.774   2.357   1.685 -0.0582 -0.0474 -0.9625
   45MOL   O57932347   2.847   2.334   1.784 -0.1988 -0.1251  0.0143
   45MOL   C58032348   2.726   2.498   1.661  0.2671 -0.1319  0.5371
   45MOL   C58132349   2.620   2.523   1.570  0.2964  0.4906 -0.1123
   45MOL   C58232350   2.563   2.649   1.548 -0.4623 -0.7184 -0.2320
   45MOL   C58332351   2.606   2.763   1.618  0.2790 -0.5798  0.0208
   45MOL   C58432352   2.524   2.892   1.611  0.5290 -0.1744  0.3548
   45MOL   O58532353   2.405   2.895   1.597 -0.1277 -0.2824 -0.2074
   45MOL   N58632354   2.600   3.005   1.611 -0.1244  0.2265 -0.2002
   45MOL   C58732355   2.544   3.135   1.587 -0.2214 -0.6111  0.4344
   45MOL   C58832356   2.595   3.206   1.468 -0.2344 -0.0284 -0.0860
   45MOL   C58932357   2.509   3.311   1.399  0.4685 -0.1259  0.0136
   45MOL   C59032358   2.598   3.423   1.325  0.6176 -0.6997 -0.0325
   45MOL   C59132359   2.536   3.487   1.208 -0.0915 -0.5824  0.0052
   45MOL   C59232360   2.611   3.620   1.173 -0.4621 -0.1811  0.0971
   45MOL   N59332361   2.534   3.691   1.080  0.0966 -0.2611 -0.2023
   45MOL   C59432362   2.719   2.747   1.706  0.0955 -0.1438 -0.0078
   45MOL   C59532363   2.773   2.615   1.725  0.4948  0.0162  0.2614
   45MOL   H59632364   2.569   2.446   1.513 -0.7179 -0.9753  2.6809
   45MOL   H59732365   2.480   2.662   1.480 -1.8642  1.3977  1.7988
   45MOL   H59832366   2.699   2.989   1.617  0.1996  1.3263 -2.0990
   45MOL   H59932367   2.435   3.126   1.579 -0.1644 -2.2792  1.3084
   45MOL   H60032368   2.564   3.205   1.668 -0.9182  0.9783 -0.7435
   45MOL   H60132369   2.617   3.135   1.388  0.3389  0.2425 -0.1671
   45MOL   H60232370   2.687   3.250   1.506 -2.2141  1.6128  3.0255
   45MOL   H60332371   2.454   3.258   1.321  0.9078  2.0991 -1.8422
   45MOL   H60432372   2.439   3.354   1.471 -0.9699  0.0094 -1.4479
   45MOL   H60532373   2.696   3.383   1.297 -0.4383 -2.8872 -0.7346
   45MOL   H60632374   2.612   3.502   1.399  0.5602  0.8413 -1.6313
   45MOL   H60732375   2.428   3.497   1.220 -0.0632 -0.8903  0.5242
   45MOL   H60832376   2.538   3.420   1.122 -1.0753 -0.2532 -0.2841
   45MOL   H60932377   2.612   3.660   1.275 -0.0806 -0.2571  0.1247
   45MOL   H61032378   2.715   3.602   1.145 -1.0052 -0.9815 -1.4520
   45MOL   H61132379   2.479   3.637   1.015  0.1750  1.9298 -2.1521
   45MOL   H61232380   2.762   2.816   1.778  1.1423  0.2947 -1.0306
   45MOL   H61332381   2.853   2.604   1.797 -0.6633  2.6524  2.0326
   45MOL   C61432382   2.532   3.822   1.074  0.1681  0.3075  0.0975
   45MOL   O61532383   2.612   3.885   1.141  0.2043  0.2123  0.4489
   45MOL   C61632384   2.440   3.879   0.970 -0.0837  0.7286  0.1035
   45MOL   C61732385   2.323   3.809   0.934 -0.5586  0.3202 -0.4445
   45MOL   C61832386   2.239   3.870   0.835  0.6116  0.4328  0.3375
   45MOL   C61932387   2.274   3.993   0.775  0.0254  0.2427  0.0278
   45MOL   C62032388   2.185   4.048   0.672  0.0638  0.3111  0.3448
   45MOL   O62132389   2.062   4.052   0.685  0.8121 -0.2460  0.1465
   45MOL   N62232390   2.248   4.089   0.559  0.1967  0.0350 -0.3783
   45MOL   C62332391   2.184   4.165   0.453  0.1068 -0.3820  0.0066
   45MOL   C62432392   2.231   4.317   0.444  0.2812  0.6983 -0.2482
   45MOL   C62532393   2.381   4.335   0.464  0.3388 -0.3584  0.1241
   45MOL   C62632394   2.471   4.254   0.363 -0.3988 -0.2597  0.0774
   45MOL   C62732395   2.451   4.294   0.211  0.1914 -0.3977  0.1843
   45MOL   C62832396   2.567   4.236   0.129  0.6380  0.8164  0.0443
   45MOL   N62932397   2.544   4.261   7.873  0.1967  0.2139  0.7352
   45MOL   C63032398   2.386   4.064   0.815  0.2308  0.1272  0.5177
   45MOL   C63132399   2.463   4.007   0.914  0.1114  0.5634 -0.4629
   45MOL   H63232400   2.294   3.713   0.973 -0.0635 -0.1509 -1.2086
   45MOL   H63332401   2.148   3.820   0.806  1.9969 -1.3082 -1.1035
   45MOL   H63432402   2.348   4.077   0.559  0.0351 -1.7286 -2.8606
   45MOL   H63532403   2.225   4.114   0.366  0.3607 -2.5266  1.3503
   45MOL   H63632404   2.075   4.157   0.449  0.0580  0.0791  0.4108
   45MOL   H63732405   2.171   4.370   0.518 -1.5407 -0.4470 -0.8749
   45MOL   H63832406   2.197   4.357   0.349 -0.0433  0.1711 -0.3567
   45MOL   H63932407   2.426   4.434   0.464  0.0063 -0.1927  1.5636
   45MOL   H64032408   2.409   4.302   0.564  1.0631  1.9556  0.7118
   45MOL   H64132409   2.447   4.148   0.367  3.1163 -1.2525 -2.4372
   45MOL   H64232410   2.576   4.254   0.395 -0.5315  2.9521  0.6708
   45MOL   H64332411   2.423   4.397   0.189  0.4796 -0.6906 -1.5649
   45MOL   H64432412   2.358   4.246   0.180 -1.2657 -0.0278  3.6507
   45MOL   H64532413   2.655   4.286   0.169  1.4825 -0.3095 -0.3906
   45MOL   H64632414   2.592   4.133   0.155 -0.6306 -0.2566 -2.8132
   45MOL   H64732415   2.566   4.355   7.846  0.5213  0.1147  0.6507
   45MOL   H64832416   2.400   4.159   0.767  0.7097 -0.2763 -0.1504
   45MOL   H64932417   2.553   4.059   0.942 -0.8024  2.9803 -1.8599
   45MOL   C65032418   2.527   4.170   7.775  1.3061  0.3672  0.2921
   45MOL   O65132419   2.525   4.050   7.800  0.0099  0.0668  0.0032
   45MOL   C65232420   2.543   4.226   7.631 -0.7791  0.2278 -0.8035
   45MOL   C65332421   2.486   4.348   7.588 -0.7522  0.2394  0.0715
   45MOL   C65432422   2.494   4.391   7.453  0.5282  0.1614  0.5787
   45MOL   C65532423   2.572   4.322   7.360  0.4815  0.3715 -0.5218
   45MOL   C65632424   2.578   4.375   7.219  0.3658  0.3385  0.7839
   45MOL   O65732425   2.506   4.471   7.186  0.3617  0.4054  0.2834
   45MOL   N65832426   2.668   4.318   7.139 -0.2281  0.1786  0.4481
   45MOL   C65932427   2.676   4.350   6.998  0.3789 -0.1209 -0.0767
   45MOL   C66032428   2.765   4.470   6.970  0.9239 -0.1832 -0.4371
   45MOL   C66132429   2.798   4.492   6.821  0.1058 -0.3800  0.0114
   45MOL   C66232430   2.883   4.621   6.783 -0.0296  1.0693 -0.8141
   45MOL   C66332431   3.020   4.639   6.849 -0.0022  0.4237  0.5492
   45MOL   C66432432   3.134   4.558   6.784  0.4536 -0.0786 -0.8702
   45MOL   N66532433   3.123   4.417   6.816  0.0229 -0.3716 -0.4879
   45MOL   C66632434   2.641   4.204   7.404 -0.0217 -0.5263  0.1288
   45MOL   C66732435   2.617   4.153   7.536  0.0248 -0.3667 -0.2741
   45MOL   H66832436   2.430   4.408   7.658 -0.2960 -1.0476  1.5779
   45MOL   H66932437   2.438   4.480   7.428  0.9226  0.2629  0.0239
   45MOL   H67032438   2.732   4.251   7.179 -2.3940 -1.1718  1.7221
   45MOL   H67132439   2.731   4.270   6.947  0.3175 -0.5805  0.5737
   45MOL   H67232440   2.580   4.351   6.946  0.1037  0.9950  0.4410
   45MOL   H67332441   2.850   4.448   7.034 -0.6207 -0.3616  1.6373
   45MOL   H67432442   2.715   4.554   7.019 -0.4899 -2.2300  1.7610
   45MOL   H67532443   2.853   4.404   6.786  2.5586  1.4921 -0.9854
   45MOL   H67632444   2.704   4.492   6.766 -0.0471  2.5018  0.1842
   45MOL   H67732445   2.826   4.712   6.797  0.0229  0.8543  0.9433
   45MOL   H67832446   2.901   4.622   6.675 -1.1175 -2.5253 -1.0849
   45MOL   H67932447   3.006   4.611   6.954  0.9433 -2.8721 -0.1487
   45MOL   H68032448   3.040   4.746   6.847  0.5572  0.2877 -2.4049
   45MOL   H68132449   3.131   4.574   6.677  0.8781  1.2301 -0.6893
   45MOL   H68232450   3.227   4.599   6.823 -0.7645  1.6101  0.3415
   45MOL   H68332451   3.135   4.395   6.914 -1.7127 -1.0347 -0.4120
   45MOL   H68432452   2.695   4.143   7.333 -0.1444  0.0744 -0.4909
   45MOL   H68532453   2.666   4.061   7.563  0.7559 -0.2342 -1.1398
   45MOL   C68632454   3.146   4.323   6.727 -0.1428  0.8761 -0.2653
   45MOL   O68732455   3.180   4.343   6.612 -0.4542  0.1378 -0.3900
   45MOL   C68832456   3.134   4.182   6.782 -0.8690 -0.6641 -0.3288
   45MOL   C68932457   3.032   4.147   6.868 -0.2948 -0.0272 -0.3699
   45MOL   C69032458   3.027   4.018   6.917  0.2243 -0.8133  0.0753
   45MOL   C69132459   3.116   3.922   6.872 -0.3105 -0.2588  0.1452
   45MOL   C69232460   3.099   3.776   6.917  0.3010 -0.0621 -0.2136
   45MOL   O69332461   2.998   3.737   6.976  0.0657 -0.3312 -0.8779
   45MOL   N69432462   3.200   3.685   6.909 -1.0078 -0.0613  0.3014
   45MOL   C69532463   3.189   3.540   6.929 -0.0966 -0.4292  0.4945
   45MOL   C69632464   3.180   3.503   7.077 -0.6565 -0.0967 -0.9392
   45MOL   C69732465   3.165   3.353   7.107 -0.1878 -0.5306 -0.0211
   45MOL   C69832466   3.046   3.289   7.035  0.7977  0.0894 -0.1606
   45MOL   C69932467   2.919   3.359   7.071 -0.5360 -0.2250 -0.2771
   45MOL   C70032468   2.797   3.285   7.024  0.4358 -0.1675 -0.0573
   45MOL   N70132469   2.685   3.364   7.072  0.5593  0.0960  0.7294
   45MOL   C70232470   3.210   3.950   6.776  0.2467  0.5794 -0.1060
   45MOL   C70332471   3.221   4.081   6.730  0.0862  0.1378  0.6787
   45MOL   H70432472   2.946   4.211   6.883  0.0744  0.1251  1.2402
   45MOL   H70532473   2.947   3.994   6.985  0.6573 -0.6637  0.6399
   45MOL   H70632474   3.287   3.711   6.866 -0.8672  0.5169  0.9259
   45MOL   H70732475   3.093   3.524   6.881  0.5069  0.9195 -1.2478
   45MOL   H70832476   3.262   3.477   6.878 -0.4404  0.9191 -1.7479
   45MOL   H70932477   3.101   3.557   7.128  0.9575  0.3991  1.0749
   45MOL   H71032478   3.258   3.551   7.136 -1.3958 -0.4365  0.3295
   45MOL   H71132479   3.251   3.294   7.076  1.2327  1.3414  0.2629
   45MOL   H71232480   3.146   3.336   7.213 -0.5047  0.7095  0.1249
   45MOL   H71332481   3.031   3.183   7.051 -3.2629  0.4860 -0.6939
   45MOL   H71432482   3.064   3.301   6.928 -0.5698  1.4174 -0.2650
   45MOL   H71532483   2.917   3.462   7.035  1.2845 -0.6540 -1.6581
   45MOL   H71632484   2.904   3.363   7.179 -3.3459 -0.8229 -0.5959
   45MOL   H71732485   2.803   3.271   6.916 -0.7958  2.1269 -0.4594
   45MOL   H71832486   2.796   3.185   7.067  2.2942 -0.6266 -1.0271
   45MOL   H71932487   2.602   3.343   7.018  2.8262  0.0328 -2.8926
   45MOL   H72032488   3.267   3.871   6.729 -2.9549 -0.4737 -2.4898
   45MOL   H72132489   3.279   4.099   6.640  0.1162 -0.0979  0.6517
   45MOL   H72232490   2.711   3.461   7.057  1.0051 -0.3075 -1.1349
   46MOL     C132491   5.276   4.454   2.518 -0.2378 -0.0251  0.0973
   46MOL     O232492   5.189   4.426   2.598  0.0630  0.8560  0.5243
   46MOL     C332493   5.290   4.397   2.386 -0.5851  0.4711  0.5800
   46MOL     C432494   5.193   4.322   2.317 -0.0740 -0.3419  0.3203
   46MOL     C532495   5.209   4.286   2.182 -0.3160  0.1489  0.3528
   46MOL     C632496   5.325   4.312   2.111  1.1615  0.1505 -0.0903
   46MOL     C732497   5.349   4.266   1.968 -0.2992  0.9575  0.2403
   46MOL     O832498   5.445   4.303   1.903  0.1954  0.2014 -0.1245
   46MOL     N932499   5.261   4.186   1.922 -0.1075 -0.2839  0.1899
   46MOL    C1032500   5.255   4.137   1.783 -0.3242  0.2640 -0.1735
   46MOL    C1132501   5.359   4.034   1.758 -0.4883 -0.1193  0.2640
   46MOL    C1232502   5.367   3.977   1.613  0.4214  0.6599 -0.0272
   46MOL    C1332503   5.244   3.899   1.567  0.9307  0.3750  0.6629
   46MOL    C1432504   5.238   3.911   1.416 -0.1047 -0.4760  0.0527
   46MOL    C1532505   5.108   3.844   1.365  0.7094  0.8072  0.5658
   46MOL    N1632506   5.107   3.853   1.217  0.2825  0.6400 -0.5440
   46MOL    C1732507   5.425   4.387   2.177  0.3758 -0.0387  0.7248
   46MOL    C1832508   5.409   4.422   2.314 -0.2781  0.3648  0.4481
   46MOL    H1932509   5.100   4.300   2.368 -1.0468 -0.0997 -1.2771
   46MOL    H2032510   5.126   4.231   2.139  0.4004 -1.7236  1.2698
   46MOL    H2132511   5.192   4.160   1.990 -0.3314 -0.3239 -0.0505
   46MOL    H2232512   5.157   4.089   1.779 -1.5627  2.5703  1.2216
   46MOL    H2332513   5.252   4.215   1.706 -2.6758 -0.9124 -1.3600
   46MOL    H2432514   5.337   3.946   1.820  0.4468  0.2014  1.0654
   46MOL    H2532515   5.455   4.067   1.797 -0.5660 -0.2853  0.6036
   46MOL    H2632516   5.400   4.049   1.538 -2.5367  0.9328 -1.1288
   46MOL    H2732517   5.441   3.897   1.614  0.0468  0.2898  3.1277
   46MOL    H2832518   5.151   3.947   1.595  0.3338 -0.6269  0.4336
   46MOL    H2932519   5.240   3.797   1.607 -0.0844  0.1593  0.0191
   46MOL    H3032520   5.327   3.866   1.371  0.5525 -0.0619  0.9168
   46MOL    H3132521   5.247   4.015   1.386  0.1396 -0.1139  1.3615
   46MOL    H3232522   5.100   3.744   1.407  1.0682  0.3648 -0.4253
   46MOL    H3332523   5.017   3.894   1.399 -1.4280 -2.3153 -0.3284
   46MOL    H3432524   5.170   3.920   1.174  1.2581  1.0716  1.4865
   46MOL    H3532525   5.510   4.418   2.118 -1.2503 -0.9233 -2.2051
   46MOL    H3632526   5.488   4.484   2.352  0.4469 -0.6027  0.5226
   46MOL    H3732527   5.353   4.525   2.548 -2.1275  2.0513  0.1600
   46MOL    C3832528   5.051   3.751   1.141  0.0355 -0.1137 -0.2944
   46MOL    O3932529   4.982   3.667   1.185  0.7111 -0.2533  0.4046
   46MOL    C4032530   5.087   3.741   0.997  0.4113 -0.7729 -0.0640
   46MOL    C4132531   5.117   3.850   0.915  0.7745 -0.3624 -0.0467
   46MOL    C4232532   5.140   3.839   0.774 -0.1000 -0.1315  0.3615
   46MOL    C4332533   5.140   3.710   0.716  0.1595  0.5658  0.1220
   46MOL    C4432534   5.154   3.704   0.565  0.6227  0.6361 -0.3006
   46MOL    O4532535   5.189   3.801   0.501 -0.6807 -0.2819 -0.7500
   46MOL    N4632536   5.128   3.581   0.513  0.1201  0.6285  0.0582
   46MOL    C4732537   5.146   3.559   0.369  0.7796  0.7557  0.4313
   46MOL    C4832538   5.014   3.542   0.293 -0.6121  0.4902 -0.0177
   46MOL    C4932539   4.922   3.425   0.336  0.6170 -0.5455 -0.1248
   46MOL    C5032540   4.985   3.282   0.335  0.7889  0.5979 -0.1763
   46MOL    C5132541   5.068   3.245   0.455  0.9474 -0.1933 -0.3729
   46MOL    C5232542   5.123   3.104   0.448  0.2401 -0.0464 -0.4059
   46MOL    N5332543   5.223   3.087   0.555  0.2845 -0.0719  0.0244
   46MOL    C5432544   5.122   3.597   0.803 -0.3546  0.4365  0.2083
   46MOL    C5532545   5.087   3.615   0.934  0.1520  0.5179 -0.6993
   46MOL    H5632546   5.109   3.949   0.957 -0.9494  0.3774 -2.0413
   46MOL    H5732547   5.155   3.929   0.716 -0.4758 -1.1800 -1.3932
   46MOL    H5832548   5.125   3.508   0.583  0.7655  2.1712  1.7690
   46MOL    H5932549   5.204   3.636   0.318  0.9280 -0.9571 -2.1194
   46MOL    H6032550   5.216   3.477   0.358  0.8476  0.8191  0.3868
   46MOL    H6132551   5.044   3.535   0.189  1.1026 -3.2454  0.6466
   46MOL    H6232552   4.958   3.635   0.302 -0.4164  0.6160 -0.1036
   46MOL    H6332553   4.878   3.433   0.435  0.6476 -1.2826 -0.0518
   46MOL    H6432554   4.836   3.423   0.268  0.2166  0.1158  0.3570
   46MOL    H6532555   5.035   3.265   0.240  2.1232  1.8897  0.2673
   46MOL    H6632556   4.912   3.201   0.337  0.5026  0.8392 -0.7503
   46MOL    H6732557   5.000   3.252   0.539  0.3718 -0.2341 -0.8307
   46MOL    H6832558   5.148   3.317   0.476 -0.3689  1.0491  0.5345
   46MOL    H6932559   5.051   3.022   0.452 -0.4296  0.3376 -3.6747
   46MOL    H7032560   5.165   3.082   0.350 -0.7681  0.0513 -0.8656
   46MOL    H7132561   5.308   3.142   0.550  1.3228 -1.3208  2.7901
   46MOL    H7232562   5.124   3.497   0.762 -2.7047  0.7789 -0.8382
   46MOL    H7332563   5.067   3.533   1.002 -0.6570 -0.5187 -2.1895
   46MOL    C7432564   5.219   3.003   0.657 -0.1902 -0.2492  0.2854
   46MOL    O7532565   5.144   2.905   0.662  0.1821 -0.1574 -0.3974
   46MOL    C7632566   5.306   3.044   0.775  0.3603 -0.3046 -0.6074
   46MOL    C7732567   5.280   2.993   0.899  0.6320  0.8035 -0.2660
   46MOL    C7832568   5.346   3.040   1.013  0.0932  0.1539 -0.2685
   46MOL    C7932569   5.444   3.140   1.001  0.4195  0.1776  0.1259
   46MOL    C8032570   5.501   3.207   1.118  0.4336 -0.3980 -0.3590
   46MOL    O8132571   5.559   3.312   1.115 -0.0028  0.1217  0.2898
   46MOL    N8232572   5.490   3.142   1.228  0.1318 -0.0879 -0.4557
   46MOL    C8332573   5.529   3.208   1.355  0.3291 -0.5987  0.6588
   46MOL    C8432574   5.457   3.148   1.476 -0.6289  0.8331  0.1721
   46MOL    C8532575   5.471   3.002   1.493 -0.2995  0.3587 -0.3516
   46MOL    C8632576   5.356   2.955   1.583  0.3174  0.2423 -0.5822
   46MOL    C8732577   5.216   2.950   1.523  0.0831  0.5629  0.3995
   46MOL    C8832578   5.201   2.869   1.394 -0.2032  0.1052 -0.1904
   46MOL    N8932579   5.067   2.892   1.344 -0.2206  0.2585 -0.5374
   46MOL    C9032580   5.476   3.191   0.876  0.4456 -0.1729  1.2355
   46MOL    C9132581   5.404   3.142   0.754 -0.8154 -0.6993 -0.6571
   46MOL    H9232582   5.198   2.926   0.918  0.2638  1.0032 -1.1031
   46MOL    H9332583   5.321   3.006   1.112  1.5117 -0.3785 -0.0771
   46MOL    H9432584   5.445   3.052   1.237 -3.6219  1.5018 -2.4551
   46MOL    H9532585   5.636   3.187   1.355  0.0095 -2.2856  1.0782
   46MOL    H9632586   5.513   3.316   1.357  0.0614 -0.6407  0.7771
   46MOL    H9732587   5.355   3.187   1.474 -1.0022 -0.0316  1.5126
   46MOL    H9832588   5.493   3.197   1.567  0.5638 -0.5030  0.4370
   46MOL    H9932589   5.476   2.944   1.400 -0.9008 -0.0599 -0.1246
   46MOL   H10032590   5.562   2.976   1.547 -0.2240  4.6824  1.7708
   46MOL   H10132591   5.353   3.016   1.673 -0.8969 -0.5270 -0.0851
   46MOL   H10232592   5.375   2.856   1.626  0.8109  1.2433  1.5718
   46MOL   H10332593   5.191   3.052   1.496  1.5253  0.6284 -0.7678
   46MOL   H10432594   5.143   2.913   1.595  0.7728  1.2532  1.4613
   46MOL   H10532595   5.274   2.912   1.326  0.3927 -2.3460 -1.1574
   46MOL   H10632596   5.223   2.762   1.404 -0.6452  0.0767  0.5766
   46MOL   H10732597   5.059   2.977   1.290 -2.4270 -0.1115 -0.8542
   46MOL   H10832598   5.553   3.266   0.864 -0.0271 -0.0198 -1.0495
   46MOL   H10932599   5.428   3.191   0.661 -1.2302 -0.9910 -0.9143
   46MOL   C11032600   4.958   2.816   1.373 -0.2165 -0.2297 -0.3588
   46MOL   O11132601   4.967   2.708   1.432 -0.4931 -0.0042  1.1705
   46MOL   C11232602   4.828   2.860   1.319  0.1664 -0.6189 -0.2901
   46MOL   C11332603   4.801   2.997   1.315 -1.1516 -0.4959  0.4788
   46MOL   C11432604   4.691   3.046   1.249  0.0474 -0.7571 -0.3977
   46MOL   C11532605   4.598   2.954   1.190 -0.2577  0.0324  0.6448
   46MOL   C11632606   4.479   3.007   1.118 -0.4831  0.0903 -0.2395
   46MOL   O11732607   4.424   2.938   1.034 -0.6605  0.4898 -0.3391
   46MOL   N11832608   4.434   3.126   1.151  0.3374 -0.1204 -0.7157
   46MOL   C11932609   4.314   3.187   1.093  0.1635  0.1426 -0.5793
   46MOL   C12032610   4.358   3.265   0.969 -0.3220 -0.0444  0.3375
   46MOL   C12132611   4.235   3.320   0.891  0.2898 -0.1260 -0.8292
   46MOL   C12232612   4.265   3.435   0.789 -0.4029  0.2503 -0.4500
   46MOL   C12332613   4.148   3.494   0.716  0.2243  0.0249 -0.5232
   46MOL   C12432614   4.084   3.610   0.792 -0.1343 -0.4733 -0.8150
   46MOL   N12532615   3.956   3.659   0.738 -0.3234  0.2031 -0.0036
   46MOL   C12632616   4.626   2.814   1.196 -0.5753  0.0241 -0.5644
   46MOL   C12732617   4.736   2.760   1.267  0.1667  0.2860 -0.4702
   46MOL   H12832618   4.878   3.061   1.355 -0.8829  0.6220 -1.7359
   46MOL   H12932619   4.669   3.151   1.254  0.0346 -0.8200  1.3055
   46MOL   H13032620   4.462   3.158   1.243 -1.3592  1.2607 -0.6629
   46MOL   H13132621   4.250   3.104   1.062  0.4679  0.2976 -1.6492
   46MOL   H13232622   4.267   3.259   1.160  1.4611  1.3385 -0.9152
   46MOL   H13332623   4.411   3.198   0.901  1.2232  0.4927  0.9932
   46MOL   H13432624   4.433   3.343   0.982 -1.0582  0.6376  0.5885
   46MOL   H13532625   4.174   3.244   0.842 -2.4966  2.5409 -1.5887
   46MOL   H13632626   4.160   3.351   0.964 -0.5462 -1.2739 -1.1837
   46MOL   H13732627   4.346   3.406   0.721  2.3815  0.9944  2.3945
   46MOL   H13832628   4.312   3.510   0.854 -0.9539  0.1292  0.0909
   46MOL   H13932629   4.072   3.417   0.702 -0.4791  0.5138  0.5214
   46MOL   H14032630   4.176   3.530   0.617 -1.2854  3.1965  0.1310
   46MOL   H14132631   4.077   3.587   0.899  1.3108 -3.4975 -1.3030
   46MOL   H14232632   4.150   3.696   0.784 -0.9564  0.1773 -0.6644
   46MOL   H14332633   3.960   3.748   0.690 -1.6342  0.1833 -0.1792
   46MOL   H14432634   4.549   2.747   1.161 -1.8957  1.3002 -0.1261
   46MOL   H14532635   4.753   2.655   1.283  0.4560  0.6172  1.5853
   46MOL   C14632636   3.834   3.621   0.768  0.0749  0.6385  0.0583
   46MOL   O14732637   3.817   3.532   0.845  0.6424  0.1878  0.2570
   46MOL   C14832638   3.719   3.704   0.719  0.2621 -0.0550  0.5063
   46MOL   C14932639   3.734   3.778   0.596  0.0688  0.0749  0.2890
   46MOL   C15032640   3.625   3.855   0.547  0.5964  0.0293 -0.0921
   46MOL   C15132641   3.503   3.855   0.613  0.4067 -0.0527  0.0731
   46MOL   C15232642   3.386   3.931   0.556 -0.0678 -0.4611 -0.0062
   46MOL   O15332643   3.285   3.945   0.622  0.2730  0.1858  0.2554
   46MOL   N15432644   3.397   3.989   0.437  0.0521  0.1152 -0.4210
   46MOL   C15532645   3.281   4.030   0.357 -0.2089 -0.4132  0.0691
   46MOL   C15632646   3.216   4.163   0.393  1.0564  0.2408  0.3662
   46MOL   C15732647   3.309   4.286   0.397 -0.2488  0.0712 -0.8214
   46MOL   C15832648   3.392   4.298   0.524  0.0372  0.4433 -0.0470
   46MOL   C15932649   3.440   4.444   0.548 -0.1721  0.3061 -0.2566
   46MOL   C16032650   3.548   4.496   0.452  0.1072  0.0846  0.5325
   46MOL   N16132651   3.651   4.396   0.442  0.5909 -0.8257  0.2736
   46MOL   C16232652   3.497   3.791   0.740 -0.5545  0.1830 -0.3197
   46MOL   C16332653   3.602   3.718   0.795  0.0623 -0.2582  0.1496
   46MOL   H16432654   3.817   3.773   0.527 -1.5066  0.7514 -1.6789
   46MOL   H16532655   3.633   3.898   0.448  0.5881  1.4420  0.5029
   46MOL   H16632656   3.472   3.953   0.380 -0.0572 -0.5250 -0.1623
   46MOL   H16732657   3.300   4.034   0.249 -1.8312  0.9063 -0.1888
   46MOL   H16832658   3.208   3.950   0.366 -2.1561  1.2196 -0.9689
   46MOL   H16932659   3.184   4.136   0.494 -1.0708 -1.9796 -0.8486
   46MOL   H17032660   3.143   4.184   0.316  2.6161 -0.4969 -1.3514
   46MOL   H17132661   3.379   4.276   0.314  1.6033 -0.4169  0.7656
   46MOL   H17232662   3.248   4.374   0.375  0.8347  1.1487  0.3626
   46MOL   H17332663   3.471   4.224   0.532 -0.0545  0.3827  0.2925
   46MOL   H17432664   3.335   4.277   0.614 -0.6063 -1.7833 -0.9480
   46MOL   H17532665   3.484   4.449   0.648  0.5577 -1.2707 -0.4671
   46MOL   H17632666   3.350   4.505   0.544 -0.9040 -0.7850 -0.7029
   46MOL   H17732667   3.506   4.513   0.353  0.4998  0.4667  0.4286
   46MOL   H17832668   3.592   4.593   0.477  0.2087  0.4498 -1.0189
   46MOL   H17932669   3.664   4.345   0.528 -2.1200  0.1717  1.3310
   46MOL   H18032670   3.403   3.798   0.793 -0.1110 -0.0523  0.5072
   46MOL   H18132671   3.582   3.665   0.887  0.3986 -0.7829 -0.0721
   46MOL   C18232672   3.757   4.398   0.358 -0.6727  0.7949 -0.0579
   46MOL   O18332673   3.771   4.479   0.267  0.4938 -0.2085  0.6877
   46MOL   C18432674   3.863   4.294   0.388  0.0088  0.0640  1.2897
   46MOL   C18532675   3.997   4.310   0.344 -0.6476 -0.0187 -0.3961
   46MOL   C18632676   4.085   4.201   0.366  0.0663  0.2408  0.2963
   46MOL   C18732677   4.042   4.077   0.421 -0.4807  0.4724  0.0403
   46MOL   C18832678   4.140   3.964   0.457 -0.3519  0.0682  0.4123
   46MOL   O18932679   4.104   3.878   0.534  0.1707 -0.2899  0.4511
   46MOL   N19032680   4.267   3.967   0.408 -0.2924  0.4215 -1.1216
   46MOL   C19132681   4.360   3.855   0.395  0.0977  0.4032  0.3676
   46MOL   C19232682   4.327   3.753   0.277 -0.1719  0.7254 -0.5772
   46MOL   C19332683   4.425   3.634   0.259 -0.3384 -0.7319  0.4611
   46MOL   C19432684   4.571   3.672   0.210 -0.0834  0.2594 -0.2857
   46MOL   C19532685   4.578   3.777   0.099  0.3868  0.0012 -0.1267
   46MOL   C19632686   4.704   3.766   0.008  0.2352  0.4079  0.2665
   46MOL   N19732687   4.716   3.636   7.828  0.6302 -0.6946  0.1978
   46MOL   C19832688   3.908   4.056   0.447  0.5784 -0.2793  0.3842
   46MOL   C19932689   3.820   4.167   0.432 -0.0053 -0.0620 -0.0814
   46MOL   H20032690   4.044   4.403   0.315  1.5817 -1.0237 -0.1854
   46MOL   H20132691   4.190   4.217   0.346 -0.0557  0.3630 -0.2435
   46MOL   H20232692   4.293   4.052   0.361  0.7262  0.5398 -0.3551
   46MOL   H20332693   4.461   3.897   0.387  0.5739 -0.6419  0.8075
   46MOL   H20432694   4.353   3.806   0.492 -0.9910  2.3563  1.2947
   46MOL   H20532695   4.309   3.807   0.184 -0.7362  3.1424  0.8897
   46MOL   H20632696   4.226   3.713   0.290 -0.7316  1.7114 -1.7363
   46MOL   H20732697   4.433   3.577   0.351 -0.3641 -1.0465  0.2711
   46MOL   H20832698   4.389   3.566   0.181  1.8608 -1.5827  0.1463
   46MOL   H20932699   4.621   3.579   0.182 -0.1826  0.7720 -2.2392
   46MOL   H21032700   4.632   3.713   0.289  1.4479  1.0598 -1.8608
   46MOL   H21132701   4.563   3.875   0.143 -1.5781 -1.2559  2.1469
   46MOL   H21232702   4.490   3.755   0.039  1.9594  0.2681 -2.5754
   46MOL   H21332703   4.710   3.842   7.816  1.2766  0.0295 -0.0292
   46MOL   H21432704   4.796   3.781   0.065  0.4748  0.7746 -0.2158
   46MOL   H21532705   4.777   3.570   7.874  1.8406 -0.1499 -0.6316
   46MOL   H21632706   3.872   3.962   0.484 -2.1127  0.3840 -0.4658
   46MOL   H21732707   3.717   4.152   0.460  0.7377 -0.3204  2.6634
   46MOL   C21832708   4.660   3.597   7.712 -0.9371  0.6396 -0.0185
   46MOL   O21932709   4.583   3.664   7.650  0.0991  0.7464  0.0119
   46MOL   C22032710   4.732   3.481   7.647 -0.3002 -0.0236  0.2617
   46MOL   C22132711   4.661   3.424   7.540  0.2282 -0.3838 -0.7736
   46MOL   C22232712   4.716   3.314   7.474 -0.2108 -0.1097  0.0990
   46MOL   C22332713   4.847   3.267   7.507 -0.2329  0.0354  0.3550
   46MOL   C22432714   4.911   3.157   7.431 -0.3267 -0.0921 -0.1788
   46MOL   O22532715   5.002   3.090   7.484 -0.1482 -0.1440 -0.2114
   46MOL   N22632716   4.873   3.144   7.303 -0.1817  0.1017  0.1999
   46MOL   C22732717   4.927   3.049   7.204 -0.0083 -0.3987  0.1423
   46MOL   C22832718   4.810   2.989   7.127  0.9944 -0.4217 -0.1909
   46MOL   C22932719   4.757   3.086   7.019 -0.5620  0.2431  0.0011
   46MOL   C23032720   4.599   3.109   7.030  0.1765 -0.9343 -0.2215
   46MOL   C23132721   4.512   2.987   6.996 -0.0738  0.5022  0.2023
   46MOL   C23232722   4.358   3.018   7.022 -0.0880 -0.2147 -0.2625
   46MOL   N23332723   4.275   2.925   6.949  0.5152 -0.3025 -0.9592
   46MOL   C23432724   4.917   3.330   7.611 -0.8345  0.1306 -0.2643
   46MOL   C23532725   4.856   3.429   7.691 -0.7618 -0.7494  0.3716
   46MOL   H23632726   4.559   3.453   7.521  0.0410 -1.2205 -1.0907
   46MOL   H23732727   4.655   3.272   7.395 -0.7286 -1.0764  0.9910
   46MOL   H23832728   4.797   3.200   7.266 -0.2086  1.5696  2.4067
   46MOL   H23932729   4.993   3.098   7.132 -0.1763 -0.1045  0.1883
   46MOL   H24032730   4.978   2.967   7.254 -1.6709 -1.4771  0.1133
   46MOL   H24132731   4.728   2.983   7.198  1.7230  1.1176  0.8022
   46MOL   H24232732   4.828   2.891   7.084  2.6007  0.2069 -0.9934
   46MOL   H24332733   4.812   3.180   7.019 -0.8298  0.4262 -2.1372
   46MOL   H24432734   4.765   3.042   6.920 -1.1306 -1.3609  0.6509
   46MOL   H24532735   4.571   3.179   6.951 -0.9559 -0.2996  0.7269
   46MOL   H24632736   4.563   3.152   7.124  0.9838 -0.7932  0.0264
   46MOL   H24732737   4.534   2.894   7.049  1.4204  0.9538  0.3982
   46MOL   H24832738   4.522   2.969   6.889 -1.0853 -0.0391  0.1941
   46MOL   H24932739   4.348   3.006   7.130  0.6387  0.4528 -0.1182
   46MOL   H25032740   4.338   3.118   6.984 -0.7744 -0.6253 -0.9802
   46MOL   H25132741   4.296   2.826   6.947  1.2770 -0.1191 -2.1700
   46MOL   H25232742   5.009   3.281   7.642 -0.9813  1.4249  2.4285
   46MOL   H25332743   4.913   3.469   7.774  0.6342  0.4311 -1.1199
   46MOL   C25432744   4.149   2.966   6.914  0.4443 -0.8368  0.5107
   46MOL   O25532745   4.116   3.083   6.890  0.1468 -0.1414 -0.2156
   46MOL   C25632746   4.051   2.855   6.909 -0.3100  0.4789  0.3248
   46MOL   C25732747   3.912   2.871   6.948 -0.3481  0.1916 -0.0853
   46MOL   C25832748   3.813   2.767   6.938 -0.1877  0.0930 -0.4031
   46MOL   C25932749   3.854   2.639   6.895 -0.3920  0.5947  0.1584
   46MOL   C26032750   3.761   2.526   6.870 -0.0392 -0.3781  0.0347
   46MOL   O26132751   3.803   2.423   6.809  0.3238  0.6167 -0.4635
   46MOL   N26232752   3.639   2.534   6.918  0.1991 -0.9542  0.8539
   46MOL   C26332753   3.536   2.430   6.910 -0.2301  1.3801 -0.1938
   46MOL   C26432754   3.451   2.435   7.039  0.5144 -0.2712  0.3878
   46MOL   C26532755   3.363   2.309   7.064  0.0955 -0.3720  0.0862
   46MOL   C26632756   3.278   2.275   6.939  0.0063 -0.0285 -0.6980
   46MOL   C26732757   3.183   2.157   6.961  0.0257  0.1188  0.3897
   46MOL   C26832758   3.123   2.109   6.826  0.1619  0.8269 -0.3642
   46MOL   N26932759   3.041   1.992   6.849 -0.0541 -0.6100  0.6245
   46MOL   C27032760   3.994   2.618   6.860 -0.0839  0.0854 -0.3005
   46MOL   C27132761   4.088   2.728   6.868  0.1560  0.0752 -0.3643
   46MOL   H27232762   3.876   2.967   6.981  1.2408  0.8062 -0.0789
   46MOL   H27332763   3.708   2.784   6.952 -0.2016 -0.6030  0.3571
   46MOL   H27432764   3.621   2.623   6.962  0.7925  0.1605 -1.1088
   46MOL   H27532765   3.470   2.443   6.824 -3.2625 -0.1585  1.8048
   46MOL   H27632766   3.582   2.332   6.892  0.8637  1.6879  0.8950
   46MOL   H27732767   3.380   2.517   7.031  1.7195  0.7167 -0.3847
   46MOL   H27832768   3.509   2.448   7.131  0.7636  0.6321  0.1056
   46MOL   H27932769   3.431   2.231   7.098 -0.7556 -1.7038 -1.1881
   46MOL   H28032770   3.304   2.329   7.153 -1.8509  0.0736 -1.2531
   46MOL   H28132771   3.344   2.250   6.857 -0.5308 -0.3630 -1.0295
   46MOL   H28232772   3.223   2.367   6.918 -0.2168 -0.3927 -1.7235
   46MOL   H28332773   3.100   2.177   7.030 -1.4134  0.3676 -1.3807
   46MOL   H28432774   3.240   2.078   7.009  0.5648 -0.1242 -0.6577
   46MOL   H28532775   3.066   2.191   6.781 -1.5515 -0.4482 -0.5350
   46MOL   H28632776   3.206   2.087   6.758 -0.5081 -0.5646 -0.7392
   46MOL   H28732777   3.082   1.900   6.840 -0.2877 -0.7220  0.7107
   46MOL   H28832778   4.027   2.516   6.849 -0.0458 -0.1334  1.6076
   46MOL   H28932779   4.189   2.697   6.846  0.3068 -0.1362  0.6039
   46MOL   C29032780   2.928   1.992   6.911  0.6589  0.5841  0.1381
   46MOL   O29132781   2.866   2.093   6.922  0.2331  0.4192 -0.2298
   46MOL   C29232782   2.883   1.853   6.950  0.0293 -0.0270 -0.4546
   46MOL   C29332783   2.971   1.753   6.984  0.5126 -0.5162 -0.2152
   46MOL   C29432784   2.921   1.625   7.017  0.4155  0.6301  0.3160
   46MOL   C29532785   2.782   1.601   7.033 -0.0955  0.4799  0.4477
   46MOL   C29632786   2.722   1.472   7.075 -0.1849 -0.1164  0.1017
   46MOL   O29732787   2.602   1.460   7.092  0.0735  0.4287 -0.4546
   46MOL   N29832788   2.804   1.372   7.089  0.4621 -0.0130 -0.1879
   46MOL   C29932789   2.768   1.226   7.073  0.2282 -0.6637 -0.3370
   46MOL   C30032790   2.831   1.156   6.958 -0.1157 -0.0951  0.7256
   46MOL   C30132791   2.990   1.176   6.963  0.6445 -0.2249  0.5317
   46MOL   C30232792   3.064   1.119   6.837  0.2124 -0.2100 -0.4601
   46MOL   C30332793   3.212   1.147   6.829 -0.1853 -0.1062 -0.3139
   46MOL   C30432794   3.266   1.088   6.704  0.3995  0.3342 -0.0315
   46MOL   N30532795   3.411   1.109   6.712 -0.0488 -0.2364  0.2252
   46MOL   C30632796   2.691   1.702   6.994  0.4923 -0.4864 -0.4692
   46MOL   C30732797   2.742   1.831   6.963  0.0680 -0.0437 -0.1160
   46MOL   H30832798   3.078   1.764   6.971  0.6528  0.3085  1.5476
   46MOL   H30932799   2.990   1.544   7.033 -0.2466  0.2981  1.5506
   46MOL   H31032800   2.893   1.409   7.058  0.6747  0.6018  1.1021
   46MOL   H31132801   2.811   1.182   7.163  0.3853  0.9467  0.3907
   46MOL   H31232802   2.659   1.221   7.072  0.0405  2.0897  1.1889
   46MOL   H31332803   2.795   1.195   6.863  1.6390  1.1601  0.5425
   46MOL   H31432804   2.818   1.049   6.970 -0.0345 -0.5286 -2.6516
   46MOL   H31532805   3.029   1.277   6.975 -1.9414  1.0085 -1.0020
   46MOL   H31632806   3.018   1.134   7.060 -0.5726  0.3891  1.1517
   46MOL   H31732807   3.012   1.156   6.748 -1.4042 -0.5755  0.3094
   46MOL   H31832808   3.043   1.013   6.829  1.8146 -0.5309 -0.5784
   46MOL   H31932809   3.256   1.092   6.913 -0.3214  0.6332  0.2518
   46MOL   H32032810   3.250   1.248   6.846  1.6725 -0.8381  0.0168
   46MOL   H32132811   3.254   0.979   6.698  2.2637  0.1023  0.0905
   46MOL   H32232812   3.216   1.139   6.622  1.2273  1.3104  0.0688
   46MOL   H32332813   3.458   1.177   6.654  0.1469 -1.6970 -1.3787
   46MOL   H32432814   2.587   1.678   7.008  0.2171  1.2121  0.5485
   46MOL   H32532815   2.677   1.914   6.937  0.2669  0.4472  0.9158
   46MOL   C32632816   3.501   1.032   6.779  0.0229  0.1220  0.7059
   46MOL   O32732817   3.461   0.937   6.844 -0.2249  0.0670  0.3657
   46MOL   C32832818   3.645   1.082   6.773  0.3605  0.1679  0.5835
   46MOL   C32932819   3.730   1.040   6.878  0.2815 -1.0870  0.4048
   46MOL   C33032820   3.872   1.058   6.874  0.7006  0.3386 -0.6716
   46MOL   C33132821   3.925   1.132   6.769 -0.1425 -0.3094  0.7094
   46MOL   C33232822   4.069   1.145   6.760 -0.0629 -0.3590 -0.1491
   46MOL   O33332823   4.137   1.060   6.818 -0.0746  0.5831 -0.7520
   46MOL   N33432824   4.125   1.262   6.709  0.6106 -0.0608 -0.3444
   46MOL   C33532825   4.262   1.309   6.724 -0.6207 -0.0153  0.2175
   46MOL   C33632826   4.273   1.454   6.681  0.2985  0.1983 -0.0565
   46MOL   C33732827   4.232   1.481   6.537 -0.4258 -0.4554  0.0054
   46MOL   C33832828   4.185   1.628   6.504 -0.2803 -0.1123 -0.6272
   46MOL   C33932829   4.158   1.653   6.354 -0.2390  0.0953  0.3806
   46MOL   C34032830   4.140   1.793   6.300 -0.3005  0.0626  0.4047
   46MOL   N34132831   4.146   1.791   6.157  0.1386  0.5677 -0.1413
   46MOL   C34232832   3.843   1.174   6.662 -0.0243 -0.4634  0.2687
   46MOL   C34332833   3.702   1.154   6.661 -0.7200 -0.1933 -0.1488
   46MOL   H34432834   3.696   0.982   6.962  1.0558 -0.6524  1.0187
   46MOL   H34532835   3.926   1.007   6.952 -1.2680 -0.3243  0.3025
   46MOL   H34632836   4.066   1.342   6.692  0.6929  0.3127  1.1108
   46MOL   H34732837   4.285   1.306   6.830  0.1392  2.4160  0.1610
   46MOL   H34832838   4.334   1.249   6.669 -1.4210 -0.4467 -0.3644
   46MOL   H34932839   4.379   1.478   6.692  1.2024 -1.8568 -3.7345
   46MOL   H35032840   4.213   1.525   6.739  1.7889  0.6616  0.9790
   46MOL   H35132841   4.307   1.443   6.467 -1.5903 -1.4485 -0.7142
   46MOL   H35232842   4.147   1.414   6.525 -0.4445 -0.3652 -0.3833
   46MOL   H35332843   4.262   1.694   6.543 -1.6502 -0.0230  2.0167
   46MOL   H35432844   4.098   1.649   6.565  0.9858 -0.8506  1.4833
   46MOL   H35532845   4.066   1.601   6.326 -0.8216  1.5312 -0.4161
   46MOL   H35632846   4.234   1.610   6.289 -0.2923  2.1658 -1.1017
   46MOL   H35732847   4.070   1.851   6.360  0.0917  0.1725  0.7541
   46MOL   H35832848   4.230   1.849   6.324 -0.3063 -0.5023  1.7669
   46MOL   H35932849   4.233   1.760   6.115  1.8551  4.7946 -0.0067
   46MOL   H36032850   3.887   1.225   6.578 -1.1030  0.3708  0.2010
   46MOL   H36132851   3.640   1.184   6.578 -1.6844  1.2403  1.0456
   46MOL   C36232852   4.058   1.859   6.080  0.0359  0.6741 -0.5433
   46MOL   O36332853   3.955   1.907   6.118 -0.2119  0.5971  0.1568
   46MOL   C36432854   4.092   1.870   5.934 -0.0900 -0.5930  0.0937
   46MOL   C36532855   4.012   1.951   5.855  0.2498  1.0004  1.2572
   46MOL   C36632856   4.040   1.972   5.718 -0.8152 -0.2214  0.7487
   46MOL   C36732857   4.151   1.910   5.654 -0.5757 -0.4053  0.3102
   46MOL   C36832858   4.173   1.925   5.509  0.1171  0.2622  0.2586
   46MOL   O36932859   4.217   1.832   5.440  0.0576  0.2083 -0.4181
   46MOL   N37032860   4.134   2.040   5.455 -0.1633 -0.1620  0.6912
   46MOL   C37132861   4.119   2.066   5.309  0.5611 -0.0061  0.0848
   46MOL   C37232862   3.972   2.033   5.257  0.0080  0.6432 -0.3248
   46MOL   C37332863   3.865   2.136   5.310 -0.0593 -0.5239  0.0788
   46MOL   C37432864   3.719   2.099   5.283 -0.3514  0.3151  0.1098
   46MOL   C37532865   3.656   1.981   5.368 -0.5373  0.4005  0.2040
   46MOL   C37632866   3.647   1.996   5.519  0.0009 -0.5099 -0.0405
   46MOL   N37732867   3.579   2.126   5.544 -0.5316  0.1323  0.4268
   46MOL   C37832868   4.241   1.838   5.735 -0.3005 -0.0313  0.0365
   46MOL   C37932869   4.212   1.817   5.872  0.7614 -0.8511  0.3837
   46MOL   H38032870   3.932   2.006   5.902  1.1327  0.0583  3.9766
   46MOL   H38132871   3.973   2.034   5.662 -0.3416 -0.0428  0.3785
   46MOL   H38232872   4.099   2.104   5.525 -0.3997 -0.8701  1.2275
   46MOL   H38332873   4.119   2.175   5.300 -1.3074  0.1383  1.4643
   46MOL   H38432874   4.184   2.011   5.240 -0.0799  1.1983 -1.5177
   46MOL   H38532875   3.951   1.928   5.275 -0.0253  0.7070  0.0226
   46MOL   H38632876   3.972   2.045   5.149  0.1498 -2.7418 -0.7455
   46MOL   H38732877   3.874   2.152   5.418  0.4036 -0.3694  0.0197
   46MOL   H38832878   3.874   2.240   5.278 -2.8826 -0.5681 -0.9667
   46MOL   H38932879   3.707   2.078   5.177 -0.3068  0.5651  0.0561
   46MOL   H39032880   3.657   2.187   5.298 -0.1790  0.4523  0.0269
   46MOL   H39132881   3.712   1.893   5.337 -0.6922  0.3125  0.1735
   46MOL   H39232882   3.556   1.957   5.329  0.0376 -1.9968  0.1049
   46MOL   H39332883   3.583   1.920   5.564 -1.1752 -0.7604 -2.0676
   46MOL   H39432884   3.745   2.006   5.565  0.0372  0.3284 -0.2797
   46MOL   H39532885   3.485   2.131   5.508 -0.6850 -0.7810  0.6825
   46MOL   H39632886   4.335   1.809   5.691 -1.0835  0.7132 -2.1946
   46MOL   H39732887   4.279   1.767   5.941  0.7799 -2.0840 -0.5189
   46MOL   C39832888   3.623   2.227   5.618  0.1113  0.2465 -0.0907
   46MOL   O39932889   3.728   2.230   5.675 -0.1841 -0.3369  0.1677
   46MOL   C40032890   3.535   2.348   5.612 -1.0346 -0.2576 -0.7307
   46MOL   C40132891   3.531   2.438   5.721 -0.2416 -0.2705  0.7674
   46MOL   C40232892   3.455   2.554   5.720  0.2317  0.1432  0.2230
   46MOL   C40332893   3.378   2.580   5.605  0.9402  0.0036  0.0342
   46MOL   C40432894   3.321   2.719   5.588 -0.7367  0.1384  0.1562
   46MOL   O40532895   3.392   2.816   5.611 -0.1297 -0.0121 -0.5577
   46MOL   N40632896   3.199   2.729   5.542 -0.0964  0.1480  0.1025
   46MOL   C40732897   3.131   2.850   5.512 -0.0589  0.3188 -0.0989
   46MOL   C40832898   2.999   2.830   5.439  0.3450 -0.8435  0.1152
   46MOL   C40932899   2.945   2.970   5.399 -0.0463 -0.5136  0.4281
   46MOL   C41032900   2.849   2.974   5.276 -0.2263 -0.6526 -1.0318
   46MOL   C41132901   2.844   3.115   5.224 -0.5269 -0.0588  0.3074
   46MOL   C41232902   2.758   3.128   5.094 -0.2188  0.3637  0.1971
   46MOL   N41332903   2.797   3.248   5.025  0.5216  0.1141 -0.4720
   46MOL   C41432904   3.375   2.483   5.497 -0.3449 -0.7781  0.0343
   46MOL   C41532905   3.459   2.373   5.502  0.9063 -0.1700  0.1174
   46MOL   H41632906   3.595   2.417   5.805 -0.8251  0.5468  1.4313
   46MOL   H41732907   3.457   2.621   5.805  0.9921 -1.2960  1.3677
   46MOL   H41832908   3.139   2.648   5.533  1.4275 -1.4638  3.7349
   46MOL   H41932909   3.126   2.925   5.590 -0.5995 -0.5606  0.7204
   46MOL   H42032910   3.204   2.901   5.449  1.2649 -0.3448  0.8774
   46MOL   H42132911   2.930   2.779   5.506  0.2207  1.7498  2.0237
   46MOL   H42232912   3.023   2.766   5.354  1.6531 -3.1188  2.1349
   46MOL   H42332913   2.888   3.013   5.481  0.7965 -0.9942  1.2868
   46MOL   H42432914   3.028   3.039   5.387  0.9874 -1.4823  1.8473
   46MOL   H42532915   2.748   2.936   5.293 -1.0790  1.8738 -0.1016
   46MOL   H42632916   2.890   2.914   5.195  1.9947 -0.3325 -0.1826
   46MOL   H42732917   2.950   3.131   5.204 -0.7146 -1.1491 -1.6587
   46MOL   H42832918   2.818   3.185   5.304 -0.0721  0.6827 -0.1969
   46MOL   H42932919   2.804   3.052   5.031 -1.2301  0.7171 -0.9936
   46MOL   H43032920   2.653   3.118   5.121 -0.1239 -2.8451 -0.4201
   46MOL   H43132921   2.843   3.236   4.936  0.9839 -0.4385 -0.1571
   46MOL   H43232922   3.319   2.503   5.406  0.9373 -0.3946 -0.6802
   46MOL   H43332923   3.459   2.299   5.424 -1.8042  0.0724 -0.1701
   46MOL   C43432924   2.744   3.362   5.059 -0.3054 -1.4254  1.3484
   46MOL   O43532925   2.685   3.389   5.167 -0.1209 -0.7305 -0.5315
   46MOL   C43632926   2.766   3.472   4.960  0.7512  0.4867  0.1301
   46MOL   C43732927   2.669   3.578   4.945 -0.0828 -0.0370  0.7404
   46MOL   C43832928   2.696   3.681   4.845 -0.7468 -0.5219  0.4306
   46MOL   C43932929   2.810   3.675   4.752  1.1215 -0.4663  0.0403
   46MOL   C44032930   2.833   3.782   4.648 -0.3149 -0.2888  0.2129
   46MOL   O44132931   2.947   3.789   4.592 -0.0132 -0.4788  0.5051
   46MOL   N44232932   2.725   3.855   4.618  0.2115  0.0161 -0.3436
   46MOL   C44332933   2.726   3.965   4.518  0.4469  0.9095  0.6235
   46MOL   C44432934   2.681   3.919   4.369 -0.5646 -0.2130 -0.1252
   46MOL   C44532935   2.728   3.787   4.306  0.6225 -0.6656 -0.3653
   46MOL   C44632936   2.682   3.780   4.153  0.1590  0.1304  0.5857
   46MOL   C44732937   2.713   3.646   4.086 -0.8183 -0.8558 -0.0833
   46MOL   C44832938   2.668   3.648   3.941  0.6062  0.1313 -0.4240
   46MOL   N44932939   2.687   3.522   3.878 -0.8761  0.0253  0.3521
   46MOL   C45032940   2.892   3.567   4.770 -0.0019 -0.3543  0.1944
   46MOL   C45132941   2.879   3.473   4.872 -0.1308 -0.1615  0.0129
   46MOL   H45232942   2.593   3.590   5.020  0.0444  0.1424  0.8432
   46MOL   H45332943   2.637   3.771   4.855 -1.0926 -0.6616 -0.3154
   46MOL   H45432944   2.640   3.814   4.655  0.8633 -1.2583 -0.2425
   46MOL   H45532945   2.667   4.050   4.551 -0.2793  0.1493  1.3003
   46MOL   H45632946   2.826   4.006   4.515  0.8542 -0.1734 -2.2818
   46MOL   H45732947   2.688   4.006   4.304 -2.4831 -0.0779 -0.1852
   46MOL   H45832948   2.572   3.908   4.372 -0.4807 -3.0568 -3.5305
   46MOL   H45932949   2.835   3.766   4.303  0.5341 -1.2602  0.5424
   46MOL   H46032950   2.684   3.709   4.367 -0.0190 -2.0740 -2.5768
   46MOL   H46132951   2.725   3.863   4.097  0.5593 -0.1235  0.5111
   46MOL   H46232952   2.575   3.797   4.141  0.6984  2.9409 -0.6822
   46MOL   H46332953   2.664   3.564   4.139 -0.5077 -1.6885 -1.0651
   46MOL   H46432954   2.819   3.624   4.100 -1.6406 -3.4284  2.5778
   46MOL   H46532955   2.572   3.695   3.920  0.9349  1.2709  0.5690
   46MOL   H46632956   2.736   3.721   3.898  2.7644 -0.0906  2.3935
   46MOL   H46732957   2.780   3.510   3.840 -1.1431 -0.9574 -0.0224
   46MOL   H46832958   2.981   3.555   4.710  1.3416  3.2889  1.3314
   46MOL   H46932959   2.951   3.393   4.870  1.4090  1.2114 -0.2605
   46MOL   C47032960   2.598   3.421   3.871  0.3808 -0.0346 -0.5755
   46MOL   O47132961   2.481   3.438   3.891  0.2829  0.1064 -0.1480
   46MOL   C47232962   2.658   3.288   3.857  0.2920  0.5545  0.2072
   46MOL   C47332963   2.612   3.184   3.942 -0.6953  0.7746 -0.0585
   46MOL   C47432964   2.671   3.058   3.928 -0.5330  1.6255  0.0603
   46MOL   C47532965   2.749   3.026   3.812 -1.1738  0.1627 -0.2601
   46MOL   C47632966   2.787   2.889   3.784  0.3922 -0.1380  0.4733
   46MOL   O47732967   2.825   2.855   3.670 -0.0579 -0.2169 -0.1490
   46MOL   N47832968   2.776   2.805   3.887  0.5278  0.2329  0.0190
   46MOL   C47932969   2.789   2.665   3.875  0.6082  0.1594  0.4581
   46MOL   C48032970   2.933   2.634   3.902 -0.7658 -0.0683  0.2363
   46MOL   C48132971   2.972   2.483   3.933  0.4477  0.2234 -0.1925
   46MOL   C48232972   3.126   2.463   3.929  0.3232 -0.1612  0.2854
   46MOL   C48332973   3.201   2.529   4.051  0.0569 -0.4531 -0.4850
   46MOL   C48432974   3.185   2.461   4.187 -0.6056 -0.6829  0.2072
   46MOL   N48532975   3.237   2.551   4.287 -0.5179  0.2751 -0.5257
   46MOL   C48632976   2.780   3.126   3.718 -0.3110  0.7977 -0.1261
   46MOL   C48732977   2.735   3.255   3.748  0.7239 -0.0118  0.1280
   46MOL   H48832978   2.549   3.215   4.024 -2.6251 -2.7874 -0.0768
   46MOL   H48932979   2.650   2.980   4.000  3.5584  1.5032  1.2473
   46MOL   H49032980   2.745   2.843   3.976  1.7055  1.2268  0.0142
   46MOL   H49132981   2.716   2.624   3.945 -2.1849  2.6990 -0.8296
   46MOL   H49232982   2.763   2.613   3.783 -0.7209 -2.5282  2.3037
   46MOL   H49332983   2.963   2.694   3.987 -2.5393 -0.0412  0.8724
   46MOL   H49432984   2.993   2.667   3.817 -0.0121  1.0983  1.2217
   46MOL   H49532985   2.935   2.451   4.031  1.3614 -1.7753 -0.4683
   46MOL   H49632986   2.922   2.405   3.875  0.2673 -0.7435  1.2266
   46MOL   H49732987   3.181   2.509   3.847  2.0736  1.4651  2.3048
   46MOL   H49832988   3.149   2.359   3.908  1.2172  0.4600 -1.9130
   46MOL   H49932989   3.172   2.634   4.060 -0.3576 -0.6969  1.1316
   46MOL   H50032990   3.308   2.531   4.030 -0.1029 -1.0625 -1.4199
   46MOL   H50132991   3.082   2.437   4.212 -0.7203 -0.5649 -0.1543
   46MOL   H50232992   3.236   2.365   4.176  0.2999 -0.1042 -0.7456
   46MOL   H50332993   3.273   2.639   4.254  1.4235 -0.0318  0.6975
   46MOL   H50432994   2.839   3.110   3.629  0.0910 -2.8910  0.7270
   46MOL   H50532995   2.749   3.333   3.674  0.2770 -2.5539 -2.7641
   46MOL   C50632996   3.213   2.538   4.417  0.0344  0.1950 -0.4054
   46MOL   O50732997   3.130   2.460   4.464  0.1501 -0.0398  0.2124
   46MOL   C50832998   3.291   2.636   4.509  0.4449 -0.2993 -0.0627
   46MOL   C50932999   3.425   2.645   4.504 -0.7747 -0.6289 -0.3004
   46MOL   C51033000   3.507   2.729   4.591 -0.1659  0.0074 -0.1338
   46MOL   C51133001   3.443   2.801   4.689  0.1890  0.3521 -0.2722
   46MOL   C51233002   3.524   2.889   4.786  0.4971  0.5162  0.7556
   46MOL   O51333003   3.483   2.913   4.901  0.4990  0.6588  0.5350
   46MOL   N51433004   3.625   2.957   4.730 -0.0222 -0.3157  0.0808
   46MOL   C51533005   3.690   3.071   4.801 -0.1217  0.1581 -0.0448
   46MOL   C51633006   3.779   3.015   4.898  0.1259  0.1863 -0.3919
   46MOL   C51733007   3.878   3.120   4.956  0.1278 -0.3450  0.2129
   46MOL   C51833008   3.913   3.109   5.102 -0.6317  0.1242 -0.2124
   46MOL   C51933009   4.029   3.197   5.141  0.2565 -0.4356 -0.1362
   46MOL   C52033010   4.117   3.166   5.269  0.0851  0.5831 -0.8865
   46MOL   N52133011   4.143   3.027   5.301  0.4013 -0.1870 -0.3327
   46MOL   C52233012   3.302   2.798   4.696 -0.9172 -0.0015  0.1986
   46MOL   C52333013   3.230   2.713   4.613  0.0181 -0.3421  0.8904
   46MOL   H52433014   3.478   2.593   4.425 -0.8235  1.3031 -1.6425
   46MOL   H52533015   3.615   2.729   4.585 -0.0742 -2.3448  0.7416
   46MOL   H52633016   3.665   2.931   4.641 -1.9190  1.4799 -1.3206
   46MOL   H52733017   3.719   3.136   4.719 -2.2207  0.6319 -0.4404
   46MOL   H52833018   3.608   3.124   4.850 -3.2958 -1.8165 -2.9920
   46MOL   H52933019   3.845   2.935   4.869 -0.1253 -0.8302  1.7132
   46MOL   H53033020   3.718   2.982   4.983 -0.0744  4.2497  1.1852
   46MOL   H53133021   3.972   3.099   4.904  0.1538 -3.0299  1.2736
   46MOL   H53233022   3.844   3.222   4.939 -2.5993 -1.3477 -0.4239
   46MOL   H53333023   3.948   3.008   5.124  1.2191  1.2209  2.2042
   46MOL   H53433024   3.828   3.127   5.168  0.0474 -1.4100  1.0985
   46MOL   H53533025   4.001   3.302   5.155  1.7028 -0.0266 -0.3059
   46MOL   H53633026   4.109   3.197   5.067  0.0402 -1.8303 -0.3899
   46MOL   H53733027   4.210   3.221   5.254 -1.3196  2.5366 -2.7090
   46MOL   H53833028   4.080   3.212   5.361 -0.1538 -0.1170 -0.6223
   46MOL   H53933029   4.141   2.996   5.398 -1.7670 -1.0857 -0.6355
   46MOL   H54033030   3.244   2.856   4.767 -0.4116 -0.4557  0.9919
   46MOL   H54133031   3.122   2.714   4.618  0.0363  0.3494  1.1044
   46MOL   C54233032   4.209   2.935   5.227  0.9840 -0.0396 -0.1241
   46MOL   O54333033   4.241   2.951   5.108  0.4197  0.0082 -0.0833
   46MOL   C54433034   4.226   2.808   5.299  0.3231 -0.5888 -0.3244
   46MOL   C54533035   4.359   2.756   5.306  0.0407  0.6875 -0.4468
   46MOL   C54633036   4.385   2.632   5.362 -0.4978 -0.0249  0.8940
   46MOL   C54733037   4.277   2.555   5.406  0.3057 -0.2080  0.8357
   46MOL   C54833038   4.304   2.423   5.466  0.1866 -0.8185  0.0009
   46MOL   O54933039   4.213   2.348   5.493 -0.2002  0.5372 -0.3715
   46MOL   N55033040   4.436   2.393   5.490 -0.5598  0.2207  0.4966
   46MOL   C55133041   4.474   2.292   5.592 -0.0620 -0.8375  0.0342
   46MOL   C55233042   4.518   2.160   5.532  0.3480  0.2781 -0.1187
   46MOL   C55333043   4.568   2.073   5.652 -0.3163  0.0416  0.2011
   46MOL   C55433044   4.624   1.933   5.621 -0.4771  0.4392 -0.2932
   46MOL   C55533045   4.670   1.872   5.753  0.2889 -0.5961  0.6630
   46MOL   C55633046   4.807   1.922   5.795  0.3812 -0.1013 -0.7439
   46MOL   N55733047   4.844   1.886   5.936 -0.1529  0.3289 -0.8182
   46MOL   C55833048   4.145   2.602   5.399  0.3072 -0.6075  0.3200
   46MOL   C55933049   4.117   2.731   5.344  0.6033 -0.0193 -0.3874
   46MOL   H56033050   4.441   2.819   5.272 -0.2178  1.6273  0.6064
   46MOL   H56133051   4.488   2.598   5.362 -0.8612 -1.1829 -0.9002
   46MOL   H56233052   4.496   2.472   5.470  0.7407 -0.0361  3.1270
   46MOL   H56333053   4.555   2.339   5.649 -0.5885 -0.8397  0.7970
   46MOL   H56433054   4.392   2.277   5.662  1.2901 -1.6065  1.4827
   46MOL   H56533055   4.600   2.177   5.462  0.3565  1.5566  0.1881
   46MOL   H56633056   4.439   2.102   5.485  0.0535 -1.7590  2.7817
   46MOL   H56733057   4.642   2.138   5.698 -0.5450 -0.4479  1.2519
   46MOL   H56833058   4.486   2.050   5.720 -1.6563  3.7157 -0.0366
   46MOL   H56933059   4.710   1.944   5.555  0.7811 -1.6915  0.9214
   46MOL   H57033060   4.548   1.874   5.570 -1.5300 -0.4929  2.2440
   46MOL   H57133061   4.682   1.765   5.734 -0.9609 -0.5507 -0.3990
   46MOL   H57233062   4.597   1.878   5.834  1.0007  2.7076  1.0978
   46MOL   H57333063   4.872   1.872   5.724  0.5570  1.3423 -1.6090
   46MOL   H57433064   4.826   2.027   5.775 -2.1771  0.2848 -1.3063
   46MOL   H57533065   4.830   1.791   5.968  0.1674  0.3676 -0.5565
   46MOL   H57633066   4.068   2.534   5.432 -0.1835  0.4050  1.3190
   46MOL   H57733067   4.015   2.769   5.344  0.6784  0.1842 -0.2985
   46MOL   C57833068   4.885   1.979   6.024  0.5989  0.2269  0.4918
   46MOL   O57933069   4.905   2.098   5.989  0.1708 -0.2437 -0.3090
   46MOL   C58033070   4.910   1.932   6.168 -0.4678  0.7101  0.2696
   46MOL   C58133071   4.988   2.010   6.252 -0.1107 -0.1162  0.1680
   46MOL   C58233072   5.005   1.968   6.384 -0.8547  0.0168 -0.1619
   46MOL   C58333073   4.944   1.853   6.437  0.3341 -0.3758  0.8272
   46MOL   C58433074   4.949   1.821   6.587 -0.0284  0.4821  0.5855
   46MOL   O58533075   4.959   1.706   6.628 -0.1444  0.2227 -0.4814
   46MOL   N58633076   4.947   1.933   6.659  0.0683 -0.2570 -0.1941
   46MOL   C58733077   4.983   1.941   6.799  0.3948  0.5831  0.1648
   46MOL   C58833078   4.866   1.995   6.889 -0.0594  0.3081 -0.0814
   46MOL   C58933079   4.902   2.025   7.027 -0.1018 -0.1622  0.3675
   46MOL   C59033080   4.790   2.081   7.114  0.0538  0.2235  0.5545
   46MOL   C59133081   4.841   2.161   7.234 -0.1412  0.0698 -0.7112
   46MOL   C59233082   4.732   2.238   7.313  0.1282 -0.0562 -0.1516
   46MOL   N59333083   4.779   2.344   7.394 -0.0139 -0.1344  0.0429
   46MOL   C59433084   4.869   1.774   6.350  0.5903 -0.0957 -0.0330
   46MOL   C59533085   4.854   1.812   6.213 -0.3284 -0.0979 -0.4056
   46MOL   H59633086   5.027   2.107   6.225 -0.2845 -0.5239 -1.6157
   46MOL   H59733087   5.067   2.032   6.444  2.2657 -0.7860 -2.3439
   46MOL   H59833088   4.949   2.022   6.612  1.7236  0.2809  0.8614
   46MOL   H59933089   5.023   1.851   6.845  1.2630  0.5449 -0.6572
   46MOL   H60033090   5.055   2.023   6.805 -0.3431  1.1866  0.9801
   46MOL   H60133091   4.779   1.930   6.884 -2.3557  3.2964 -0.0007
   46MOL   H60233092   4.845   2.096   6.854  0.7866  0.4169 -0.3049
   46MOL   H60333093   4.937   1.933   7.073  0.0496  0.5832  1.7767
   46MOL   H60433094   4.982   2.098   7.030 -1.2981  1.2077 -0.1827
   46MOL   H60533095   4.715   2.004   7.133  1.6225 -0.8839  2.3683
   46MOL   H60633096   4.740   2.159   7.056 -0.9111  0.4531  1.6680
   46MOL   H60733097   4.920   2.230   7.202 -1.0673  1.6427  0.3277
   46MOL   H60833098   4.892   2.091   7.300 -0.7548  0.8879  0.6578
   46MOL   H60933099   4.662   2.291   7.248  0.6838  1.5123  0.5218
   46MOL   H61033100   4.673   2.166   7.371  0.5721  0.3555  0.8176
   46MOL   H61133101   4.800   2.323   7.491  3.1323 -0.0616 -0.5459
   46MOL   H61233102   4.810   1.689   6.381 -0.1659  0.7830  0.9341
   46MOL   H61333103   4.794   1.753   6.145 -0.2404 -2.0254  1.1569
   46MOL   C61433104   4.819   2.466   7.355  0.5462 -0.3093 -0.0849
   46MOL   O61533105   4.814   2.502   7.237 -0.1309  0.8356  0.3699
   46MOL   C61633106   4.868   2.556   7.463 -0.1310 -0.9505  0.1827
   46MOL   C61733107   4.887   2.692   7.436  0.4232  0.3722  0.0916
   46MOL   C61833108   4.938   2.770   7.536  0.5169  0.0279  0.6385
   46MOL   C61933109   4.988   2.718   7.658  0.1734  0.2977 -0.0550
   46MOL   C62033110   5.058   2.804   7.755  0.2588 -0.2514  0.1490
   46MOL   O62133111   5.092   2.767   7.868  0.4473 -0.0518 -0.1887
   46MOL   N62233112   5.089   2.927   7.716  0.0110  0.3661  0.1875
   46MOL   C62333113   5.144   3.032   7.796 -0.1678  0.5393 -0.1199
   46MOL   C62433114   5.299   3.061   7.760 -0.3039 -0.5905 -0.4759
   46MOL   C62533115   5.315   3.132   7.626  0.6325  0.3695  0.2909
   46MOL   C62633116   5.349   3.025   7.528  0.6801 -0.0815  0.3345
   46MOL   C62733117   5.321   3.064   7.382 -0.2873  0.2714 -0.3299
   46MOL   C62833118   5.374   2.956   7.278 -0.5617  0.2223  0.3691
   46MOL   N62933119   5.311   2.965   7.153 -0.0211 -0.0477  0.7868
   46MOL   C63033120   4.973   2.585   7.683  0.3543 -0.8636  1.0225
   46MOL   C63133121   4.916   2.503   7.582  0.3967 -0.3959 -0.3759
   46MOL   H63233122   4.861   2.735   7.341  1.6950  1.4994  0.2471
   46MOL   H63333123   4.954   2.876   7.518  0.0859  0.3784  2.1888
   46MOL   H63433124   5.072   2.945   7.618  2.2209 -1.5583 -0.6187
   46MOL   H63533125   5.090   3.125   7.780 -2.5306 -0.9023 -0.9177
   46MOL   H63633126   5.139   3.013   0.017 -0.4832 -0.4620 -0.3034
   46MOL   H63733127   5.357   2.970   7.772  1.9309  0.8506 -0.1429
   46MOL   H63833128   5.334   3.131   7.836 -0.1765 -0.5379 -0.5837
   46MOL   H63933129   5.222   3.172   7.586  1.4350  1.8596 -0.1134
   46MOL   H64033130   5.388   3.213   7.629  0.5440  0.4975 -0.9030
   46MOL   H64133131   5.294   2.935   7.554  1.6994 -0.7896  0.0388
   46MOL   H64233132   5.452   2.992   7.545  0.8212  1.1880  2.1711
   46MOL   H64333133   5.378   3.156   7.374  2.3069 -1.3260 -1.1663
   46MOL   H64433134   5.215   3.084   7.370 -0.2448  1.1832  0.7877
   46MOL   H64533135   5.481   2.977   7.279 -0.5886  0.3584  2.4580
   46MOL   H64633136   5.358   2.856   7.318 -0.5255 -0.1758 -0.6051
   46MOL   H64733137   5.275   2.878   7.116  0.2568  1.0087 -2.1248
   46MOL   H64833138   5.008   2.535   7.772  0.7962 -1.4712  0.5143
   46MOL   H64933139   4.896   2.399   7.608  0.1724 -0.2485  0.0619
   46MOL   C65033140   5.319   3.063   7.068  1.0965 -0.3027  0.9052
   46MOL   O65133141   5.390   3.163   7.087  0.3662  0.2031 -0.2102
   46MOL   C65233142   5.238   3.061   6.943  0.5922 -0.6226  0.7713
   46MOL   C65333143   5.286   3.130   6.830 -0.0277 -0.2025  0.5425
   46MOL   C65433144   5.210   3.143   6.716  0.3718 -0.0658  0.3562
   46MOL   C65533145   5.085   3.084   6.705 -0.0844  0.0616 -0.3339
   46MOL   C65633146   5.003   3.106   6.580  0.1020 -0.2192  0.2107
   46MOL   O65733147   4.924   3.018   6.544  0.0608 -0.7020  0.0556
   46MOL   N65833148   5.022   3.221   6.515  0.3078  0.1431 -0.9730
   46MOL   C65933149   4.955   3.263   6.389  0.0507 -0.2111 -0.2370
   46MOL   C66033150   4.835   3.350   6.427 -0.3826  0.4407  0.0589
   46MOL   C66133151   4.797   3.435   6.307  0.3601  0.6164  0.4129
   46MOL   C66233152   4.660   3.508   6.327 -0.4798  0.2050 -0.4732
   46MOL   C66333153   4.548   3.415   6.288 -0.5216 -0.0531 -0.3045
   46MOL   C66433154   4.415   3.473   6.330  0.3304 -0.3119  0.5968
   46MOL   N66533155   4.380   3.598   6.258  0.0316 -0.3419 -0.1561
   46MOL   C66633156   5.035   3.001   6.809  0.2138  0.8095  0.0049
   46MOL   C66733157   5.117   2.991   6.923  0.1097  0.4665  0.0756
   46MOL   H66833158   5.379   3.186   6.836 -0.2661  0.2072  0.4449
   46MOL   H66933159   5.251   3.201   6.634  1.6433  1.4665  2.0134
   46MOL   H67033160   5.078   3.287   6.567  1.0013 -0.4513 -0.9518
   46MOL   H67133161   5.026   3.315   6.325 -0.1008 -0.3530 -0.5166
   46MOL   H67233162   4.933   3.176   6.328 -2.1797  2.0709 -2.8501
   46MOL   H67333163   4.860   3.412   6.512 -1.9268  1.3273 -0.1249
   46MOL   H67433164   4.766   3.271   6.458 -0.0294  0.8011  1.7900
   46MOL   H67533165   4.877   3.509   6.305  0.1666  0.9068  2.4073
   46MOL   H67633166   4.810   3.370   6.221  1.6783 -2.0572  2.5642
   46MOL   H67733167   4.656   3.597   6.265 -1.6685  1.1024  0.8522
   46MOL   H67833168   4.646   3.542   6.430  0.7630 -0.8174  0.0578
   46MOL   H67933169   4.565   3.320   6.340  1.9644  0.2991 -0.3961
   46MOL   H68033170   4.543   3.382   6.184  0.9410 -1.6469  0.0893
   46MOL   H68133171   4.336   3.399   6.325  1.5493 -1.5821 -0.3749
   46MOL   H68233172   4.420   3.501   6.435 -2.7005  2.4664  0.0707
   46MOL   H68333173   4.444   3.674   6.275 -0.2370  0.1664 -1.3992
   46MOL   H68433174   4.942   2.948   6.794  2.1057 -2.8427  0.5496
   46MOL   H68533175   5.086   2.917   6.996 -1.0210  0.8583  0.0014
   46MOL   C68633176   4.311   3.604   6.142  0.3062 -0.0415 -0.0825
   46MOL   O68733177   4.257   3.509   6.083  0.8235 -0.2860 -0.6097
   46MOL   C68833178   4.306   3.742   6.084  0.8097 -0.6388 -0.0495
   46MOL   C68933179   4.288   3.849   6.172 -0.0009  0.4320  0.0204
   46MOL   C69033180   4.282   3.979   6.117  0.7891  0.2019  0.2566
   46MOL   C69133181   4.295   4.006   5.980 -0.1145 -0.1469  0.8517
   46MOL   C69233182   4.297   4.142   5.916 -0.2330  0.6386 -0.5576
   46MOL   O69333183   4.277   4.154   5.793  0.4149 -0.3521  0.4693
   46MOL   N69433184   4.316   4.252   5.998 -0.0011  0.5678  0.1931
   46MOL   C69533185   4.317   4.394   5.956 -0.0178  0.4925 -0.0013
   46MOL   C69633186   4.185   4.452   6.000 -0.4841  0.2974 -0.2025
   46MOL   C69733187   4.166   4.594   5.956 -0.0896  0.1282  0.2837
   46MOL   C69833188   4.027   4.655   5.964  0.2052 -0.3849 -0.4525
   46MOL   C69933189   4.020   4.805   5.940  0.0721  0.0849  0.1487
   46MOL   C70033190   3.875   4.850   5.904  0.5572 -0.1206  0.1819
   46MOL   N70133191   3.876   4.991   5.886  0.5027  0.3026 -0.0449
   46MOL   C70233192   4.308   3.896   5.896 -0.2074  0.1174 -0.4811
   46MOL   C70333193   4.307   3.764   5.949  0.3743  0.7343  0.0521
   46MOL   H70433194   4.291   3.839   6.280 -0.6165 -0.1934 -0.0189
   46MOL   H70533195   4.278   4.064   6.184  2.6971 -1.1155  2.1022
   46MOL   H70633196   4.357   4.233   6.088 -3.1136 -1.5430  1.2649
   46MOL   H70733197   4.406   4.437   6.001  0.5175  0.4160 -0.9678
   46MOL   H70833198   4.322   4.401   5.847 -0.6805  1.2880  0.0155
   46MOL   H70933199   4.168   4.448   6.107  2.9412 -0.7433  0.3523
   46MOL   H71033200   4.102   4.396   5.957 -0.3018 -0.9087  1.0055
   46MOL   H71133201   4.239   4.653   6.011 -0.9178  1.4211  0.0125
   46MOL   H71233202   4.204   4.611   5.855  0.2492 -2.3018 -0.0301
   46MOL   H71333203   3.989   4.629   6.063  1.1076  2.7417  0.7847
   46MOL   H71433204   3.960   4.615   5.887 -0.2566  2.7557 -1.7636
   46MOL   H71533205   4.093   4.831   5.863 -1.0432 -0.6247 -1.1804
   46MOL   H71633206   4.050   4.849   6.035  1.5286  1.1504 -0.7915
   46MOL   H71733207   3.820   4.807   5.820 -2.2459 -0.1449  1.9665
   46MOL   H71833208   3.815   4.833   5.993 -0.8318  0.3136 -0.6365
   46MOL   H71933209   3.941   5.022   5.816  1.3024 -0.9923  0.0916
   46MOL   H72033210   4.331   3.905   5.790  1.4500  0.1529 -0.1322
   46MOL   H72133211   4.326   3.682   5.882 -1.6549 -0.0851  0.4485
   46MOL   H72233212   3.910   5.026   5.975 -0.5132 -0.8292  0.8082
   47MOL     C133213   2.022   4.114   1.937 -0.2144 -0.0742  0.6815
   47MOL     O233214   2.005   3.993   1.956  0.1007  0.1408  0.4551
   47MOL     C333215   2.146   4.193   1.973 -0.3497  0.1516  0.1919
   47MOL     C433216   2.243   4.126   2.054 -0.4160  0.7246  0.0786
   47MOL     C533217   2.367   4.191   2.087  0.5881  0.8108 -0.1285
   47MOL     C633218   2.394   4.317   2.036  0.1047  0.5774 -0.4358
   47MOL     C733219   2.528   4.380   2.061  0.3716 -0.4141  0.2529
   47MOL     O833220   2.611   4.319   2.123  0.3196 -0.8088 -0.3674
   47MOL     N933221   2.552   4.507   2.025  0.2343  0.1835  0.0492
   47MOL    C1033222   2.685   4.568   2.038 -0.3918  0.2776  0.0520
   47MOL    C1133223   2.674   4.713   1.987  0.0407 -0.7263  0.0700
   47MOL    C1233224   2.805   4.800   1.991 -0.2282 -0.4308 -0.1920
   47MOL    C1333225   2.791   4.933   1.930  0.0562  0.0906 -0.4092
   47MOL    C1433226   2.795   4.950   1.780 -0.9466  0.3340 -0.2988
   47MOL    C1533227   2.791   5.096   1.757  0.2759 -0.2431  0.4927
   47MOL    N1633228   2.788   5.126   1.618 -0.0174 -0.0065 -0.0527
   47MOL    C1733229   2.301   4.386   1.952  0.2176 -0.6500 -0.7633
   47MOL    C1833230   2.177   4.322   1.928  0.4854 -0.0424 -0.2899
   47MOL    H1933231   2.231   4.022   2.081 -1.7364  0.4956 -1.3086
   47MOL    H2033232   2.440   4.128   2.137 -0.8420 -3.9459 -3.6286
   47MOL    H2133233   2.470   4.556   1.993  1.3195  1.6340 -0.6177
   47MOL    H2233234   2.717   4.571   2.142  1.1254  0.4939 -0.4176
   47MOL    H2333235   2.765   4.508   1.995 -0.5126  0.1853 -0.0416
   47MOL    H2433236   2.596   4.764   2.045  0.3585 -0.9590  0.7089
   47MOL    H2533237   2.639   4.699   1.885  2.3164 -1.5204 -0.6146
   47MOL    H2633238   2.826   4.804   2.097  1.8498 -0.8187 -0.5661
   47MOL    H2733239   2.882   4.737   1.945 -1.4016 -0.6837 -1.8603
   47MOL    H2833240   2.877   4.989   1.966 -0.2264  0.1551  0.1764
   47MOL    H2933241   2.701   4.978   1.972  0.4973  0.7423 -0.1658
   47MOL    H3033242   2.711   4.897   1.735 -0.5547 -0.9595  0.4479
   47MOL    H3133243   2.890   4.915   1.739  0.0770 -1.3346  3.2560
   47MOL    H3233244   2.709   5.143   1.810  0.0370 -0.3082  0.1800
   47MOL    H3333245   2.878   5.146   1.799 -1.0650  1.6540  1.0737
   47MOL    H3433246   2.871   5.125   1.560 -0.1061 -1.5001 -0.1620
   47MOL    H3533247   2.321   4.482   1.908  0.0943 -0.5924 -0.6934
   47MOL    H3633248   2.110   4.381   1.868  0.2116 -0.7017 -0.6345
   47MOL    H3733249   1.947   4.166   1.877 -0.4607 -0.5759  0.5506
   47MOL    C3833250   2.678   5.173   1.565  0.2166  0.0940  0.4404
   47MOL    O3933251   2.568   5.190   1.626 -0.4206  0.3731  0.4864
   47MOL    C4033252   2.694   5.204   1.423  0.1378 -0.9487  0.2790
   47MOL    C4133253   2.772   5.126   1.334 -0.1770  0.6592 -0.5227
   47MOL    C4233254   2.785   5.163   1.199  0.4466  0.0862  0.3271
   47MOL    C4333255   2.729   5.277   1.151 -0.2728  0.2509  0.1267
   47MOL    C4433256   2.747   5.315   1.003  0.3390 -0.0892 -0.9948
   47MOL    O4533257   2.654   5.363   0.938  0.2623 -0.3788  0.2404
   47MOL    N4633258   2.872   5.292   0.957 -0.0117  1.0461 -0.4190
   47MOL    C4733259   2.919   5.333   0.823  0.6102  0.5906  0.4717
   47MOL    C4833260   3.066   5.308   0.801 -0.1953 -0.4899 -0.3132
   47MOL    C4933261   3.107   5.338   0.662  0.1904 -0.1753  0.1104
   47MOL    C5033262   3.063   5.476   0.603  0.0810 -0.0548 -0.4085
   47MOL    C5133263   2.934   5.469   0.515 -0.5920 -0.1816  0.6291
   47MOL    C5233264   2.869   5.606   0.484 -0.5250  0.3348  0.2976
   47MOL    N5333265   2.809   5.668   0.607 -0.1435 -0.4892  0.2961
   47MOL    C5433266   2.634   5.349   1.233 -0.7152 -0.4152  0.8149
   47MOL    C5533267   2.619   5.315   1.370  0.0978  0.4516  0.2347
   47MOL    H5633268   2.806   5.033   1.377 -0.9060 -0.1711 -1.6854
   47MOL    H5733269   2.853   5.102   1.141 -0.2100  0.7777 -1.1936
   47MOL    H5833270   2.942   5.248   1.015 -0.2650  2.0502  0.6445
   47MOL    H5933271   2.861   5.280   0.748  1.2806  1.6471 -0.7982
   47MOL    H6033272   2.894   5.437   0.801  2.3284  0.7934 -0.5419
   47MOL    H6133273   3.098   5.206   0.823  0.7717  0.2076  1.5858
   47MOL    H6233274   3.119   5.374   0.870 -2.4679  1.4322 -0.3402
   47MOL    H6333275   3.215   5.347   0.649 -0.0314 -0.1161 -1.8210
   47MOL    H6433276   3.074   5.259   0.595 -1.0512  2.1019 -2.0772
   47MOL    H6533277   3.149   5.512   0.545 -0.0362 -1.2035 -1.3074
   47MOL    H6633278   3.054   5.545   0.686 -1.0437 -0.3622 -0.2767
   47MOL    H6733279   2.859   5.409   0.565 -0.8039  0.2717  0.8564
   47MOL    H6833280   2.963   5.420   0.422  0.9089  0.7995  0.5589
   47MOL    H6933281   2.946   5.665   0.433  2.2239 -3.2754  0.0715
   47MOL    H7033282   2.787   5.592   0.414  1.3923 -0.4925 -1.8303
   47MOL    H7133283   2.829   5.625   0.697 -1.7982 -2.2561 -0.1559
   47MOL    H7233284   2.585   5.439   1.199 -0.2939 -0.3423  0.3859
   47MOL    H7333285   2.557   5.375   1.436 -1.7060 -0.5127 -0.5716
   47MOL    C7433286   2.726   5.774   0.610  0.9399  0.0329  0.0268
   47MOL    O7533287   2.694   5.842   0.515 -0.0927  0.5968 -0.6629
   47MOL    C7633288   2.674   5.797   0.749 -0.2539  0.4413 -0.2584
   47MOL    C7733289   2.675   5.698   0.851  0.6443 -0.6606  0.3070
   47MOL    C7833290   2.639   5.721   0.980 -0.4953 -0.0188 -1.3256
   47MOL    C7933291   2.601   5.848   1.025 -0.1728 -0.0441  0.2902
   47MOL    C8033292   2.569   5.886   1.167  0.6663 -0.0010  0.7910
   47MOL    O8133293   2.577   6.001   1.206 -0.2897  0.0631  0.4083
   47MOL    N8233294   2.522   5.796   1.250  0.5075  0.3253 -0.4493
   47MOL    C8333295   2.468   5.812   1.385 -0.5626  0.3476  0.2942
   47MOL    C8433296   2.337   5.734   1.409  0.0732 -0.0397  0.5548
   47MOL    C8533297   2.352   5.591   1.374 -0.4825  0.5906 -0.0584
   47MOL    C8633298   2.223   5.515   1.387  0.1173 -0.4213  0.3262
   47MOL    C8733299   2.198   5.475   1.530 -0.0112 -0.1043 -0.3912
   47MOL    C8833300   2.059   5.405   1.538 -0.5552 -0.3472 -0.3649
   47MOL    N8933301   2.019   5.349   1.670 -0.5497  0.7867  0.1786
   47MOL    C9033302   2.589   5.948   0.924  0.4060 -0.1114  0.7596
   47MOL    C9133303   2.630   5.927   0.787 -0.6636  0.2566 -0.5800
   47MOL    H9233304   2.701   5.598   0.819  1.1018 -0.5647  0.3843
   47MOL    H9333305   2.628   5.643   1.054 -2.4735  0.0044 -1.5718
   47MOL    H9433306   2.524   5.702   1.211  1.2193 -0.0978  0.5849
   47MOL    H9533307   2.539   5.769   1.456 -1.3738 -0.7617  0.4445
   47MOL    H9633308   2.472   5.916   1.417  2.8012  0.5292 -0.4860
   47MOL    H9733309   2.272   5.786   1.338 -0.7601 -0.4186  1.0241
   47MOL    H9833310   2.304   5.745   1.512  1.0847  0.5151  0.8200
   47MOL    H9933311   2.392   5.580   1.273 -2.9635  0.5913 -1.0826
   47MOL   H10033312   2.436   5.560   1.437 -0.8068 -0.6663 -0.2293
   47MOL   H10133313   2.239   5.422   1.332 -0.0568  0.8155 -1.8812
   47MOL   H10233314   2.140   5.570   1.342  1.1155  0.2460 -0.7540
   47MOL   H10333315   2.196   5.565   1.592 -2.7808  0.6368 -1.4965
   47MOL   H10433316   2.276   5.408   1.565  0.7532  0.5485 -0.8073
   47MOL   H10533317   1.976   5.466   1.503  0.2581  0.1144 -1.5214
   47MOL   H10633318   2.062   5.322   1.467 -0.6431 -0.2791 -0.4475
   47MOL   H10733319   1.954   5.407   1.722 -1.9950  1.1643 -1.9671
   47MOL   H10833320   2.556   6.048   0.948 -0.5399 -0.6127  1.5755
   47MOL   H10933321   2.620   6.002   0.709  1.2527  0.6227 -0.5089
   47MOL   C11033322   2.075   5.239   1.727 -0.1892 -0.3496  0.5073
   47MOL   O11133323   2.162   5.178   1.668 -0.2053 -0.5200 -0.1154
   47MOL   C11233324   2.020   5.185   1.859  0.3953  0.0357 -0.2522
   47MOL   C11333325   2.108   5.141   1.958  0.0354 -0.6432  0.7073
   47MOL   C11433326   2.060   5.082   2.081  0.8087  1.2949 -1.1572
   47MOL   C11533327   1.916   5.065   2.096 -0.1795  0.3726  0.3580
   47MOL   C11633328   1.865   5.007   2.222  0.0706  0.0757  0.1236
   47MOL   O11733329   1.752   5.035   2.262  0.2738  0.3656  0.3380
   47MOL   N11833330   1.941   4.916   2.287 -0.3506 -0.1475 -0.0582
   47MOL   C11933331   1.906   4.857   2.410 -0.0818 -0.4781  0.1678
   47MOL   C12033332   2.034   4.802   2.481  0.5372  0.3459  0.4754
   47MOL   C12133333   2.004   4.760   2.625  0.4245  0.5978  0.4212
   47MOL   C12233334   2.137   4.728   2.691 -0.3829 -0.2713 -1.0867
   47MOL   C12333335   2.140   4.687   2.836  0.2104 -0.8760 -0.2676
   47MOL   C12433336   2.064   4.558   2.876 -0.0086 -0.0214 -0.4081
   47MOL   N12533337   1.925   4.552   2.844  0.2991  0.0944 -0.7877
   47MOL   C12633338   1.831   5.098   1.991 -0.3682  0.2152 -0.1679
   47MOL   C12733339   1.876   5.167   1.874  0.2696  0.4569 -0.4333
   47MOL   H12833340   2.211   5.172   1.951  0.0172 -0.9761 -1.3038
   47MOL   H12933341   2.126   5.046   2.158  1.3297  0.3420 -2.0361
   47MOL   H13033342   2.035   4.897   2.255  0.2696  0.4109  1.3794
   47MOL   H13133343   1.864   4.932   2.477 -0.5367 -0.7845  0.2270
   47MOL   H13233344   1.835   4.774   2.401  1.8452 -2.1356 -0.2010
   47MOL   H13333345   2.111   4.878   2.495  0.8955  0.0375  0.1967
   47MOL   H13433346   2.074   4.710   2.438  0.9546  0.0440  1.4919
   47MOL   H13533347   1.954   4.842   2.675 -3.5093 -1.6981  0.4729
   47MOL   H13633348   1.926   4.683   2.621 -1.5056  2.5775 -0.9049
   47MOL   H13733349   2.216   4.801   2.680 -1.2664  0.6789 -1.2440
   47MOL   H13833350   2.182   4.638   2.649 -0.0744 -0.1743 -0.9675
   47MOL   H13933351   2.118   4.777   2.894  0.4962 -2.4074  2.2976
   47MOL   H14033352   2.244   4.672   2.864  0.3411  0.3939 -0.0130
   47MOL   H14133353   2.106   4.467   2.833  0.9402  0.6398 -0.9161
   47MOL   H14233354   2.073   4.541   2.984  0.4740  0.0121 -0.4391
   47MOL   H14333355   1.905   4.535   2.747  1.4383 -1.2302 -0.8065
   47MOL   H14433356   1.726   5.093   2.016 -0.3720 -2.0295 -0.4630
   47MOL   H14533357   1.801   5.195   1.802  0.2099  1.0544 -0.1368
   47MOL   C14633358   1.829   4.612   2.921 -0.2896 -0.3092  0.2268
   47MOL   O14733359   1.848   4.647   3.040  0.5155  0.2807  0.4184
   47MOL   C14833360   1.703   4.637   2.852  0.6182  0.2296  0.4146
   47MOL   C14933361   1.596   4.550   2.877 -0.5506 -0.0680  0.3849
   47MOL   C15033362   1.469   4.587   2.829  0.4877  0.7358  0.5334
   47MOL   C15133363   1.439   4.707   2.758 -0.3094 -0.6804 -0.0431
   47MOL   C15233364   1.302   4.740   2.708 -0.0259  0.2100  0.9906
   47MOL   O15333365   1.234   4.647   2.658  0.1496 -0.0039  0.1062
   47MOL   N15433366   1.266   4.868   2.724 -0.2578  0.5872 -0.6784
   47MOL   C15533367   1.137   4.919   2.688  0.0753  0.1096 -0.3366
   47MOL   C15633368   1.135   4.959   2.537 -0.3787  0.4000  0.5394
   47MOL   C15733369   1.018   5.046   2.497 -0.9633 -0.0578 -0.5366
   47MOL   C15833370   1.011   5.076   2.348  0.1010 -0.3422  0.5067
   47MOL   C15933371   1.103   5.188   2.296  0.4112 -0.1174  0.3693
   47MOL   C16033372   1.059   5.325   2.334 -0.2044 -0.5843 -0.3150
   47MOL   N16133373   1.141   5.418   2.265  0.5510 -0.5738  0.0359
   47MOL   C16233374   1.551   4.796   2.742 -0.7645 -0.1690  0.0273
   47MOL   C16333375   1.687   4.761   2.783  0.0972 -0.9529  0.5161
   47MOL   H16433376   1.599   4.460   2.937 -0.5787  1.4560  2.7413
   47MOL   H16533377   1.392   4.512   2.840  2.1198 -1.3134 -1.3151
   47MOL   H16633378   1.328   4.915   2.788 -2.0144  0.6096  1.0383
   47MOL   H16733379   1.060   4.844   2.706 -0.8835  0.4839 -2.6748
   47MOL   H16833380   1.115   5.009   2.747  1.6927 -0.8901  1.8654
   47MOL   H16933381   1.141   4.871   2.472  1.0620  0.5499  0.4689
   47MOL   H17033382   1.222   5.016   2.507  0.8369 -1.1439  1.0800
   47MOL   H17133383   0.929   4.995   2.535  0.2263 -0.8407  1.2400
   47MOL   H17233384   1.023   5.139   2.555 -2.4923 -0.6535  0.5839
   47MOL   H17333385   0.909   5.108   2.328  0.4137 -1.2159 -2.7009
   47MOL   H17433386   1.027   4.983   2.294  0.1250  0.2864 -0.5865
   47MOL   H17533387   1.103   5.181   2.188  4.0517 -2.2071  0.4305
   47MOL   H17633388   1.207   5.169   2.323  0.3042 -1.6964 -0.2546
   47MOL   H17733389   0.952   5.340   2.314 -0.0976 -0.8542 -1.0842
   47MOL   H17833390   1.072   5.341   2.441 -0.5711  0.2241 -0.3884
   47MOL   H17933391   1.239   5.396   2.277  0.5878 -0.2331  0.3649
   47MOL   H18033392   1.543   4.894   2.696  1.2446  1.0158  2.0847
   47MOL   H18133393   1.771   4.827   2.769  0.8753 -2.1152 -0.4050
   47MOL   C18233394   1.102   5.514   2.180  0.5660 -0.2263 -0.5827
   47MOL   O18333395   0.984   5.533   2.157  0.0174 -0.2625 -0.3151
   47MOL   C18433396   1.213   5.586   2.111  0.0781  0.3431  1.5198
   47MOL   C18533397   1.213   5.592   1.969  0.0602  0.7226  0.2743
   47MOL   C18633398   1.319   5.656   1.903  0.3136  0.2458 -0.0437
   47MOL   C18733399   1.424   5.717   1.970 -0.5574 -0.2286  0.0430
   47MOL   C18833400   1.540   5.777   1.890  0.5453  0.3672 -0.3178
   47MOL   O18933401   1.659   5.774   1.919 -0.1960  0.1031 -0.3114
   47MOL   N19033402   1.500   5.855   1.788  0.0404  0.6420  0.3550
   47MOL   C19133403   1.594   5.923   1.703  0.7598  0.0364  0.0044
   47MOL   C19233404   1.519   6.020   1.610  0.6216 -0.3824 -0.1772
   47MOL   C19333405   1.410   5.950   1.524 -0.2728 -0.1367  0.3850
   47MOL   C19433406   1.351   6.047   1.420  0.3762 -0.6541 -0.2574
   47MOL   C19533407   1.245   6.138   1.477  0.0405  0.2730  0.5144
   47MOL   C19633408   1.169   6.226   1.374  0.6071 -0.4336  0.4156
   47MOL   N19733409   1.104   6.139   1.282  0.1976 -0.2068  0.1133
   47MOL   C19833410   1.429   5.705   2.116 -0.3373  0.4643  0.7759
   47MOL   C19933411   1.324   5.642   2.182  0.5209 -0.3675 -0.1634
   47MOL   H20033412   1.134   5.540   1.916  1.7717  0.2933 -1.9370
   47MOL   H20133413   1.325   5.663   1.796 -1.3746  0.4645 -0.1517
   47MOL   H20233414   1.401   5.876   1.785 -0.0654 -0.0152 -1.1966
   47MOL   H20333415   1.677   5.977   1.750  0.8262  1.1574 -1.3791
   47MOL   H20433416   1.633   5.846   1.637 -0.3872 -0.4554 -0.1084
   47MOL   H20533417   1.594   6.079   1.557  1.1559 -0.2759  0.6776
   47MOL   H20633418   1.465   6.088   1.676 -0.1548 -0.7245 -0.4530
   47MOL   H20733419   1.471   5.888   1.458  0.7992  0.0163  1.2124
   47MOL   H20833420   1.329   5.898   1.575 -2.2734  2.2456 -0.2660
   47MOL   H20933421   1.326   5.987   1.332  0.3504 -2.1387  0.7523
   47MOL   H21033422   1.434   6.103   1.378 -1.0090 -0.0800 -2.3143
   47MOL   H21133423   1.286   6.201   1.557  2.1825  1.3327 -1.3607
   47MOL   H21233424   1.181   6.063   1.524  0.4686 -0.0371  0.6001
   47MOL   H21333425   1.094   6.287   1.426  1.3132 -0.0311  0.9722
   47MOL   H21433426   1.229   6.300   1.320 -0.0225 -0.8677 -0.8973
   47MOL   H21533427   1.077   6.048   1.317 -1.0275  0.3938  0.7456
   47MOL   H21633428   1.503   5.747   2.182 -1.3656 -0.0746  2.3244
   47MOL   H21733429   1.323   5.638   2.290  0.2960  2.7467 -0.0030
   47MOL   C21833430   1.082   6.164   1.153 -0.0223 -0.5743 -0.2546
   47MOL   O21933431   1.099   6.274   1.097  0.1969  0.3125  0.3609
   47MOL   C22033432   1.043   6.045   1.073  0.1167 -0.2006 -0.4478
   47MOL   C22133433   1.131   5.935   1.053 -0.1907 -0.1885  0.2234
   47MOL   C22233434   1.100   5.837   0.962  0.1971 -0.0154  0.4769
   47MOL   C22333435   0.978   5.829   0.888  0.1876  0.1012  0.2275
   47MOL   C22433436   0.935   5.711   0.811 -0.4357  0.1759  0.3568
   47MOL   O22533437   0.827   5.708   0.751  0.0760  0.1796  0.4588
   47MOL   N22633438   1.019   5.603   0.820  0.1084 -0.0796  0.2040
   47MOL   C22733439   0.987   5.474   0.761 -0.0727  0.0973 -0.1773
   47MOL   C22833440   1.110   5.389   0.719  0.0491 -0.4306  0.3497
   47MOL   C22933441   1.191   5.456   0.609  0.0783  0.8205  0.1753
   47MOL   C23033442   1.328   5.390   0.577  0.2252  0.4947  0.2557
   47MOL   C23133443   1.416   5.469   0.479 -0.1463 -0.0242  0.4033
   47MOL   C23233444   1.534   5.388   0.445 -0.3847 -0.2721 -1.0541
   47MOL   N23333445   1.630   5.462   0.361  0.1679  0.7152  0.1934
   47MOL   C23433446   0.893   5.943   0.909  0.5975  0.6086  0.0233
   47MOL   C23533447   0.923   6.051   0.998 -0.3981  0.3894 -0.6036
   47MOL   H23633448   1.222   5.934   1.111  0.1586 -0.2033 -0.3184
   47MOL   H23733449   1.176   5.761   0.952  1.8532  1.6099  0.5161
   47MOL   H23833450   1.107   5.608   0.870  0.6087 -0.4345 -0.6391
   47MOL   H23933451   0.929   5.411   0.829  0.0677  1.5041  1.2981
   47MOL   H24033452   0.921   5.485   0.675 -0.1704  0.6473 -0.0375
   47MOL   H24133453   1.076   5.294   0.678 -1.8016 -1.1223  3.3799
   47MOL   H24233454   1.166   5.369   0.810 -3.2982 -1.3354  2.2849
   47MOL   H24333455   1.147   5.466   0.511  1.4219 -2.7936 -0.8611
   47MOL   H24433456   1.214   5.561   0.626 -0.1795  0.9882 -0.5155
   47MOL   H24533457   1.310   5.291   0.536  1.1873 -0.2519  1.6103
   47MOL   H24633458   1.383   5.382   0.670  0.0501 -0.5615  0.2716
   47MOL   H24733459   1.430   5.566   0.526  0.8537  0.5208 -0.9722
   47MOL   H24833460   1.369   5.489   0.383  2.8096  1.9738 -0.7117
   47MOL   H24933461   1.580   5.350   0.536 -0.7376  0.2777 -0.6481
   47MOL   H25033462   1.500   5.297   0.396 -2.9348 -0.3880  0.8464
   47MOL   H25133463   1.652   5.550   0.405 -1.7830  0.9247  0.7855
   47MOL   H25233464   0.803   5.952   0.849  1.6428  1.3964 -1.4425
   47MOL   H25333465   0.856   6.133   1.016 -0.7334  0.4842 -2.2440
   47MOL   C25433466   1.710   5.419   0.259  0.7325 -0.1374  0.4566
   47MOL   O25533467   1.700   5.307   0.204 -0.4864 -0.0729 -0.3926
   47MOL   C25633468   1.801   5.521   0.203 -0.1520 -1.3155  0.6355
   47MOL   C25733469   1.809   5.649   0.263  0.3613  0.1132 -0.2778
   47MOL   C25833470   1.903   5.745   0.224  1.1068  0.2650 -0.3687
   47MOL   C25933471   1.988   5.716   0.113 -0.2162  0.3733 -0.3011
   47MOL   C26033472   2.088   5.816   0.064 -0.0472  0.3076 -0.4569
   47MOL   O26133473   2.060   5.940   0.084 -0.7258 -0.0976  0.4946
   47MOL   N26233474   2.194   5.768   0.007 -0.5016  0.2111 -0.1829
   47MOL   C26333475   2.303   5.848   7.837  0.2637  0.6936  0.3214
   47MOL   C26433476   2.283   5.852   7.686 -0.3399 -0.0779 -0.3357
   47MOL   C26533477   2.385   5.943   7.622 -0.3777  0.0707  0.3928
   47MOL   C26633478   2.531   5.941   7.657  0.1971 -0.0781  0.6312
   47MOL   C26733479   2.605   6.033   7.564  0.5120  0.5016 -0.2064
   47MOL   C26833480   2.751   6.069   7.601 -0.0710 -0.3703  0.4258
   47MOL   N26933481   2.839   5.958   7.581  0.1380  0.4877  0.1401
   47MOL   C27033482   1.977   5.588   0.046  0.6194 -1.0696 -0.2135
   47MOL   C27133483   1.889   5.491   0.096  0.0188  0.4144 -0.1897
   47MOL   H27233484   1.752   5.675   0.350  0.0863  1.1107 -0.7427
   47MOL   H27333485   1.917   5.837   0.279  2.6832 -1.5526  2.3933
   47MOL   H27433486   2.206   5.669   7.882  1.5847  0.3464  0.5816
   47MOL   H27533487   2.300   5.945   7.885  0.8851  0.1282  1.5338
   47MOL   H27633488   2.395   5.804   7.876  0.1957 -0.1386 -0.4115
   47MOL   H27733489   2.185   5.897   7.673 -0.1168  0.0682 -1.5796
   47MOL   H27833490   2.265   5.755   7.642  1.2175 -0.9992  0.9894
   47MOL   H27933491   2.383   5.946   7.513 -2.3169 -0.3562  0.3909
   47MOL   H28033492   2.348   6.045   7.630  0.8839  0.6823 -1.3889
   47MOL   H28133493   2.565   5.840   7.637  0.6166  0.4212 -1.2380
   47MOL   H28233494   2.543   5.975   7.760 -0.1478 -0.4526  0.7988
   47MOL   H28333495   2.568   6.135   7.571  1.4494  0.7544  1.2928
   47MOL   H28433496   2.599   6.004   7.459 -0.4219  2.3087 -0.6797
   47MOL   H28533497   2.778   6.150   7.533 -0.3649  0.2722  1.0716
   47MOL   H28633498   2.755   6.116   7.700  0.3471 -1.8557  1.1310
   47MOL   H28733499   2.817   5.906   7.497  0.9616 -1.0995  0.8895
   47MOL   H28833500   2.048   5.559   7.855  1.4433  0.3622 -0.0128
   47MOL   H28933501   1.882   5.395   0.047  0.9536  1.2193 -1.9717
   47MOL   C29033502   2.959   5.928   7.645  0.5328 -0.3211  0.2255
   47MOL   O29133503   3.009   5.996   7.738 -0.1678  0.1113 -0.2818
   47MOL   C29233504   3.032   5.828   7.572 -0.3575  0.5592  0.1892
   47MOL   C29333505   2.974   5.703   7.550 -0.6166  0.1436 -0.3608
   47MOL   C29433506   3.038   5.609   7.463  0.1291  0.2538 -0.0469
   47MOL   C29533507   3.168   5.632   7.417  0.5212 -0.1482  0.5454
   47MOL   C29633508   3.231   5.526   7.330 -0.0755  0.0778 -0.5141
   47MOL   O29733509   3.353   5.507   7.335  0.4592 -0.2118 -0.1485
   47MOL   N29833510   3.151   5.455   7.254 -0.6026 -0.1689 -0.0203
   47MOL   C29933511   3.194   5.338   7.183 -0.7865  0.7643  0.1421
   47MOL   C30033512   3.072   5.281   7.104 -0.3119  0.0022 -0.0162
   47MOL   C30133513   3.112   5.158   7.033  0.1934  0.1672  0.7249
   47MOL   C30233514   3.164   5.046   7.121  0.1678 -0.1494  0.3226
   47MOL   C30333515   3.151   4.901   7.057  0.3993  0.0295  0.0503
   47MOL   C30433516   3.217   4.790   7.140  0.7288 -0.2198  0.3300
   47MOL   N30533517   3.353   4.819   7.191  0.0917 -0.2653 -0.0188
   47MOL   C30633518   3.228   5.754   7.446 -0.2202  0.1456  0.3002
   47MOL   C30733519   3.163   5.855   7.521  0.0027 -0.6526 -0.7691
   47MOL   H30833520   2.878   5.686   7.596  0.3888 -0.0718  1.7166
   47MOL   H30933521   2.993   5.511   7.464  1.0588 -0.1834  0.2586
   47MOL   H31033522   3.056   5.477   7.280  0.3136  1.9262  1.7547
   47MOL   H31133523   3.278   5.366   7.120 -0.9940 -1.2122 -1.0591
   47MOL   H31233524   3.218   5.262   7.258 -1.8593 -0.8612 -1.1365
   47MOL   H31333525   3.033   5.361   7.042  1.7587  1.0854  0.0410
   47MOL   H31433526   2.993   5.266   7.177 -2.3922 -0.9096 -2.4061
   47MOL   H31533527   3.028   5.124   6.972  1.3452 -1.1680 -0.1505
   47MOL   H31633528   3.191   5.184   6.962 -1.4958  0.0554 -1.2295
   47MOL   H31733529   3.114   5.032   7.217  0.7883 -0.5179  0.5946
   47MOL   H31833530   3.272   5.059   7.133  0.3594 -1.0266 -0.3680
   47MOL   H31933531   3.209   4.903   6.965  0.1297 -1.4876 -0.1706
   47MOL   H32033532   3.047   4.883   7.030  0.6177 -0.6539 -0.3403
   47MOL   H32133533   3.159   4.765   7.229  1.1736  0.7607  0.9072
   47MOL   H32233534   3.226   4.703   7.075 -1.8544  0.2690 -0.7592
   47MOL   H32333535   3.360   4.825   7.291  2.2524  1.4551 -0.2365
   47MOL   H32433536   3.327   5.778   7.410  0.6550 -0.8797  1.9827
   47MOL   H32533537   3.211   5.951   7.525 -0.1200 -0.5969 -0.6497
   47MOL   C32633538   3.469   4.801   7.121  0.5977 -0.0738 -0.4241
   47MOL   O32733539   3.471   4.786   7.001  0.6352 -0.2978 -0.2834
   47MOL   C32833540   3.597   4.808   7.200 -0.5766 -0.1973 -0.3953
   47MOL   C32933541   3.598   4.860   7.328 -0.2417 -0.2378 -0.5511
   47MOL   C33033542   3.713   4.858   7.410 -0.6505 -0.0677  0.0038
   47MOL   C33133543   3.831   4.793   7.356  0.3039  0.1574  0.1126
   47MOL   C33233544   3.958   4.791   7.426 -0.1684  0.4563  0.1807
   47MOL   O33333545   4.053   4.719   7.399  0.1482 -0.5073 -0.6466
   47MOL   N33433546   3.971   4.876   7.525 -0.4413 -0.4877 -0.3073
   47MOL   C33533547   4.076   4.874   7.625 -0.3995  0.1095  0.4980
   47MOL   C33633548   4.196   4.962   7.581  0.0254 -0.1921 -0.0331
   47MOL   C33733549   4.161   5.110   7.567  0.2230 -0.0209 -0.1685
   47MOL   C33833550   4.077   5.158   7.445 -0.3934  0.1576 -1.0073
   47MOL   C33933551   4.138   5.125   7.313 -0.1759  0.3409  0.5856
   47MOL   C34033552   4.285   5.175   7.287  0.4861  0.3149  0.3600
   47MOL   N34133553   4.326   5.139   7.151  0.1268  0.6228  0.1234
   47MOL   C34233554   3.832   4.757   7.220  0.0843  0.0058 -0.0759
   47MOL   C34333555   3.716   4.759   7.145  0.3550  0.3153 -0.0019
   47MOL   H34433556   3.519   4.910   7.381  0.9434 -0.1504  1.1617
   47MOL   H34533557   3.708   4.881   7.515 -4.9876  0.0237 -0.1078
   47MOL   H34633558   3.888   4.927   7.550 -1.2101 -1.8300 -0.1273
   47MOL   H34733559   4.046   4.918   7.720  0.0522 -3.2541  2.2875
   47MOL   H34833560   4.110   4.773   7.650 -0.9189 -0.0836  0.4339
   47MOL   H34933561   4.251   4.916   7.499  0.8728  0.9953 -0.1486
   47MOL   H35033562   4.264   4.952   7.665 -1.2015  1.8726  1.2603
   47MOL   H35133563   4.112   5.129   7.662 -2.6290 -1.2159 -1.3568
   47MOL   H35233564   4.249   5.174   7.571  0.0175  0.1267  2.7619
   47MOL   H35333565   4.048   5.263   7.449 -0.8175  0.0310 -0.7077
   47MOL   H35433566   3.980   5.107   7.454  0.8512 -2.3843 -1.5624
   47MOL   H35533567   4.076   5.152   7.228  2.2160  1.2315 -0.9360
   47MOL   H35633568   4.147   5.016   7.306  0.3625  0.2913  1.8311
   47MOL   H35733569   4.286   5.283   7.298 -1.0388  0.6093 -2.1392
   47MOL   H35833570   4.350   5.126   7.360  2.6431  1.4937 -0.7447
   47MOL   H35933571   4.310   5.204   7.075 -3.0269 -0.0984  0.1041
   47MOL   H36033572   3.924   4.735   7.168  0.4418  2.9999 -0.8141
   47MOL   H36133573   3.729   4.737   7.040 -0.0867 -2.2888  0.4473
   47MOL   C36233574   4.386   5.027   7.116 -0.3772  0.2109  0.1803
   47MOL   O36333575   4.407   4.936   7.195  0.2292 -0.2925 -0.4925
   47MOL   C36433576   4.433   5.020   6.972  0.8391  0.2244  0.2112
   47MOL   C36533577   4.443   5.138   6.893 -0.1179  0.5471  0.4996
   47MOL   C36633578   4.476   5.135   6.754 -0.0771 -0.0916 -0.1287
   47MOL   C36733579   4.494   5.006   6.688  0.2752 -0.1436  0.2074
   47MOL   C36833580   4.514   4.997   6.539 -0.7209 -0.5277 -0.4881
   47MOL   O36933581   4.435   5.051   6.457  0.6075 -0.1084  0.2427
   47MOL   N37033582   4.603   4.910   6.497  0.7221  0.1722  0.9591
   47MOL   C37133583   4.659   4.905   6.363  0.4363  0.4247 -0.7569
   47MOL   C37233584   4.803   4.846   6.373  0.5828 -0.1618  0.2171
   47MOL   C37333585   4.887   4.825   6.247  0.6503  0.2560 -0.3321
   47MOL   C37433586   4.924   4.954   6.171 -0.0012 -0.5973  0.3328
   47MOL   C37533587   4.933   4.945   6.019 -0.2834  0.3348 -0.0392
   47MOL   C37633588   4.966   5.080   5.943 -0.7084 -0.3606 -0.2558
   47MOL   N37733589   4.969   5.049   5.800 -0.3074  0.1680  0.0326
   47MOL   C37833590   4.478   4.892   6.765  0.1654  0.1733 -0.1707
   47MOL   C37933591   4.451   4.894   6.900  1.1356 -0.1902 -0.6339
   47MOL   H38033592   4.437   5.240   6.929 -0.2403  0.8642 -0.4162
   47MOL   H38133593   4.495   5.220   6.690  1.7055 -0.2293  0.1950
   47MOL   H38233594   4.649   4.864   6.574  0.9692 -0.9234  0.1827
   47MOL   H38333595   4.590   4.844   6.306 -0.5161  0.0404  0.7733
   47MOL   H38433596   4.665   5.004   6.318 -0.4806  0.0342 -1.7716
   47MOL   H38533597   4.803   4.747   6.418  0.2571 -0.3233 -0.1313
   47MOL   H38633598   4.851   4.912   6.445  0.9273  0.0577 -0.2081
   47MOL   H38733599   4.970   4.755   6.259  2.5470  2.7731  1.7128
   47MOL   H38833600   4.811   4.777   6.184 -0.8664  1.1022  0.8311
   47MOL   H38933601   5.016   4.993   6.217 -0.9618  0.9792  0.9726
   47MOL   H39033602   4.846   5.027   6.192  1.0614  0.5258  0.4489
   47MOL   H39133603   4.845   4.891   5.984  0.4839 -2.6196  2.3893
   47MOL   H39233604   5.012   4.871   6.003  0.0571  0.3332  1.6208
   47MOL   H39333605   4.917   5.172   5.975  1.6892  0.6000  0.7504
   47MOL   H39433606   5.065   5.109   5.978 -1.3150  0.7200  0.5815
   47MOL   H39533607   4.878   5.047   5.755  0.0707  0.1902 -0.7320
   47MOL   H39633608   4.468   4.793   6.723 -2.8307  1.7105 -3.4101
   47MOL   H39733609   4.433   4.806   6.959  0.1654  0.4402  0.0339
   47MOL   C39833610   5.080   5.015   5.727 -0.3128 -0.4337  0.7571
   47MOL   O39933611   5.191   5.012   5.778  0.3577 -0.0216 -0.1606
   47MOL   C40033612   5.062   4.947   5.594 -0.5596  0.3517 -0.1839
   47MOL   C40133613   4.934   4.960   5.524  0.5840  0.5519  0.2592
   47MOL   C40233614   4.914   4.894   5.406 -0.1622 -0.1111 -0.0869
   47MOL   C40333615   5.006   4.803   5.363  0.4293 -0.1154  0.1727
   47MOL   C40433616   4.970   4.708   5.251 -0.7449  0.1454 -0.1283
   47MOL   O40533617   5.063   4.672   5.178 -0.0076  0.1917 -0.0449
   47MOL   N40633618   4.840   4.671   5.246  0.5315  0.0262  0.3004
   47MOL   C40733619   4.783   4.597   5.131  0.1242  0.2397  0.2452
   47MOL   C40833620   4.635   4.631   5.112  0.2380  0.4291  0.6783
   47MOL   C40933621   4.615   4.776   5.097 -0.1100  0.5469 -0.0382
   47MOL   C41033622   4.474   4.826   5.067  0.1368  0.1207 -0.4472
   47MOL   C41133623   4.438   4.972   5.106  0.5151  0.6528  0.3844
   47MOL   C41233624   4.403   4.990   5.257 -0.0771  0.0669  0.4548
   47MOL   N41333625   4.397   5.130   5.293  0.1898 -0.0815  0.3148
   47MOL   C41433626   5.132   4.789   5.422  0.0113  0.4503  0.4229
   47MOL   C41533627   5.162   4.872   5.533 -0.2562 -0.1325 -0.5464
   47MOL   H41633628   4.863   5.032   5.562 -0.5562 -0.7527  0.6438
   47MOL   H41733629   4.818   4.897   5.355  0.6001  2.4612 -1.4729
   47MOL   H41833630   4.764   4.696   5.308  0.4837 -0.3643  0.4022
   47MOL   H41933631   4.844   4.597   5.042 -0.6012  1.1928 -0.2672
   47MOL   H42033632   4.782   4.494   5.166 -0.2026 -0.1007 -0.7673
   47MOL   H42133633   4.578   4.590   5.196  1.6648 -1.5910  0.6923
   47MOL   H42233634   4.605   4.591   5.015  1.0113 -1.7562  1.3047
   47MOL   H42333635   4.652   4.837   5.180 -0.4995  0.4587  0.1966
   47MOL   H42433636   4.672   4.819   5.014 -0.4611 -0.4972 -0.8308
   47MOL   H42533637   4.401   4.756   5.107 -0.6934  1.4446  0.4249
   47MOL   H42633638   4.466   4.819   4.958  2.5735 -2.9214 -0.5040
   47MOL   H42733639   4.345   5.003   5.057  1.5185  0.1693 -1.8835
   47MOL   H42833640   4.507   5.045   5.065 -0.0372  1.3117  0.6056
   47MOL   H42933641   4.305   4.952   5.282  0.8557 -1.0518  2.4915
   47MOL   H43033642   4.470   4.939   5.325  0.5539  1.3013  0.7801
   47MOL   H43133643   4.417   5.193   5.217 -2.5629  1.3323  0.6927
   47MOL   H43233644   5.202   4.714   5.390 -0.7760 -0.3608  0.6079
   47MOL   H43333645   5.260   4.870   5.578 -0.3199 -2.1094 -0.4739
   47MOL   C43433646   4.406   5.168   5.420 -0.5368  0.4767 -0.1064
   47MOL   O43533647   4.406   5.086   5.511  1.0986  0.3015 -0.4383
   47MOL   C43633648   4.425   5.314   5.440 -0.0970  0.4537  0.8607
   47MOL   C43733649   4.547   5.343   5.496  0.6021  0.5105 -0.9504
   47MOL   C43833650   4.568   5.479   5.523 -0.5246 -0.0443  0.4852
   47MOL   C43933651   4.470   5.579   5.500 -0.2410  0.3528 -0.9868
   47MOL   C44033652   4.496   5.725   5.529 -0.5344 -0.0593 -0.3014
   47MOL   O44133653   4.589   5.784   5.475  0.5310  1.0598  0.0092
   47MOL   N44233654   4.423   5.782   5.626 -0.2155  0.4742  0.6723
   47MOL   C44333655   4.437   5.924   5.662  0.8188 -0.2750  0.1556
   47MOL   C44433656   4.562   5.961   5.742 -1.3337  0.0532  0.3460
   47MOL   C44533657   4.565   6.109   5.773  0.3766  0.5928 -0.2027
   47MOL   C44633658   4.676   6.146   5.870 -0.3367 -0.5111  1.0139
   47MOL   C44733659   4.669   6.290   5.914  0.8782 -0.3018 -0.0120
   47MOL   C44833660   4.694   6.393   5.798  0.1579  0.3064 -1.0215
   47MOL   N44933661   4.658   6.534   5.842  0.3835 -0.2331  0.0156
   47MOL   C45033662   4.341   5.541   5.463  0.5751  0.2842  1.1471
   47MOL   C45133663   4.318   5.407   5.428  0.3966 -0.4883 -0.0403
   47MOL   H45233664   4.629   5.273   5.505  0.9927  1.3512  2.7756
   47MOL   H45333665   4.657   5.506   5.578 -0.8074  0.5633  0.6566
   47MOL   H45433666   4.359   5.724   5.679 -2.1526  1.7380 -0.2393
   47MOL   H45533667   4.427   5.977   5.568 -3.1218  0.1000  0.7102
   47MOL   H45633668   4.347   5.951   5.717  1.8157 -0.0648  1.7258
   47MOL   H45733669   4.654   5.933   5.690 -2.7174 -1.3593 -1.4136
   47MOL   H45833670   4.556   5.896   5.828 -2.4286 -1.9066 -1.1714
   47MOL   H45933671   4.574   6.172   5.685 -0.2995  1.0838  0.0732
   47MOL   H46033672   4.475   6.135   5.829  0.7097 -0.3875  0.8144
   47MOL   H46133673   4.775   6.128   5.827 -0.3047  0.5234  0.6556
   47MOL   H46233674   4.673   6.077   5.954 -2.4050 -3.0990 -1.1079
   47MOL   H46333675   4.744   6.303   5.992  0.7324  3.0375 -0.3272
   47MOL   H46433676   4.578   6.315   5.970  1.1441  1.7429 -0.4606
   47MOL   H46533677   4.802   6.382   5.791  0.2250 -1.4613  2.0410
   47MOL   H46633678   4.629   6.368   5.714  0.6589 -0.6195 -1.1404
   47MOL   H46733679   4.633   6.555   5.938  3.7383  0.4833  0.8038
   47MOL   H46833680   4.272   5.624   5.463 -0.6417 -0.6991  2.1806
   47MOL   H46933681   4.223   5.370   5.392 -0.5395  1.6329  0.1935
   47MOL   C47033682   4.675   6.634   5.754 -0.0819  0.3797  0.4900
   47MOL   O47133683   4.715   6.618   5.638  0.6566 -0.1252 -0.1472
   47MOL   C47233684   4.637   6.775   5.798 -0.1623  0.2938 -0.0806
   47MOL   C47333685   4.691   6.886   5.727 -0.1233  0.8873 -0.3355
   47MOL   C47433686   4.660   7.020   5.752 -0.7177  0.3606  0.0205
   47MOL   C47533687   4.563   7.048   5.853  0.8705  0.0512 -0.0774
   47MOL   C47633688   4.527   7.185   5.890  0.3187  0.0714 -0.3386
   47MOL   O47733689   4.417   7.218   5.918 -0.1686  0.5622 -0.4844
   47MOL   N47833690   4.634   7.268   5.887 -0.0320 -0.6922  0.2324
   47MOL   C47933691   4.627   7.408   5.934 -0.8440  0.4421  0.0894
   47MOL   C48033692   4.610   7.400   6.086  0.0883  0.3387 -0.3567
   47MOL   C48133693   4.736   7.390   6.175 -0.7460 -0.4521  0.3254
   47MOL   C48233694   4.718   7.399   6.327  0.6286  0.7571  0.1603
   47MOL   C48333695   4.858   7.387   6.397  0.3123 -0.1004  0.2814
   47MOL   C48433696   4.862   7.352   6.545  0.1936 -0.1278 -0.4170
   47MOL   N48533697   4.774   7.434   6.639 -0.1058  0.1948  0.5365
   47MOL   C48633698   4.505   6.934   5.922  0.2578 -0.8097 -0.2996
   47MOL   C48733699   4.544   6.799   5.903 -0.1693 -0.3329  0.3168
   47MOL   H48833700   4.758   6.864   5.645 -0.9318  1.4557 -1.1688
   47MOL   H48933701   4.710   7.094   5.690  3.3260 -1.5430  0.8380
   47MOL   H49033702   4.723   7.244   5.847 -0.5500 -0.9551 -0.7622
   47MOL   H49133703   4.716   7.464   5.905 -0.9376  0.1876 -0.7237
   47MOL   H49233704   4.542   7.461   5.889 -1.2022  1.0451  1.4714
   47MOL   H49333705   4.543   7.319   6.114  0.7086  0.5749  1.9422
   47MOL   H49433706   4.553   7.489   6.115  3.2264  1.7020  1.9730
   47MOL   H49533707   4.786   7.298   6.145  2.9296  1.6274 -0.2540
   47MOL   H49633708   4.809   7.467   6.150 -1.0248  0.0401  1.0088
   47MOL   H49733709   4.660   7.310   6.353 -0.3772  1.2486 -0.3959
   47MOL   H49833710   4.647   7.476   6.356 -1.9211 -1.0908 -1.0590
   47MOL   H49933711   4.895   7.489   6.388  0.8588 -0.3199  0.0233
   47MOL   H50033712   4.916   7.322   6.332 -1.5700 -1.8012  0.2385
   47MOL   H50133713   4.838   7.246   6.559  0.8827 -0.4497 -1.6351
   47MOL   H50233714   4.966   7.359   6.575  0.4570  1.7108 -1.7057
   47MOL   H50333715   4.674   7.422   6.631 -0.2832  0.4015  2.3070
   47MOL   H50433716   4.440   6.960   6.004  0.2317 -0.8183 -0.3175
   47MOL   H50533717   4.496   6.723   5.963  1.1065 -0.8086  0.7544
   47MOL   C50633718   4.803   7.521   6.741 -0.0772 -0.1784  0.2714
   47MOL   O50733719   4.915   7.538   6.790 -0.7473  0.5348  0.0919
   47MOL   C50833720   4.686   7.596   6.793  0.2953 -0.8543  0.0715
   47MOL   C50933721   4.591   7.655   6.706 -0.4779  0.7973  0.1736
   47MOL   C51033722   4.489   7.733   6.761  0.3568  0.1163  0.0312
   47MOL   C51133723   4.482   7.756   6.902 -0.3961 -0.1686 -0.2191
   47MOL   C51233724   4.374   7.848   6.959 -0.0816 -0.3327  0.6316
   47MOL   O51333725   4.359   7.865   7.079  0.5735  0.4781 -0.0172
   47MOL   N51433726   4.304   0.036   6.873 -0.6374 -0.2822 -0.1444
   47MOL   C51533727   4.198   0.120   6.914  0.3655  0.1928 -0.4808
   47MOL   C51633728   4.105   0.155   6.792 -0.4489 -0.7007  0.1134
   47MOL   C51733729   3.982   0.240   6.828  0.3288  0.3623 -0.6233
   47MOL   C51833730   3.892   0.281   6.715 -0.0763  0.4740  0.1715
   47MOL   C51933731   3.804   0.173   6.663  0.7755 -0.0070  0.1502
   47MOL   C52033732   3.690   0.141   6.762  0.2401 -0.3420  0.2601
   47MOL   N52133733   3.733   0.038   6.853 -0.0882  0.6977  0.8073
   47MOL   C52233734   4.581   7.697   6.985  0.2413 -1.2308  0.6453
   47MOL   C52333735   4.681   7.617   6.931 -0.3461  1.4091 -0.3014
   47MOL   H52433736   4.611   7.639   6.601 -1.9573 -1.9492  0.2502
   47MOL   H52533737   4.410   7.775   6.701  1.5911  1.9081 -0.3665
   47MOL   H52633738   4.347   0.038   6.782 -1.9569  0.3379 -0.7668
   47MOL   H52733739   4.141   0.067   6.990  0.3835  0.7037 -0.1126
   47MOL   H52833740   4.226   0.218   6.952 -0.0242  0.7291 -1.5423
   47MOL   H52933741   4.058   0.071   6.741 -0.3399 -1.1243  0.7149
   47MOL   H53033742   4.168   0.206   6.719 -0.2544 -1.5381 -0.3151
   47MOL   H53133743   3.938   0.185   6.911  1.4901  2.2914  1.3545
   47MOL   H53233744   4.013   0.337   6.868  1.1021  0.5896 -1.7574
   47MOL   H53333745   3.957   0.318   6.636 -1.5328  1.4063 -0.6140
   47MOL   H53433746   3.828   0.365   6.744 -0.4236 -0.0176  0.8412
   47MOL   H53533747   3.876   0.100   6.629  0.4958 -0.4450  0.4874
   47MOL   H53633748   3.763   0.204   6.567 -0.6730  0.4186  0.8770
   47MOL   H53733749   3.650   0.233   6.804 -1.3001 -0.9208  0.0686
   47MOL   H53833750   3.606   0.112   6.699  0.0203 -0.5797  0.6589
   47MOL   H53933751   3.815   7.873   6.823  0.6383  2.0299  0.5000
   47MOL   H54033752   4.579   7.719   7.090  2.0595  0.7288  0.2969
   47MOL   H54133753   4.750   7.563   6.994 -2.0712 -0.1244  0.3129
   47MOL   C54233754   3.666   0.012   6.966 -0.3485 -0.3345  0.0203
   47MOL   O54333755   3.560   0.065   6.996  0.0510  0.1237 -0.5015
   47MOL   C54433756   3.726   7.793   7.055 -0.2451 -0.8745  0.4112
   47MOL   C54533757   3.646   7.695   7.119  0.4655  0.9395  0.0353
   47MOL   C54633758   3.709   7.608   7.211 -0.2267 -0.3552  0.3136
   47MOL   C54733759   3.845   7.603   7.221  0.4836  0.1092  0.7602
   47MOL   C54833760   3.909   7.486   7.280 -0.3328 -0.0933 -0.2054
   47MOL   O54933761   3.877   7.458   7.394  0.1055 -0.1417  0.0465
   47MOL   N55033762   3.991   7.412   7.210  0.1183 -0.2124 -0.8565
   47MOL   C55133763   4.034   7.282   7.267  0.4871 -0.3405  0.8874
   47MOL   C55233764   4.164   7.231   7.193 -0.3151 -0.7141 -0.6831
   47MOL   C55333765   4.278   7.333   7.203 -0.6472 -0.0715 -0.4799
   47MOL   C55433766   4.407   7.303   7.124 -0.0882 -0.1555  0.3926
   47MOL   C55533767   4.378   7.306   6.971 -0.0087  0.0493 -0.4653
   47MOL   C55633768   4.495   7.288   6.880 -1.0917  0.2744  0.6966
   47MOL   N55733769   4.444   7.299   6.741  0.4819 -0.5586 -0.2467
   47MOL   C55833770   3.925   7.700   7.157  0.0260  0.2408 -0.1439
   47MOL   C55933771   3.870   7.797   7.076 -0.3452 -0.3209 -0.1733
   47MOL   H56033772   3.540   7.695   7.098  0.3574 -0.2083  0.5175
   47MOL   H56133773   3.646   7.540   7.265 -0.4436 -0.0332  0.4690
   47MOL   H56233774   4.014   7.440   7.116 -1.6109 -0.9174 -1.5115
   47MOL   H56333775   4.054   7.294   7.374 -0.0710  0.9060  0.8614
   47MOL   H56433776   3.965   7.199   7.259  1.1428 -1.0460  2.2649
   47MOL   H56533777   4.137   7.209   7.090 -0.3069  1.0715 -1.0746
   47MOL   H56633778   4.185   7.133   7.237  0.9053 -0.3565 -0.4609
   47MOL   H56733779   4.248   7.437   7.186 -3.3883 -0.8695 -0.7429
   47MOL   H56833780   4.307   7.317   7.306 -0.5017  0.8291 -0.3716
   47MOL   H56933781   4.451   7.209   7.159 -1.7826 -0.0488  2.9204
   47MOL   H57033782   4.470   7.387   7.150  0.2483 -0.5042  0.7105
   47MOL   H57133783   4.327   7.399   6.948 -0.1466  0.0550 -0.1272
   47MOL   H57233784   4.315   7.221   6.946 -0.6265  0.7433 -1.2810
   47MOL   H57333785   4.571   7.365   6.895  1.2813 -1.7900 -0.2233
   47MOL   H57433786   4.546   7.194   6.901 -2.2956 -0.3486  0.8695
   47MOL   H57533787   4.360   7.351   6.721  0.7019  0.4324  1.3535
   47MOL   H57633788   4.030   7.680   7.170 -0.8039 -2.5298  2.9171
   47MOL   H57733789   3.937   7.872   7.035  0.4451 -0.7199  0.3775
   47MOL   C57833790   4.492   7.234   6.640  0.4993  0.4676 -0.5438
   47MOL   O57933791   4.586   7.154   6.646 -0.1028 -0.7547  0.1593
   47MOL   C58033792   4.416   7.256   6.510 -0.0205 -0.3801  0.2601
   47MOL   C58133793   4.363   7.386   6.486 -0.2250  0.1335 -0.6111
   47MOL   C58233794   4.286   7.410   6.371  0.3310  1.1188  0.3349
   47MOL   C58333795   4.284   7.310   6.268  0.2186  0.3165 -0.1904
   47MOL   C58433796   4.205   7.330   6.145 -0.4144  0.5544 -0.1718
   47MOL   O58533797   4.141   7.232   6.098  0.2818  0.2512  0.2196
   47MOL   N58633798   4.222   7.444   6.086  0.3117  0.2182 -0.2699
   47MOL   C58733799   4.172   7.470   5.951  0.0441  0.6878  0.3290
   47MOL   C58833800   4.241   7.599   5.901 -0.0757  0.9508  0.3439
   47MOL   C58933801   4.199   7.714   5.992  0.8355  0.1091 -0.0192
   47MOL   C59033802   4.258   7.844   5.940 -0.2798  0.2506  0.8740
   47MOL   C59133803   4.412   7.864   5.940  0.3593 -0.7299  0.2343
   47MOL   C59233804   4.468   0.122   5.927  0.3483 -0.1226 -1.0585
   47MOL   N59333805   4.434   0.168   5.793 -0.2158  0.5804 -0.1151
   47MOL   C59433806   4.343   7.185   6.289  0.1150 -0.5459 -0.1498
   47MOL   C59533807   4.416   7.156   6.407  0.3173  0.1514 -0.2104
   47MOL   H59633808   4.376   7.470   6.553  0.0782  1.4106 -2.2344
   47MOL   H59733809   4.222   7.497   6.360 -0.5605  0.5689  1.1505
   47MOL   H59833810   4.289   7.505   6.130 -0.2297  0.7242 -0.1437
   47MOL   H59933811   4.184   7.389   5.879  1.5820  0.8756  0.3534
   47MOL   H60033812   4.064   7.481   5.963 -0.2244 -0.6568 -0.7371
   47MOL   H60133813   4.209   7.625   5.800  3.4939  0.5379 -0.9531
   47MOL   H60233814   4.347   7.579   5.909 -0.3783  0.1402  2.7452
   47MOL   H60333815   4.090   7.714   5.999  0.8819 -1.7767  1.1658
   47MOL   H60433816   4.231   7.699   6.096 -0.1001 -0.2131  0.2243
   47MOL   H60533817   4.222   0.045   5.994 -2.8366  0.4101 -0.9967
   47MOL   H60633818   4.213   7.844   5.841  1.8577  0.5255 -0.1141
   47MOL   H60733819   4.461   7.796   5.870 -1.1185  1.2760 -2.8691
   47MOL   H60833820   4.442   7.817   6.034 -0.0032  1.9497  1.7250
   47MOL   H60933821   4.431   0.186   6.007  2.1158 -0.1475 -0.2016
   47MOL   H61033822   4.575   0.139   5.936  0.0415  0.6680  1.3289
   47MOL   H61133823   4.493   0.151   5.712 -0.1820  0.5862 -0.0915
   47MOL   H61233824   4.335   7.102   6.220  2.9056 -1.3358  0.3887
   47MOL   H61333825   4.443   7.054   6.431  0.9154 -0.1481 -2.0821
   47MOL   C61433826   4.331   0.247   5.771 -0.1138  0.9077  0.0439
   47MOL   O61533827   4.260   0.299   5.857  0.1343  0.6234  0.2436
   47MOL   C61633828   4.306   0.274   5.625 -0.3606  0.0872 -0.6955
   47MOL   C61733829   4.265   0.399   5.587 -0.1767 -0.5473 -0.6995
   47MOL   C61833830   4.256   0.437   5.453  0.8600  0.0251 -0.0134
   47MOL   C61933831   4.283   0.341   5.354  0.2723  0.7255 -0.0042
   47MOL   C62033832   4.271   0.373   5.215  0.2031  0.1309  0.0233
   47MOL   O62133833   4.344   0.331   5.124  0.8470 -0.9120 -0.6387
   47MOL   N62233834   4.167   0.454   5.188  0.2628  0.0833  1.1138
   47MOL   C62333835   4.107   0.484   5.056 -0.5338 -0.5228 -0.2256
   47MOL   C62433836   4.022   0.611   5.060 -0.2164  0.3048  0.5952
   47MOL   C62533837   3.979   0.639   4.914 -0.1632 -0.6115 -0.5926
   47MOL   C62633838   3.851   0.723   4.902  0.4729 -0.0257 -0.3810
   47MOL   C62733839   3.868   0.857   4.973  0.3439  0.8416 -1.7158
   47MOL   C62833840   3.747   0.950   4.960  0.1217 -0.5293 -0.6251
   47MOL   N62933841   3.781   1.086   5.008  0.1549  0.4885 -0.5478
   47MOL   C63033842   4.318   0.206   5.389 -0.1138 -0.3824 -0.4276
   47MOL   C63133843   4.327   0.175   5.525  0.2508 -0.1487  0.5743
   47MOL   H63233844   4.238   0.474   5.660 -0.0504  0.7005 -1.9099
   47MOL   H63333845   4.214   0.535   5.434 -0.1969 -0.6401 -1.2031
   47MOL   H63433846   4.113   0.470   5.271 -1.8017  0.7994 -0.3263
   47MOL   H63533847   4.190   0.504   4.989  0.1215  1.7685  1.1782
   47MOL   H63633848   4.050   0.397   5.024 -2.3085  0.6781 -0.4181
   47MOL   H63733849   4.081   0.695   5.099  1.3394 -0.6324  0.2787
   47MOL   H63833850   3.947   0.607   5.139  2.4003 -0.5963  3.1227
   47MOL   H63933851   4.064   0.687   4.867 -1.0406  2.2189  0.6265
   47MOL   H64033852   3.970   0.553   4.848  1.5100 -2.2418  1.2197
   47MOL   H64133853   3.770   0.660   4.940  0.1522 -1.6415 -3.5500
   47MOL   H64233854   3.827   0.725   4.796  1.6570  0.4370 -0.6415
   47MOL   H64333855   3.957   0.907   4.936  0.6807  1.1379 -0.5330
   47MOL   H64433856   3.870   0.829   5.079  2.6069 -0.2391 -2.0142
   47MOL   H64533857   3.730   0.959   4.853 -0.1596 -2.2596 -0.7392
   47MOL   H64633858   3.664   0.906   5.015 -1.8871  1.1553 -2.2275
   47MOL   H64733859   3.866   1.103   5.058 -0.1719 -5.0586  2.3157
   47MOL   H64833860   4.324   0.133   5.309 -0.0668  1.8898 -2.5841
   47MOL   H64933861   4.345   0.072   5.553  1.3163 -0.4639 -1.1907
   47MOL   C65033862   3.690   1.184   5.018 -0.3931  1.0697  0.2048
   47MOL   O65133863   3.586   1.184   4.952 -0.8030  1.0144  0.2988
   47MOL   C65233864   3.717   1.287   5.116 -0.8030  0.2339 -0.0740
   47MOL   C65333865   3.786   1.256   5.236  0.2901 -0.5511  0.0524
   47MOL   C65433866   3.779   1.352   5.340 -0.6987 -0.0883  0.1704
   47MOL   C65533867   3.717   1.481   5.327 -0.1243 -0.0412  0.4744
   47MOL   C65633868   3.693   1.566   5.447  0.3263  0.3706 -0.1505
   47MOL   O65733869   3.604   1.650   5.450  0.1746 -0.0520 -0.3484
   47MOL   N65833870   3.776   1.557   5.547  0.3184 -0.2448 -0.2249
   47MOL   C65933871   3.768   1.656   5.663  0.3296 -0.1306 -0.1662
   47MOL   C66033872   3.870   1.642   5.772 -0.1924 -0.6393 -0.5630
   47MOL   C66133873   3.865   1.519   5.862  0.0682  0.5449  0.1295
   47MOL   C66233874   3.961   1.534   5.982 -0.5961 -0.0349 -0.2735
   47MOL   C66333875   3.967   1.406   6.074  0.2749 -0.0916 -0.0390
   47MOL   C66433876   4.086   1.307   6.052  0.1845 -0.3660 -0.1803
   47MOL   N66533877   4.075   1.222   5.925 -0.2460 -0.5185  0.2537
   47MOL   C66633878   3.667   1.515   5.201  0.3627 -0.9439  0.0578
   47MOL   C66733879   3.659   1.417   5.101  0.4054  0.5967 -0.0966
   47MOL   H66833880   3.825   1.156   5.251  0.4193 -0.2787  1.5838
   47MOL   H66933881   3.818   1.326   5.438 -0.1221 -4.7550 -1.2218
   47MOL   H67033882   3.863   1.509   5.529 -0.1899 -1.7432  1.2403
   47MOL   H67133883   3.781   1.755   5.619 -0.0387  0.3182  0.7175
   47MOL   H67233884   3.670   1.647   5.711  0.4058 -1.7691 -0.3047
   47MOL   H67333885   3.857   1.724   5.842  0.6715 -2.0985  1.3645
   47MOL   H67433886   3.971   1.651   5.732 -0.0082  1.0321  0.2323
   47MOL   H67533887   3.761   1.513   5.892  0.0171  3.0966  0.6091
   47MOL   H67633888   3.885   1.433   5.797 -0.1231  0.2090  0.5186
   47MOL   H67733889   3.925   1.614   6.047  0.7868  1.2366 -1.0451
   47MOL   H67833890   4.062   1.570   5.962 -0.3270  1.0314  2.6879
   47MOL   H67933891   3.874   1.352   6.057  0.5589 -0.4505 -0.4592
   47MOL   H68033892   3.960   1.434   6.179 -1.5879 -1.3803  0.2052
   47MOL   H68133893   4.168   1.378   6.041  0.8881 -0.9095  1.4756
   47MOL   H68233894   4.099   1.249   6.143  0.1064 -0.7241 -0.3981
   47MOL   H68333895   3.993   1.228   5.867  0.7647  0.5602 -1.1130
   47MOL   H68433896   3.610   1.605   5.185  1.0993 -0.4807  0.0440
   47MOL   H68533897   3.604   1.426   5.008 -0.7924  2.4701  0.7550
   47MOL   C68633898   4.160   1.127   5.894 -0.7808  0.1063  0.2150
   47MOL   O68733899   4.248   1.081   5.968 -0.0746  0.1952 -1.3809
   47MOL   C68833900   4.150   1.087   5.750 -0.2820  0.1146  0.6564
   47MOL   C68933901   4.058   1.144   5.653 -0.0681  0.5614 -0.2513
   47MOL   C69033902   4.055   1.108   5.520 -0.1307  1.3883 -0.5920
   47MOL   C69133903   4.158   1.032   5.463  0.1982  0.0341 -0.3645
   47MOL   C69233904   4.160   1.005   5.316  0.2928  0.0576  0.2000
   47MOL   O69333905   4.055   1.002   5.259 -0.3791  0.6503  0.3194
   47MOL   N69433906   4.281   1.011   5.257  0.1674  0.4120  0.2258
   47MOL   C69533907   4.317   0.987   5.114 -0.2597 -0.3969  0.0269
   47MOL   C69633908   4.442   0.899   5.096  0.2142  0.1659  0.3317
   47MOL   C69733909   4.414   0.750   5.135  0.7189 -0.6286  0.4267
   47MOL   C69833910   4.531   0.654   5.092 -0.6166 -0.2438 -0.3001
   47MOL   C69933911   4.511   0.597   4.951  0.0601 -0.1628 -0.4871
   47MOL   C70033912   4.633   0.523   4.892  0.0119 -0.2328  0.5368
   47MOL   N70133913   4.714   0.631   4.840 -0.8956  0.1198  0.0348
   47MOL   C70233914   4.257   0.979   5.552 -0.4863  0.0401 -0.1378
   47MOL   C70333915   4.253   1.007   5.693  0.0167 -0.9888 -0.4889
   47MOL   H70433916   3.984   1.217   5.683  0.2695  0.6578  0.3474
   47MOL   H70533917   3.988   1.152   5.447  2.8170  0.9365 -3.6868
   47MOL   H70633918   4.361   1.028   5.315  3.2219 -0.7462 -3.4532
   47MOL   H70733919   4.234   0.948   5.055 -0.7167 -0.7252  0.8896
   47MOL   H70833920   4.347   1.084   5.073 -0.5504 -0.5927 -0.6665
   47MOL   H70933921   4.533   0.925   5.151  0.3184  1.0592 -0.2440
   47MOL   H71033922   4.483   0.913   4.996 -0.4483 -0.0086  0.0313
   47MOL   H71133923   4.382   0.746   5.239 -1.6039 -1.6614 -0.2800
   47MOL   H71233924   4.329   0.712   5.077  1.7760 -0.3281 -1.3547
   47MOL   H71333925   4.530   0.566   5.157 -0.9438 -1.0356 -1.3485
   47MOL   H71433926   4.633   0.690   5.098 -0.8383  0.3190  0.1706
   47MOL   H71533927   4.479   0.674   4.881  0.7611  0.9135  0.3430
   47MOL   H71633928   4.423   0.535   4.944 -2.1369  2.7051  0.7229
   47MOL   H71733929   4.675   0.465   4.974  0.9929 -0.5954 -0.2069
   47MOL   H71833930   4.594   0.463   4.809  2.2374 -0.2843 -0.5227
   47MOL   H71933931   4.798   0.597   4.796  0.5355  2.6235  0.7246
   47MOL   H72033932   4.340   0.919   5.517 -0.1963 -1.4483  2.9711
   47MOL   H72133933   4.331   0.967   5.756  0.2372  0.8310  0.4399
   47MOL   H72233934   4.747   0.692   4.913  2.1207 -1.2912 -0.0764
   48MOL     C133935   2.880   7.712   4.834 -0.1537  0.1616  0.3630
   48MOL     O233936   2.802   7.635   4.774 -0.4657 -0.1080 -0.4733
   48MOL     C333937   2.909   7.717   4.981 -0.1140  0.1615 -0.3899
   48MOL     C433938   2.833   7.643   5.074 -0.1364 -0.5130  0.5643
   48MOL     C533939   2.857   7.651   5.211  0.7216 -0.0809  0.3619
   48MOL     C633940   2.963   7.732   5.264 -0.2459  0.0036 -0.1673
   48MOL     C733941   3.007   7.742   5.407  0.9932 -0.9484 -0.1295
   48MOL     O833942   3.080   7.837   5.447  0.3460  0.4757 -0.3424
   48MOL     N933943   2.976   7.646   5.495  0.6584  0.2840 -0.4502
   48MOL    C1033944   2.983   7.671   5.632  0.0742 -0.4642  0.0236
   48MOL    C1133945   2.912   7.560   5.715 -0.5741 -0.0804  0.0584
   48MOL    C1233946   2.936   7.557   5.871  0.2965  0.6559  0.0634
   48MOL    C1333947   2.973   7.413   5.930 -0.3208  0.0561  0.3603
   48MOL    C1433948   2.850   7.329   5.961  0.3740  0.0685 -0.3012
   48MOL    C1533949   2.872   7.178   5.985 -0.2979  1.0093  0.0612
   48MOL    N1633950   2.745   7.106   6.001 -0.3080  0.0755  0.7084
   48MOL    C1733951   3.039   7.795   5.165  0.1780 -0.5108  0.6707
   48MOL    C1833952   3.022   7.786   5.025 -0.0826  0.2189  0.3208
   48MOL    H1933953   2.753   7.580   5.036 -0.2947 -0.3502  0.6293
   48MOL    H2033954   2.803   7.582   5.274  0.1310  0.9495  0.9923
   48MOL    H2133955   2.930   7.564   5.456  0.5741 -1.3535  2.9689
   48MOL    H2233956   3.090   7.683   5.652 -0.2129  1.5701  0.4442
   48MOL    H2333957   2.927   7.763   5.645  0.6906 -0.2793  1.4846
   48MOL    H2433958   2.958   7.473   5.668  3.4535  1.5243  0.7787
   48MOL    H2533959   2.809   7.556   5.682 -0.1989 -2.0019 -0.9426
   48MOL    H2633960   3.022   7.623   5.885  0.5492  0.1530  0.8990
   48MOL    H2733961   2.854   7.603   5.926 -1.0992  0.5521 -1.8520
   48MOL    H2833962   3.035   7.425   6.019  1.5018  0.5314 -0.9306
   48MOL    H2933963   3.040   7.363   5.861 -1.4219 -1.8509  0.6512
   48MOL    H3033964   2.769   7.338   5.889 -0.4877  0.2713  0.6866
   48MOL    H3133965   2.811   7.377   6.050 -0.7642  0.0499 -0.7882
   48MOL    H3233966   2.929   7.137   5.902  1.8216  0.5462  1.6982
   48MOL    H3333967   2.943   7.159   6.065  1.0688 -1.7018 -1.7200
   48MOL    H3433968   2.693   7.091   5.916 -1.3211 -2.6541  1.7194
   48MOL    H3533969   3.110   7.868   5.199 -1.3504  1.0773  0.5339
   48MOL    H3633970   3.076   7.856   4.963  1.5559 -0.3378  1.1213
   48MOL    H3733971   2.957   7.772   4.787  1.2950  0.7126  3.3179
   48MOL    C3833972   2.689   7.076   6.114 -0.0209  0.3648 -0.3690
   48MOL    O3933973   2.745   7.080   6.223 -0.4040 -0.6745 -0.7789
   48MOL    C4033974   2.547   7.017   6.103  0.4078  0.0828 -0.5575
   48MOL    C4133975   2.468   7.018   5.985  0.4732 -0.1328  0.0749
   48MOL    C4233976   2.346   6.951   5.979  0.2104 -0.2419  0.3785
   48MOL    C4333977   2.295   6.883   6.091  0.2407 -0.5036  0.8660
   48MOL    C4433978   2.160   6.818   6.071 -0.8360 -0.4503 -0.6645
   48MOL    O4533979   2.089   6.849   5.980 -0.5109 -0.8398  0.6107
   48MOL    N4633980   2.122   6.731   6.169 -0.5968 -0.1598  0.3260
   48MOL    C4733981   2.009   6.641   6.162  0.3392  0.7643  0.1681
   48MOL    C4833982   1.904   6.657   6.272 -0.3532 -0.1014 -0.1036
   48MOL    C4933983   1.775   6.579   6.246  0.1341  0.2154 -0.8063
   48MOL    C5033984   1.648   6.608   6.329 -0.3156  0.1780 -0.5906
   48MOL    C5133985   1.539   6.518   6.296 -0.0311 -0.1416 -0.1461
   48MOL    C5233986   1.414   6.549   6.377  0.2042 -0.2087  0.4448
   48MOL    N5333987   1.290   6.486   6.329  0.4285 -0.1685 -0.3993
   48MOL    C5433988   2.366   6.890   6.215  0.5950 -0.6668 -0.2585
   48MOL    C5533989   2.494   6.943   6.213  0.4095 -0.1473 -0.3934
   48MOL    H5633990   2.497   7.043   5.883 -0.9932 -0.3012 -0.4014
   48MOL    H5733991   2.303   6.939   5.881  1.4169  2.6733 -0.5597
   48MOL    H5833992   2.182   6.727   6.250  0.2565 -1.0350 -0.3270
   48MOL    H5933993   1.964   6.638   6.063  0.4220  0.1572  0.1522
   48MOL    H6033994   2.055   6.543   6.167 -0.5676  0.3341  0.1994
   48MOL    H6133995   1.868   6.759   6.267 -0.2068  0.0007  0.8773
   48MOL    H6233996   1.941   6.629   6.371 -1.4273  1.3122  0.7275
   48MOL    H6333997   1.752   6.595   6.140 -0.0807 -1.0612 -0.9629
   48MOL    H6433998   1.795   6.472   6.245 -1.4327 -0.0844 -0.3609
   48MOL    H6533999   1.626   6.713   6.308  0.8101  0.0741 -2.4830
   48MOL    H6634000   1.668   6.593   6.435  2.2161 -2.0458 -1.3379
   48MOL    H6734001   1.581   6.418   6.310  0.4286  0.3614  2.1791
   48MOL    H6834002   1.517   6.548   6.193 -0.2423  0.5278  0.0962
   48MOL    H6934003   1.429   6.515   6.480  0.4291  0.0692  0.5045
   48MOL    H7034004   1.393   6.656   6.374  1.8931  0.1807  1.6588
   48MOL    H7134005   1.298   6.431   6.245  1.0802  0.6442 -0.8907
   48MOL    H7234006   2.329   6.842   6.304 -0.9977 -0.9391 -1.0499
   48MOL    H7334007   2.557   6.924   6.299 -1.0640  2.2658  1.2918
   48MOL    C7434008   1.171   6.505   6.378 -0.2055  0.3520 -0.5995
   48MOL    O7534009   1.141   6.577   6.471 -0.1836 -0.5237  0.7690
   48MOL    C7634010   1.065   6.417   6.312  0.3110  0.0901  0.9677
   48MOL    C7734011   1.068   6.382   6.175 -0.5767 -1.0795 -0.4582
   48MOL    C7834012   0.975   6.292   6.128  0.3111 -0.2595  0.1116
   48MOL    C7934013   0.867   6.259   6.211  0.1409 -0.6778  0.4543
   48MOL    C8034014   0.760   6.173   6.161 -0.0937 -0.1922 -0.9422
   48MOL    O8134015   0.662   6.141   6.228 -0.9965 -0.3934  0.1397
   48MOL    N8234016   0.764   6.123   6.039 -0.2936  0.3681  0.3649
   48MOL    C8334017   0.668   6.055   5.957  0.4544  0.0955 -0.4248
   48MOL    C8434018   0.718   6.024   5.812  0.8081  0.2090 -0.6625
   48MOL    C8534019   0.604   5.959   5.727 -0.0014  0.3640  0.3439
   48MOL    C8634020   0.608   5.808   5.752 -0.2154 -0.1035 -0.5367
   48MOL    C8734021   0.489   5.747   5.675  0.0864  0.3002  0.0461
   48MOL    C8834022   0.482   5.599   5.697  0.0773 -0.3174 -0.0608
   48MOL    N8934023   0.351   5.546   5.671  0.2827  0.0689  0.1593
   48MOL    C9034024   0.856   6.304   6.344  0.4977 -0.3559  0.1684
   48MOL    C9134025   0.961   6.382   6.393 -0.3129 -0.3025 -0.1567
   48MOL    H9234026   1.151   6.410   6.112  1.2179 -0.3965  2.1167
   48MOL    H9334027   0.982   6.262   6.024 -0.1581  0.2841 -0.0837
   48MOL    H9434028   0.852   6.142   5.993 -1.3726 -0.3635 -2.0496
   48MOL    H9534029   0.637   5.966   6.012 -2.5346  1.6692  0.5625
   48MOL    H9634030   0.574   6.109   5.953  0.1946 -0.2387  0.9851
   48MOL    H9734031   0.802   5.955   5.823 -1.2510 -2.1552  0.7281
   48MOL    H9834032   0.755   6.113   5.761 -1.4281  0.8407 -1.2227
   48MOL    H9934033   0.513   6.008   5.761  0.9640  2.3590  0.1029
   48MOL   H10034034   0.630   5.983   5.624  2.0949 -0.5201  0.6369
   48MOL   H10134035   0.592   5.790   5.859 -0.6983  0.7017 -0.4626
   48MOL   H10234036   0.702   5.761   5.725 -0.5113 -0.8299 -0.3318
   48MOL   H10334037   0.495   5.749   5.566 -1.7133 -2.2434 -0.1458
   48MOL   H10434038   0.393   5.791   5.701 -0.1422 -0.4278  0.4338
   48MOL   H10534039   0.560   5.555   5.635  1.3776  0.7384  0.7763
   48MOL   H10634040   0.519   5.567   5.795  1.9917 -1.1830 -1.0318
   48MOL   H10734041   0.306   5.564   5.582  1.4676 -2.1435 -0.9414
   48MOL   H10834042   0.775   6.287   6.414  0.4696 -1.6005 -0.1466
   48MOL   H10934043   0.950   6.423   6.492  3.1937 -2.1884  1.0927
   48MOL   C11034044   0.287   5.488   5.771  0.0091 -0.3175 -0.0336
   48MOL   O11134045   0.327   5.473   5.882 -0.0608  0.2747  0.0575
   48MOL   C11234046   0.147   5.445   5.735 -0.2993  0.1806  0.3457
   48MOL   C11334047   0.055   5.422   5.835  0.5369  0.1185 -0.4741
   48MOL   C11434048   7.815   5.367   5.804  0.1093 -0.2225  0.4494
   48MOL   C11534049   7.771   5.353   5.672  0.7635  0.1754  0.1373
   48MOL   C11634050   7.632   5.302   5.636 -0.6138  0.3759 -0.5545
   48MOL   O11734051   7.575   5.354   5.543 -0.7770 -0.2355  0.0955
   48MOL   N11834052   7.581   5.205   5.713 -0.5248  0.2101  0.4388
   48MOL   C11934053   7.451   5.134   5.694 -0.9162  1.0414 -0.3806
   48MOL   C12034054   7.336   5.212   5.759  0.1083 -0.7228  0.0308
   48MOL   C12134055   7.196   5.144   5.738 -0.4177 -0.6344  0.4197
   48MOL   C12234056   7.113   5.120   5.864  0.4411 -0.0736  0.7787
   48MOL   C12334057   7.163   4.999   5.946  0.6771  0.1398 -0.3185
   48MOL   C12434058   7.186   4.865   5.870 -0.1794 -0.1153 -0.5892
   48MOL   N12534059   7.056   4.839   5.803 -0.9152 -0.7458  0.0058
   48MOL   C12634060   7.861   5.383   5.568  0.1501  0.1486 -0.2219
   48MOL   C12734061   0.107   5.417   5.598 -0.9145  0.0395 -0.2495
   48MOL   H12834062   0.075   5.431   5.941 -0.2965 -1.9849 -0.1187
   48MOL   H12934063   7.746   5.342   5.883 -1.9650  1.7665 -0.6739
   48MOL   H13034064   7.637   5.177   5.792  2.2227  2.6678 -0.5814
   48MOL   H13134065   7.448   5.121   5.586  0.0377 -0.3088 -0.2561
   48MOL   H13234066   7.454   5.043   5.753 -0.2552 -0.1212 -2.1721
   48MOL   H13334067   7.321   5.315   5.727  1.3799 -0.7992 -0.8295
   48MOL   H13434068   7.362   5.233   5.862  0.5856 -0.0548 -0.2242
   48MOL   H13534069   7.141   5.220   5.682 -0.0436 -0.9516 -0.3831
   48MOL   H13634070   7.196   5.058   5.671 -1.2878 -0.8332  0.6581
   48MOL   H13734071   7.008   5.114   5.834  0.9225  2.9923 -1.7633
   48MOL   H13834072   7.115   5.204   5.933  0.7180  1.1692 -0.6966
   48MOL   H13934073   7.095   4.980   6.028 -0.6345  0.3829 -1.3220
   48MOL   H14034074   7.262   5.033   5.978  1.1539 -1.1003 -0.4803
   48MOL   H14134075   7.266   4.877   5.797  0.6093  2.3543  0.6097
   48MOL   H14234076   7.200   4.774   5.930  1.7631  1.2300  1.0890
   48MOL   H14334077   6.981   4.901   5.832  0.6772  2.4454 -2.4742
   48MOL   H14434078   7.824   5.375   5.467  2.1164  2.2983 -1.1474
   48MOL   H14534079   0.167   5.442   5.513 -0.3576  1.6460  0.5933
   48MOL   C14634080   7.047   4.765   5.691 -0.4317  0.4386  0.3415
   48MOL   O14734081   7.139   4.701   5.637 -0.8731  0.1381 -0.5760
   48MOL   C14834082   6.911   4.752   5.636 -1.0834  0.9767 -0.7144
   48MOL   C14934083   6.869   4.636   5.560 -0.5527  0.8287 -0.1434
   48MOL   C15034084   6.746   4.631   5.492  0.8068 -0.5524 -0.1296
   48MOL   C15134085   6.649   4.732   5.521 -0.1194 -0.3209 -0.4518
   48MOL   C15234086   6.509   4.731   5.468  0.0523  0.1525  0.1026
   48MOL   O15334087   6.453   4.836   5.444 -0.4281 -0.4540 -0.0342
   48MOL   N15434088   6.447   4.619   5.442  0.4044 -0.1764  0.1631
   48MOL   C15534089   6.313   4.605   5.390  0.5987 -0.1383  0.2884
   48MOL   C15634090   6.253   4.483   5.465  0.3755  0.8760  0.0116
   48MOL   C15734091   6.259   4.486   5.617 -0.0131 -0.7832 -0.2766
   48MOL   C15834092   6.273   4.344   5.674  0.1146 -0.6117  0.4411
   48MOL   C15934093   6.244   4.341   5.820 -0.2170 -0.1437  0.6343
   48MOL   C16034094   6.108   4.399   5.865 -0.2922  0.4067  0.1657
   48MOL   N16134095   6.126   4.514   5.948  0.6476  0.5027  0.5311
   48MOL   C16234096   6.686   4.847   5.602  0.5438 -0.5142  0.2087
   48MOL   C16334097   6.814   4.857   5.653 -0.4742 -0.1317  0.0904
   48MOL   H16434098   6.948   4.567   5.535 -0.2512  0.3070  2.1849
   48MOL   H16534099   6.730   4.555   5.417  1.3179 -0.9859  0.2027
   48MOL   H16634100   6.508   4.540   5.452  0.6733 -0.0834 -0.6542
   48MOL   H16734101   6.253   4.693   5.411  3.2244  2.8416 -3.9303
   48MOL   H16834102   6.330   4.596   5.283  0.9909  2.3951  0.0916
   48MOL   H16934103   6.292   4.386   5.434 -0.1143  0.3435  1.0686
   48MOL   H17034104   6.151   4.468   5.431  0.2183  0.0775  0.8202
   48MOL   H17134105   6.335   4.548   5.665 -1.8205 -0.1386  1.7737
   48MOL   H17234106   6.167   4.541   5.635  1.0088  0.2531  1.9830
   48MOL   H17334107   6.373   4.303   5.657  0.8027  0.0195  2.8440
   48MOL   H17434108   6.203   4.282   5.619  3.1115 -1.3588 -2.7671
   48MOL   H17534109   6.332   4.377   5.873  0.3051 -0.5489  0.0466
   48MOL   H17634110   6.237   4.235   5.845  1.4389 -0.2145  0.8159
   48MOL   H17734111   6.050   4.431   5.778 -0.9681 -0.2038  0.3880
   48MOL   H17834112   6.050   4.322   5.916  0.8001 -2.4698 -2.7587
   48MOL   H17934113   6.208   4.573   5.949  0.3632  0.9228 -0.3974
   48MOL   H18034114   6.613   4.921   5.628 -0.3555 -1.4715  0.4537
   48MOL   H18134115   6.844   4.942   5.713  1.3843 -1.6043  1.3033
   48MOL   C18234116   6.020   4.569   6.010 -0.6226  0.0609 -0.0993
   48MOL   O18334117   5.913   4.504   6.028 -0.1162 -0.4514  0.1329
   48MOL   C18434118   6.040   4.711   6.053  0.0297  0.2706 -1.4085
   48MOL   C18534119   5.935   4.792   6.114 -0.4293  0.2648  0.0857
   48MOL   C18634120   5.956   4.926   6.158  0.0949  0.2849 -0.8103
   48MOL   C18734121   6.082   4.987   6.136 -0.1934 -0.6591  0.0198
   48MOL   C18834122   6.093   5.128   6.168 -0.5250 -0.4118 -0.1422
   48MOL   O18934123   6.023   5.178   6.256 -0.7211 -0.6169  0.0397
   48MOL   N19034124   6.163   5.211   6.080 -0.1409 -0.3349  0.7048
   48MOL   C19134125   6.144   5.357   6.083  0.5505  0.3184 -0.0131
   48MOL   C19234126   6.161   5.421   5.941 -0.3965 -0.4108 -0.2301
   48MOL   C19334127   6.164   5.572   5.945  0.0557 -0.4356  0.1079
   48MOL   C19434128   6.198   5.637   5.812 -0.2506 -0.5243  0.0042
   48MOL   C19534129   6.173   5.783   5.809  0.2749  0.4444  0.4656
   48MOL   C19634130   6.202   5.861   5.678  0.4562  0.5125 -0.7947
   48MOL   N19734131   6.213   6.004   5.699  0.3794  0.1908 -0.3845
   48MOL   C19834132   6.189   4.906   6.087 -0.0958  0.1143 -0.0823
   48MOL   C19934133   6.169   4.770   6.059 -0.0134 -0.5627  0.1923
   48MOL   H20034134   5.834   4.754   6.126 -0.4923 -0.0412 -1.3591
   48MOL   H20134135   5.874   4.985   6.195  0.7779  0.6283  0.1726
   48MOL   H20234136   6.205   5.176   5.995 -0.4197 -0.2145  0.5165
   48MOL   H20334137   6.038   5.373   6.103  0.4339 -0.6319  0.1486
   48MOL   H20434138   6.213   5.410   6.150  2.6175 -1.0044 -1.0263
   48MOL   H20534139   6.083   5.403   5.867  0.5755  2.1702 -1.9293
   48MOL   H20634140   6.259   5.395   5.900 -0.1030 -2.2123  1.5535
   48MOL   H20734141   6.065   5.604   5.978  0.9199  0.4745  1.8866
   48MOL   H20834142   6.236   5.600   6.022 -1.2211  2.4649  0.2842
   48MOL   H20934143   6.134   5.592   5.736 -1.0833  0.2954  0.2131
   48MOL   H21034144   6.301   5.609   5.787 -0.1204  1.5546 -2.0210
   48MOL   H21134145   6.230   5.835   5.886  1.5171  0.7650 -0.6549
   48MOL   H21234146   6.068   5.802   5.832 -0.3027 -0.6089 -1.1732
   48MOL   H21334147   6.294   5.827   5.631  0.5091 -1.6403  0.7693
   48MOL   H21434148   6.121   5.841   5.608  0.8142 -0.1108 -1.0383
   48MOL   H21534149   6.136   6.050   5.744  0.6903  0.3508 -0.0149
   48MOL   H21634150   6.288   4.949   6.086  0.2807 -0.6362  1.8098
   48MOL   H21734151   6.252   4.714   6.018 -0.4449  0.9394 -2.9092
   48MOL   C21834152   6.297   6.087   5.638 -0.1600 -0.5716  0.0077
   48MOL   O21934153   6.389   6.052   5.565 -0.2066  0.1482 -0.0045
   48MOL   C22034154   6.277   6.235   5.661  0.6201 -0.5343 -0.2438
   48MOL   C22134155   6.369   6.326   5.717 -0.5743  0.0547  1.0212
   48MOL   C22234156   6.334   6.467   5.727 -0.0850  1.1611 -0.0855
   48MOL   C22334157   6.205   6.510   5.679  0.1099  0.3260 -0.1557
   48MOL   C22434158   6.172   6.658   5.683  0.1690  0.1296 -0.2370
   48MOL   O22534159   6.094   6.701   5.600  0.6880  0.2838 -0.0732
   48MOL   N22634160   6.230   6.734   5.780 -0.3809 -0.2489  0.4603
   48MOL   C22734161   6.203   6.874   5.798  0.1183 -0.0078 -0.2233
   48MOL   C22834162   6.067   6.898   5.869  0.2097  0.7396  0.4461
   48MOL   C22934163   6.036   7.044   5.852  0.1416 -0.4436  0.6242
   48MOL   C23034164   5.914   7.109   5.917 -0.3636  0.6962 -0.3429
   48MOL   C23134165   5.783   7.121   5.827 -0.0427 -0.2485  0.2319
   48MOL   C23234166   5.664   7.190   5.909  0.2287 -0.5141 -0.4960
   48MOL   N23334167   5.675   7.339   5.918  0.0922  0.5062  0.1568
   48MOL   C23434168   6.115   6.417   5.614  0.6566 -0.6873  0.1194
   48MOL   C23534169   6.152   6.285   5.609  0.3423 -0.0639 -0.1557
   48MOL   H23634170   6.464   6.280   5.738 -0.8342 -2.1056 -2.1494
   48MOL   H23734171   6.414   6.522   5.775  0.9904 -1.6287  1.4287
   48MOL   H23834172   6.271   6.692   5.862  1.3836 -1.3571 -0.9220
   48MOL   H23934173   6.285   6.909   5.861  1.7238 -0.5573 -1.9771
   48MOL   H24034174   6.216   6.928   5.704 -1.5060  0.2205 -0.3344
   48MOL   H24134175   6.072   6.869   5.974  0.0279 -1.4181 -0.1089
   48MOL   H24234176   5.990   6.830   5.833 -0.1966  0.0239  2.6304
   48MOL   H24334177   6.115   7.117   5.867  1.7609 -1.4128 -2.7137
   48MOL   H24434178   6.015   7.065   5.747  0.5757 -1.1008  0.3996
   48MOL   H24534179   5.937   7.208   5.957 -0.7859  0.7772 -0.2917
   48MOL   H24634180   5.897   7.059   6.013  1.1424 -1.0115 -0.9480
   48MOL   H24734181   5.750   7.022   5.797  0.7354 -0.0087 -1.4463
   48MOL   H24834182   5.804   7.174   5.734  1.4845 -0.5114  0.4084
   48MOL   H24934183   5.570   7.177   5.856  0.2062 -1.9501 -0.1262
   48MOL   H25034184   5.649   7.144   6.007 -0.1610  1.7645  0.5297
   48MOL   H25134185   5.742   7.370   5.987  3.1045 -1.6116 -1.6852
   48MOL   H25234186   6.013   6.436   5.587  0.0440  0.9544  3.3207
   48MOL   H25334187   6.091   6.212   5.558 -0.0423  1.5022 -1.9917
   48MOL   C25434188   5.644   7.435   5.832  0.1043 -0.7498  0.0879
   48MOL   O25534189   5.566   7.422   5.739 -0.5725 -0.4001 -0.5906
   48MOL   C25634190   5.708   7.569   5.858 -0.2848 -0.1848  0.4935
   48MOL   C25734191   5.823   7.578   5.941  0.6975 -0.2756 -0.3801
   48MOL   C25834192   5.891   7.704   5.947  0.1156 -0.1118  0.4929
   48MOL   C25934193   5.849   7.816   5.875  0.0843 -0.3402 -0.3863
   48MOL   C26034194   5.905   0.063   5.914 -0.0216  0.4796  0.4957
   48MOL   O26134195   5.946   0.139   5.830 -0.0893 -0.0455  0.0955
   48MOL   N26234196   5.907   0.098   6.045 -0.1554 -1.0013  0.0501
   48MOL   C26334197   5.969   0.215   6.101 -0.3015  0.2692  0.2352
   48MOL   C26434198   6.105   0.171   6.170  0.1597 -0.0598 -0.2642
   48MOL   C26534199   6.190   0.293   6.212 -0.1631 -0.6216 -0.2448
   48MOL   C26634200   6.119   0.388   6.312  0.0323 -0.0270  0.2253
   48MOL   C26734201   6.037   0.507   6.258 -0.4497  0.0095  0.9587
   48MOL   C26834202   5.960   0.587   6.362 -0.1221 -0.5365  0.2601
   48MOL   N26934203   5.852   0.513   6.409 -0.1052 -0.2447 -0.3971
   48MOL   C27034204   5.743   7.801   5.792 -0.3759  0.1956 -0.1494
   48MOL   C27134205   5.669   7.685   5.791  0.2720  0.2121  0.5041
   48MOL   H27234206   5.864   7.494   5.996  0.6661  0.4308  0.7395
   48MOL   H27334207   5.977   7.728   6.007  2.8807 -1.0168 -2.9345
   48MOL   H27434208   5.860   0.030   6.104 -2.2750 -1.3348 -1.9649
   48MOL   H27534209   5.993   0.287   6.024 -0.0002 -2.2501 -2.1119
   48MOL   H27634210   5.910   0.269   6.175 -0.2269 -0.0364  0.5198
   48MOL   H27734211   6.174   0.116   6.106  0.2472 -0.0068 -0.2149
   48MOL   H27834212   6.089   0.115   6.262  1.3369  0.9149  0.5505
   48MOL   H27934213   6.283   0.249   6.246  0.6175  0.3222 -1.1234
   48MOL   H28034214   6.229   0.353   6.129 -0.2740 -0.4669 -0.1868
   48MOL   H28134215   6.199   0.428   6.374 -0.3315 -1.6202  1.7690
   48MOL   H28234216   6.051   0.322   6.366 -0.9642  0.6295 -0.2155
   48MOL   H28334217   5.972   0.475   6.177 -0.6622  1.0270  0.7185
   48MOL   H28434218   6.114   0.567   6.210  0.3783  0.0204  2.2597
   48MOL   H28534219   6.030   0.619   6.440 -0.0543 -1.0375  0.4105
   48MOL   H28634220   5.930   0.683   6.322 -0.9527 -1.5919 -1.7263
   48MOL   H28734221   5.804   0.455   6.341 -0.4565 -0.5752  0.1281
   48MOL   H28834222   5.709   0.003   5.740 -0.2228  0.5867  0.4126
   48MOL   H28934223   5.579   7.678   5.732  0.3854  0.6843  0.2752
   48MOL   C29034224   5.826   0.482   6.541  1.6053 -0.5241  0.2723
   48MOL   O29134225   5.888   0.529   6.633  0.6392 -0.3671 -0.3504
   48MOL   C29234226   5.723   0.372   6.565  0.5225  0.5580  0.7531
   48MOL   C29334227   5.656   0.374   6.684 -0.1972 -0.0691 -0.1490
   48MOL   C29434228   5.553   0.283   6.707  0.3411 -0.1416  0.2946
   48MOL   C29534229   5.513   0.189   6.609 -0.2802  0.2418 -0.3887
   48MOL   C29634230   5.402   0.088   6.637  0.2879 -0.2898 -0.3573
   48MOL   O29734231   5.348   0.077   6.745  0.0727  0.5482 -0.3575
   48MOL   N29834232   5.368   0.010   6.534 -0.1486 -0.2692  0.1605
   48MOL   C29934233   5.264   7.799   6.532  0.1640 -0.6284  0.0019
   48MOL   C30034234   5.153   7.849   6.438  0.6332  0.0850  0.1232
   48MOL   C30134235   5.009   7.791   6.471 -0.4947 -0.2025 -0.0163
   48MOL   C30234236   4.900   7.808   6.358 -0.8426 -0.0738 -0.5972
   48MOL   C30334237   4.751   7.822   6.395  0.6558 -0.0079 -0.3069
   48MOL   C30434238   4.669   7.806   6.271  0.1105  0.3905 -0.1606
   48MOL   N30534239   4.543   7.884   6.286 -0.3807 -0.4336  0.0385
   48MOL   C30634240   5.588   0.187   6.492  0.1254  0.6379  0.4743
   48MOL   C30734241   5.690   0.278   6.462 -0.7877  0.2731 -0.0346
   48MOL   H30834242   5.671   0.444   6.765 -2.2592 -0.2777  0.4455
   48MOL   H30934243   5.508   0.289   6.805 -0.9786  0.7259 -0.3620
   48MOL   H31034244   5.407   0.020   6.441  1.5856  0.0298  0.8889
   48MOL   H31134245   5.299   7.699   6.505  0.8017  0.2185 -2.4728
   48MOL   H31234246   5.224   7.800   6.634 -1.4151  0.2454 -0.6007
   48MOL   H31334247   5.179   7.817   6.338  0.8131  1.3625 -0.2357
   48MOL   H31434248   5.153   0.072   6.439  1.7229  0.0892  0.5421
   48MOL   H31534249   5.008   7.685   6.498 -0.8477 -0.5461 -1.3224
   48MOL   H31634250   4.983   7.832   6.568 -0.0904  0.5556 -0.2256
   48MOL   H31734251   4.925   7.718   6.302  1.5004  1.2393 -1.7286
   48MOL   H31834252   4.927   0.007   6.295 -2.2940  2.7064  2.3591
   48MOL   H31934253   4.725   0.022   6.457 -1.0358 -0.5298 -0.2618
   48MOL   H32034254   4.728   7.743   6.467  0.1775 -0.7215 -1.2378
   48MOL   H32134255   4.717   7.854   6.185 -0.6896 -1.6934 -1.8179
   48MOL   H32234256   4.654   7.701   6.249  1.1875  0.2021  0.0061
   48MOL   H32334257   4.552   0.096   6.265  1.9194 -1.0125 -1.8664
   48MOL   H32434258   5.559   0.116   6.416  1.2913 -1.4851  1.9586
   48MOL   H32534259   5.746   0.274   6.370 -1.7537 -2.2961 -0.5610
   48MOL   C32634260   4.421   7.833   6.313  0.3001  0.0138  0.3277
   48MOL   O32734261   4.404   7.714   6.318  0.5869  0.1260 -0.1344
   48MOL   C32834262   4.310   0.048   6.319  0.1873 -0.5026 -0.4031
   48MOL   C32934263   4.329   0.187   6.281  0.0480 -0.4604 -0.1708
   48MOL   C33034264   4.224   0.273   6.267  0.2742  0.4371 -0.5967
   48MOL   C33134265   4.094   0.233   6.317 -0.1660 -0.3827 -0.2311
   48MOL   C33234266   3.976   0.322   6.332 -0.4309 -0.1576 -0.5216
   48MOL   O33334267   3.868   0.285   6.367  0.3551 -0.7371  0.2964
   48MOL   N33434268   4.002   0.448   6.287  0.0988 -0.0653 -0.6167
   48MOL   C33534269   3.894   0.549   6.283  0.2311 -0.6855  0.1254
   48MOL   C33634270   3.783   0.523   6.182  0.5312  0.1579 -0.2535
   48MOL   C33734271   3.686   0.636   6.159  0.3814  0.1949 -0.5690
   48MOL   C33834272   3.745   0.748   6.083 -0.9724 -0.3137  0.1890
   48MOL   C33934273   3.645   0.861   6.050  0.6377  0.3784  0.6354
   48MOL   C34034274   3.695   0.941   5.927 -0.1044 -0.0115 -0.9848
   48MOL   N34134275   3.601   1.031   5.876  0.2584 -0.5270 -0.0315
   48MOL   C34234276   4.077   0.099   6.362  0.3218  0.2948 -0.1886
   48MOL   C34334277   4.184   0.010   6.369 -0.0761  0.1229  0.0136
   48MOL   H34434278   4.432   0.215   6.271  0.0727 -0.3984  0.2555
   48MOL   H34534279   4.236   0.373   6.230 -1.7144  0.2018 -1.9808
   48MOL   H34634280   4.095   0.480   6.265 -0.4913  0.7422 -1.9951
   48MOL   H34734281   3.836   0.552   6.375 -2.4825 -0.6040 -1.5265
   48MOL   H34834282   3.946   0.642   6.259  0.8510 -1.1809 -0.4841
   48MOL   H34934283   3.725   0.434   6.207  0.4778  0.0582 -0.7235
   48MOL   H35034284   3.819   0.496   6.083  0.3221 -3.3115  0.5525
   48MOL   H35134285   3.597   0.594   6.111  0.2412  0.5478 -0.6247
   48MOL   H35234286   3.670   0.677   6.258  0.8265 -2.0988  0.4853
   48MOL   H35334287   3.783   0.714   5.986  0.0434  2.8936 -0.6106
   48MOL   H35434288   3.835   0.788   6.129 -0.4600  0.9437 -1.8310
   48MOL   H35534289   3.624   0.934   6.128  3.3525  0.8307  0.9879
   48MOL   H35634290   3.548   0.818   6.025  0.9440  0.4859 -0.7585
   48MOL   H35734291   3.792   0.988   5.940  1.4137 -3.3551  0.4023
   48MOL   H35834292   3.712   0.870   5.846 -0.5481  0.4099 -1.4463
   48MOL   H35934293   3.504   1.008   5.890 -0.1910  1.8498  0.9057
   48MOL   H36034294   3.987   0.077   6.417  0.2293  0.5674 -0.2307
   48MOL   H36134295   4.164   7.797   6.406 -0.9460  0.3862  0.2660
   48MOL   C36234296   3.627   1.143   5.805 -0.4155 -0.0424  0.2032
   48MOL   O36334297   3.746   1.184   5.785 -0.5716  0.1740 -0.0446
   48MOL   C36434298   3.513   1.202   5.734  0.3396 -0.2647  1.0046
   48MOL   C36534299   3.399   1.126   5.700  0.5777  1.0220 -0.3940
   48MOL   C36634300   3.292   1.187   5.629  0.2301 -0.4208 -0.6333
   48MOL   C36734301   3.291   1.324   5.596  0.1364 -0.2196 -0.3516
   48MOL   C36834302   3.166   1.391   5.544 -0.7645 -0.1742  0.6014
   48MOL   O36934303   3.141   1.503   5.586 -1.2251 -0.0990 -0.1583
   48MOL   N37034304   3.076   1.321   5.471 -0.5655 -0.2238  0.5663
   48MOL   C37134305   2.934   1.349   5.455 -0.3751  0.5573  0.3718
   48MOL   C37234306   2.896   1.425   5.325 -0.4483  0.3130 -0.3781
   48MOL   C37334307   2.745   1.432   5.306 -0.0441 -0.3142  0.3181
   48MOL   C37434308   2.708   1.511   5.174  1.1022 -0.3975 -0.3470
   48MOL   C37534309   2.729   1.663   5.165 -0.2262  0.1878  0.1190
   48MOL   C37634310   2.661   1.723   5.030  0.0634  0.9736 -0.4708
   48MOL   N37734311   2.666   1.869   5.018 -0.0808 -0.3955  0.3056
   48MOL   C37834312   3.399   1.400   5.641  1.2005 -0.3169 -0.2277
   48MOL   C37934313   3.512   1.338   5.695  0.0668 -0.0202 -0.0948
   48MOL   H38034314   3.391   1.026   5.740 -0.8769  1.2323 -0.1102
   48MOL   H38134315   3.203   1.131   5.602 -0.4626 -1.3182  3.2452
   48MOL   H38234316   3.102   1.225   5.451  1.2463  0.3467  0.0906
   48MOL   H38334317   2.890   1.249   5.459 -1.4558  1.0483  0.9964
   48MOL   H38434318   2.894   1.402   5.541 -2.6175  0.5912 -0.6465
   48MOL   H38534319   2.954   1.379   5.245 -0.1347 -1.2986  0.7271
   48MOL   H38634320   2.949   1.520   5.325  2.7961 -1.3579  2.4017
   48MOL   H38734321   2.702   1.333   5.291  0.1808 -0.2586 -0.7776
   48MOL   H38834322   2.697   1.479   5.392 -0.1064 -1.1922  0.7662
   48MOL   H38934323   2.604   1.499   5.142  1.0879  0.6673 -0.7177
   48MOL   H39034324   2.760   1.459   5.094 -1.5485 -0.6654 -1.9768
   48MOL   H39134325   2.833   1.694   5.159  0.1501 -1.0875 -0.1582
   48MOL   H39234326   2.676   1.699   5.253  2.2542  1.0634  1.3009
   48MOL   H39334327   2.704   1.670   4.945  0.5220  0.9131 -0.2007
   48MOL   H39434328   2.556   1.695   5.025 -0.0064  1.1099  0.1674
   48MOL   H39534329   2.655   1.921   5.103 -0.9691  0.9091 -0.5911
   48MOL   H39634330   3.394   1.507   5.625  0.1098 -0.2611  0.3797
   48MOL   H39734331   3.597   1.401   5.719 -0.8889  2.6614 -3.2928
   48MOL   C39834332   2.677   1.925   4.899  0.2324  0.9205  0.9553
   48MOL   O39934333   2.695   1.864   4.792 -0.1081 -0.2340 -0.3156
   48MOL   C40034334   2.645   2.068   4.894 -0.1598 -0.2936 -1.1950
   48MOL   C40134335   2.637   2.143   5.008 -0.8721 -0.0117  0.1716
   48MOL   C40234336   2.601   2.274   5.009  0.0287  0.5719  0.3089
   48MOL   C40334337   2.565   2.335   4.890  0.3260 -0.0838  0.3930
   48MOL   C40434338   2.501   2.475   4.894  0.9183  0.5796  0.4691
   48MOL   O40534339   2.406   2.499   4.823 -0.2049 -0.5006 -0.0964
   48MOL   N40634340   2.549   2.568   4.978  0.1716 -0.0441  0.0366
   48MOL   C40734341   2.498   2.699   5.022  0.4151 -0.4397  0.2846
   48MOL   C40834342   2.577   2.814   4.951  0.2398  0.2650  0.7292
   48MOL   C40934343   2.579   2.818   4.798 -0.1262  0.1733 -0.2992
   48MOL   C41034344   2.647   2.946   4.748 -0.5762  0.4114  0.2660
   48MOL   C41134345   2.556   3.068   4.777 -0.2332 -0.4710 -0.8525
   48MOL   C41234346   2.592   3.173   4.672  0.0064  0.6529  0.1686
   48MOL   N41334347   2.507   3.288   4.674 -0.2515  0.5211 -0.4387
   48MOL   C41434348   2.570   2.264   4.769 -0.0184 -0.3091  0.3458
   48MOL   C41534349   2.614   2.133   4.767  0.0260 -0.2729 -0.0190
   48MOL   H41634350   2.651   2.094   5.103  0.2572 -1.1983 -0.5724
   48MOL   H41734351   2.577   2.318   5.105  1.6881  0.4756  0.7875
   48MOL   H41834352   2.635   2.535   5.021  0.1963  1.2739  1.0369
   48MOL   H41934353   2.392   2.709   4.999  0.7334 -0.2777 -1.1212
   48MOL   H42034354   2.498   2.711   5.131 -1.1733 -1.6044  0.4381
   48MOL   H42134355   2.681   2.819   4.983 -0.0824 -1.1707  2.0843
   48MOL   H42234356   2.544   2.912   4.987 -0.8449 -0.5866  2.1151
   48MOL   H42334357   2.633   2.732   4.760 -0.6137 -1.3181  2.2698
   48MOL   H42434358   2.479   2.795   4.761  0.5635 -1.3386 -1.2874
   48MOL   H42534359   2.654   2.926   4.641  0.6368 -0.2314  0.4489
   48MOL   H42634360   2.750   2.950   4.783  0.3835  0.6961 -2.4924
   48MOL   H42734361   2.577   3.110   4.876  0.8983  0.5037 -1.4916
   48MOL   H42834362   2.451   3.047   4.762 -0.4801 -1.9606  2.4178
   48MOL   H42934363   2.697   3.196   4.687  0.1612 -0.7467  1.3482
   48MOL   H43034364   2.586   3.131   4.571  0.6360 -2.8885  1.5397
   48MOL   H43134365   2.408   3.277   4.693  0.2332 -0.1325  1.9492
   48MOL   H43234366   2.542   2.317   4.679 -0.6809  0.0765  0.7702
   48MOL   H43334367   2.611   2.071   4.679  2.6280  0.7831 -0.8979
   48MOL   C43434368   2.528   3.412   4.634 -0.1474  0.0624 -0.2726
   48MOL   O43534369   2.628   3.440   4.568 -0.6320 -0.3328 -0.6042
   48MOL   C43634370   2.419   3.510   4.650  0.0464  0.2610  1.0568
   48MOL   C43734371   2.409   3.633   4.576 -0.0659 -1.1476 -0.1593
   48MOL   C43834372   2.298   3.722   4.580  0.0521 -0.2686 -0.2218
   48MOL   C43934373   2.188   3.682   4.664 -0.0032 -0.8014  0.6563
   48MOL   C44034374   2.069   3.772   4.682  0.0340 -0.4910  0.0596
   48MOL   O44134375   2.073   3.880   4.734  0.5780 -0.3560 -0.0736
   48MOL   N44234376   1.952   3.708   4.653 -0.5381  0.5723 -0.2570
   48MOL   C44334377   1.814   3.754   4.687  0.7584  0.1653 -0.3960
   48MOL   C44434378   1.708   3.647   4.675 -0.2968  0.4539 -0.5476
   48MOL   C44534379   1.577   3.712   4.714  0.1547 -0.2190 -0.2420
   48MOL   C44634380   1.458   3.616   4.719 -0.7516  0.4623  0.1159
   48MOL   C44734381   1.330   3.692   4.748  1.2091 -0.5093 -0.0696
   48MOL   C44834382   1.204   3.598   4.757 -0.4429 -0.5207  0.3379
   48MOL   N44934383   1.231   3.508   4.870 -0.3382  0.8302  0.3966
   48MOL   C45034384   2.200   3.566   4.741 -0.3767 -0.4173  0.1235
   48MOL   C45134385   2.312   3.485   4.735 -0.2185  0.2469 -0.6774
   48MOL   H45234386   2.496   3.666   4.521 -1.2952  1.6048 -0.5265
   48MOL   H45334387   2.295   3.811   4.519 -0.2142 -1.4888 -2.0473
   48MOL   H45434388   1.955   3.616   4.610  0.3377  1.0459 -1.2336
   48MOL   H45534389   1.824   3.790   4.790  3.3191  0.0759 -0.5702
   48MOL   H45634390   1.786   3.839   4.625 -1.3868  1.5731  2.3539
   48MOL   H45734391   1.740   3.561   4.734  2.4490  0.7085 -1.6077
   48MOL   H45834392   1.708   3.618   4.570 -0.7035  0.5426 -0.5707
   48MOL   H45934393   1.578   3.764   4.810 -0.4742  0.1655 -0.4407
   48MOL   H46034394   1.561   3.795   4.646 -0.9379  0.3731  0.7127
   48MOL   H46134395   1.484   3.534   4.786  1.6761  0.5940 -0.6325
   48MOL   H46234396   1.455   3.560   4.625  1.0563 -0.0412  0.3517
   48MOL   H46334397   1.326   3.749   4.655 -0.1553 -0.6931 -0.1270
   48MOL   H46434398   1.339   3.754   4.837 -0.8731  2.1964 -1.6608
   48MOL   H46534399   1.106   3.641   4.781 -0.4084 -0.3750  0.2142
   48MOL   H46634400   1.199   3.543   4.663 -1.8637  0.1240  0.0209
   48MOL   H46734401   1.306   3.539   4.931  1.2230  1.2879 -1.7001
   48MOL   H46834402   2.115   3.539   4.802 -0.5174 -0.8672 -0.2612
   48MOL   H46934403   2.310   3.400   4.801  0.6741  1.3911  0.8476
   48MOL   C47034404   1.180   3.386   4.870  0.1733  0.5591  0.8358
   48MOL   O47134405   1.091   3.351   4.790 -0.7383  0.2621  0.1771
   48MOL   C47234406   1.228   3.285   4.968  0.0645  0.0948 -0.2585
   48MOL   C47334407   1.137   3.182   4.998  0.1119 -0.5004 -0.3516
   48MOL   C47434408   1.185   3.066   5.066 -0.2110  0.4120 -0.1727
   48MOL   C47534409   1.321   3.068   5.116 -0.3560 -1.0708 -0.5008
   48MOL   C47634410   1.371   2.953   5.194  0.3239  0.2313 -0.2139
   48MOL   O47734411   1.458   2.954   5.279 -0.3509  0.1735 -0.4678
   48MOL   N47834412   1.304   2.842   5.177 -0.1877 -0.0124  0.2060
   48MOL   C47934413   1.333   2.709   5.223  0.1206  0.8292  0.3785
   48MOL   C48034414   1.475   2.656   5.181  0.1487 -0.0045 -0.1164
   48MOL   C48134415   1.515   2.650   5.034  0.0646 -0.7523  0.1932
   48MOL   C48234416   1.648   2.584   5.000 -0.7711 -0.5238  0.1144
   48MOL   C48334417   1.681   2.452   5.066  0.1749 -0.3311  0.1234
   48MOL   C48434418   1.824   2.412   5.028 -0.1740 -0.2834 -0.5183
   48MOL   N48534419   1.880   2.315   5.120 -0.2072 -0.0273  0.4312
   48MOL   C48634420   1.408   3.177   5.096  0.4614  0.2303 -0.1614
   48MOL   C48734421   1.364   3.278   5.013 -0.0185 -0.7970 -0.5099
   48MOL   H48834422   1.036   3.183   4.959 -0.5482  2.3195  1.2942
   48MOL   H48934423   1.123   2.982   5.091 -0.9337  1.3467  1.2372
   48MOL   H49034424   1.237   2.841   5.101  1.0333  1.6868 -0.9078
   48MOL   H49134425   1.324   2.724   5.331  1.8969  1.6088  0.4213
   48MOL   H49234426   1.254   2.640   5.194  1.2803 -0.2614 -0.2136
   48MOL   H49334427   1.472   2.559   5.231  0.1317 -1.1352 -2.2430
   48MOL   H49434428   1.549   2.706   5.243  0.4058 -1.7601  1.0523
   48MOL   H49534429   1.448   2.591   4.972  1.7417 -3.0571  0.4820
   48MOL   H49634430   1.519   2.747   4.984 -0.0605 -1.8349 -1.9847
   48MOL   H49734431   1.734   2.650   5.010 -0.7054 -0.6990  0.6849
   48MOL   H49834432   1.653   2.571   4.891  0.4909 -0.9142  0.2182
   48MOL   H49934433   1.607   2.376   5.041  0.5173 -0.3279 -0.9392
   48MOL   H50034434   1.660   2.456   5.173 -1.9553 -1.8629 -0.1979
   48MOL   H50134435   1.815   2.389   4.922 -0.7315  0.6206 -0.6648
   48MOL   H50234436   1.897   2.493   5.037 -0.6793  0.1028  0.0945
   48MOL   H50334437   1.962   2.341   5.172  1.1436 -0.4894 -1.4013
   48MOL   H50434438   1.512   3.173   5.124  0.6072  0.7026 -0.6274
   48MOL   H50534439   1.437   3.353   4.986  0.0435 -0.4602  0.5713
   48MOL   C50634440   1.849   2.183   5.120  0.4135 -0.1916  0.7065
   48MOL   O50734441   1.765   2.141   5.043  0.1212  0.0528 -0.2127
   48MOL   C50834442   1.938   2.101   5.208  0.2352 -1.1676 -0.3837
   48MOL   C50934443   1.971   1.972   5.163 -0.2463  0.1566  0.5680
   48MOL   C51034444   2.056   1.886   5.234 -0.5876  0.0847 -0.3522
   48MOL   C51134445   2.116   1.933   5.355  0.3629  0.6171 -0.0744
   48MOL   C51234446   2.215   1.855   5.432  0.0169 -0.0229  0.3510
   48MOL   O51334447   2.261   1.890   5.539 -0.5253  0.5508  0.0161
   48MOL   N51434448   2.257   1.744   5.363 -0.9442 -0.6148  0.2278
   48MOL   C51534449   2.371   1.659   5.407 -0.3097 -0.1823  0.8052
   48MOL   C51634450   2.322   1.554   5.499  0.8214 -0.7031 -0.2689
   48MOL   C51734451   2.437   1.477   5.563  0.4869 -0.0434 -0.0561
   48MOL   C51834452   2.374   1.369   5.647  0.3620 -1.2031 -0.2667
   48MOL   C51934453   2.475   1.276   5.705 -0.3349  0.0906 -0.9833
   48MOL   C52034454   2.605   1.339   5.758  0.3253 -0.6345 -0.3680
   48MOL   N52134455   2.702   1.241   5.802  0.2625 -0.0796  0.0595
   48MOL   C52234456   2.070   2.059   5.406 -0.4862  0.4827  0.0450
   48MOL   C52334457   1.990   2.141   5.329 -0.3395 -0.1928  0.2353
   48MOL   H52434458   1.930   1.931   5.072  1.5079 -0.9762  0.2391
   48MOL   H52534459   2.084   1.794   5.185 -0.3216  0.4613 -0.9024
   48MOL   H52634460   2.233   1.739   5.265  3.3135  2.2025 -1.1306
   48MOL   H52734461   2.424   1.636   5.315  0.4580 -1.0727  1.4638
   48MOL   H52834462   2.439   1.719   5.466 -1.0221  0.3087  1.1274
   48MOL   H52934463   2.260   1.487   5.440  0.0934 -0.4380  0.1852
   48MOL   H53034464   2.263   1.601   5.578  0.0944 -0.0146 -1.2152
   48MOL   H53134465   2.492   1.437   5.478 -1.8405 -2.7517 -0.3746
   48MOL   H53234466   2.494   1.549   5.621  1.6120 -0.9179 -0.0670
   48MOL   H53334467   2.301   1.313   5.588 -1.8415  1.2994 -0.0444
   48MOL   H53434468   2.312   1.417   5.723 -2.2174 -1.6776 -1.9860
   48MOL   H53534469   2.485   1.187   5.644 -2.6013 -1.0478  0.2433
   48MOL   H53634470   2.429   1.225   5.790  0.6663  1.7845  0.6270
   48MOL   H53734471   2.652   1.402   5.683 -1.5903  1.0033 -0.2467
   48MOL   H53834472   2.581   1.411   5.837 -2.5422 -0.5076 -1.2903
   48MOL   H53934473   2.793   1.238   5.759  0.7593  1.5261  0.9499
   48MOL   H54034474   2.109   2.089   5.502  0.0136  1.9409 -0.6040
   48MOL   H54134475   1.964   2.238   5.368  0.0116  1.2009 -2.8911
   48MOL   C54234476   2.710   1.175   5.917  0.0699  0.2363 -0.7215
   48MOL   O54334477   2.633   1.188   6.005 -0.0637  0.5902  0.0250
   48MOL   C54434478   2.844   1.113   5.948  0.2549  0.0115  0.1374
   48MOL   C54534479   2.886   1.091   6.082  0.3260  0.0564 -0.5412
   48MOL   C54634480   3.004   1.016   6.106  0.7787  0.2534  0.7712
   48MOL   C54734481   3.078   0.970   5.997 -0.5192  0.1812  0.5085
   48MOL   C54834482   3.204   0.892   6.021 -0.2841 -0.3935 -0.0528
   48MOL   O54934483   3.315   0.932   5.984 -0.3617  0.2135  0.6960
   48MOL   N55034484   3.196   0.779   6.096  0.4506  0.5584  0.2625
   48MOL   C55134485   3.291   0.669   6.080  0.0966  0.2624 -0.8629
   48MOL   C55234486   3.222   0.539   6.046  0.2159 -0.3585  0.4273
   48MOL   C55334487   3.332   0.428   6.032 -0.2038  0.4912 -0.2166
   48MOL   C55434488   3.375   0.349   6.153  0.3084  0.1993  0.1737
   48MOL   C55534489   3.277   0.238   6.184  0.5546 -0.7905 -0.3960
   48MOL   C55634490   3.312   0.146   6.309 -1.0739  0.2992  0.1380
   48MOL   N55734491   3.301   0.220   6.431 -0.2903  0.9340 -0.3823
   48MOL   C55834492   3.039   0.996   5.864 -0.2146  0.6480  0.6289
   48MOL   C55934493   2.919   1.060   5.839 -0.1909  0.1139  0.3145
   48MOL   H56034494   2.824   1.121   6.166 -2.3118  1.1035 -2.7893
   48MOL   H56134495   3.029   0.995   6.209 -2.3760 -0.7614  1.3793
   48MOL   H56234496   3.106   0.740   6.116  0.1356  0.4119 -1.3548
   48MOL   H56334497   3.357   0.696   5.997  0.3965  0.3359 -0.5982
   48MOL   H56434498   3.362   0.671   6.162  0.9304  0.8221 -1.5822
   48MOL   H56534499   3.174   0.547   5.948  0.3749 -1.9185  0.2029
   48MOL   H56634500   3.147   0.511   6.120  1.1610  1.3708  2.0705
   48MOL   H56734501   3.295   0.364   5.951  2.2870 -0.0097 -0.9863
   48MOL   H56834502   3.424   0.464   5.986  0.5433 -0.6734  0.3545
   48MOL   H56934503   3.384   0.416   6.239  2.5168  0.0337  0.1181
   48MOL   H57034504   3.475   0.304   6.147 -0.7998 -2.3914  0.5892
   48MOL   H57134505   3.282   0.174   6.096 -0.8172 -0.8238 -0.4718
   48MOL   H57234506   3.176   0.280   6.190  1.5814  1.6732  0.4235
   48MOL   H57334507   3.246   0.060   6.321 -1.2256  0.4159  0.1399
   48MOL   H57434508   3.414   0.107   6.304 -1.1538  0.0203  0.6717
   48MOL   H57534509   3.384   0.236   6.486 -0.2188 -2.2890  0.5481
   48MOL   H57634510   3.092   0.963   5.776 -2.2925  1.4698 -0.9721
   48MOL   H57734511   2.882   1.077   5.739 -3.3871 -0.2401  1.3696
   48MOL   C57834512   3.192   0.284   6.477  0.2684 -0.0803 -0.0571
   48MOL   O57934513   3.095   0.313   6.404  0.3137 -0.1201 -0.5036
   48MOL   C58034514   3.189   0.313   6.629  0.2459  0.1739 -0.2768
   48MOL   C58134515   3.074   0.375   6.684  0.3636 -0.3349 -0.5688
   48MOL   C58234516   3.062   0.406   6.821  0.2272  0.1299 -0.2899
   48MOL   C58334517   3.152   0.355   6.912 -0.2479 -0.3528 -0.0931
   48MOL   C58434518   3.134   0.371   7.058 -0.6198 -0.4486 -0.1170
   48MOL   O58534519   3.026   0.395   7.106  0.4600 -0.3620  0.7064
   48MOL   N58634520   3.243   0.336   7.140 -0.0920  0.5149 -0.7709
   48MOL   C58734521   3.230   0.329   7.280 -0.2746 -0.3006 -0.2645
   48MOL   C58834522   3.283   0.195   7.323 -0.0688  0.1623 -1.1820
   48MOL   C58934523   3.242   0.155   7.465 -0.0249  0.4114 -0.1160
   48MOL   C59034524   3.324   0.036   7.510  0.5027 -0.2488  0.1084
   48MOL   C59134525   3.243   7.824   7.596  0.1113 -0.8321 -0.2242
   48MOL   C59234526   3.331   7.721   7.668 -0.0814 -0.6306  0.0479
   48MOL   N59334527   3.257   7.608   7.727 -0.0286  0.8494 -0.1786
   48MOL   C59434528   3.268   0.289   6.860  0.3031  0.4884 -0.0471
   48MOL   C59534529   3.285   0.277   6.722  0.2401  0.4965  0.4546
   48MOL   H59634530   2.999   0.407   6.613 -1.0524  1.0242  1.4765
   48MOL   H59734531   2.974   0.458   6.854  0.5766  0.5122  0.0493
   48MOL   H59834532   3.333   0.315   7.098  0.1278 -0.6471  0.2535
   48MOL   H59934533   3.277   0.410   7.336  0.3370  0.0868 -1.3143
   48MOL   H60034534   3.126   0.330   7.311  0.3527  1.7497  1.8928
   48MOL   H60134535   3.391   0.208   7.317  0.2759 -2.3675 -0.8257
   48MOL   H60234536   3.255   0.118   7.252 -3.2561 -1.8476  2.0424
   48MOL   H60334537   3.264   0.226   7.546  1.8457 -1.8168  1.4160
   48MOL   H60434538   3.134   0.139   7.462 -0.1924  1.4317  0.1271
   48MOL   H60534539   3.417   0.072   7.555 -0.9533  0.5395  2.6250
   48MOL   H60634540   3.351   7.866   7.421 -1.2669  2.1636 -2.0241
   48MOL   H60734541   3.169   7.774   7.534  0.3663  0.8049 -1.8977
   48MOL   H60834542   3.195   0.007   7.666 -0.5276  1.2822 -2.6834
   48MOL   H60934543   3.397   7.682   7.590 -1.0320  0.2267 -1.1888
   48MOL   H61034544   3.393   7.773   7.741 -3.6307  2.2884  1.1072
   48MOL   H61134545   3.260   7.613   7.828 -0.3776 -0.7514 -0.0763
   48MOL   H61234546   3.341   0.245   6.926 -0.5034  2.7250  2.4122
   48MOL   H61334547   3.371   0.226   6.682  1.5956  2.1241  1.1884
   48MOL   C61434548   3.230   7.503   7.652  1.0978 -0.1479 -0.6353
   48MOL   O61534549   3.253   7.500   7.532 -0.1420  0.0284 -0.0763
   48MOL   C61634550   3.160   7.382   7.715  0.1542  0.1949  0.3281
   48MOL   C61734551   3.128   7.372   7.856 -0.0084 -0.0598  0.9874
   48MOL   C61834552   3.077   7.255   0.020  0.4220  0.6194 -1.2692
   48MOL   C61934553   3.038   7.150   7.823  0.2890 -0.1430 -0.4581
   48MOL   C62034554   2.979   7.021   7.876  0.0620  0.1783 -0.4605
   48MOL   O62134555   2.964   6.923   7.808  0.0772  0.8705  0.0144
   48MOL   N62234556   2.953   7.029   0.121  0.5532 -0.0199  0.2829
   48MOL   C62334557   2.891   6.928   0.209  0.3881 -0.0300  0.1944
   48MOL   C62434558   2.883   6.956   0.360  0.2157  0.4309  0.4822
   48MOL   C62534559   2.812   6.847   0.439  0.6259  0.0157  0.3327
   48MOL   C62634560   2.805   6.878   0.590 -0.1972  0.2096 -0.1659
   48MOL   C62734561   2.675   6.956   0.616 -0.0853  0.4215  0.7587
   48MOL   C62834562   2.659   6.998   0.758  0.0846 -0.1224 -0.2552
   48MOL   N62934563   2.759   7.093   0.807 -0.0008 -0.6259  0.2371
   48MOL   C63034564   3.067   7.152   7.686 -0.4006 -0.4215  0.3511
   48MOL   C63134565   3.125   7.269   7.633  0.4449  0.0531  0.2829
   48MOL   H63234566   3.162   7.452   0.034  2.7895 -0.1405 -0.3529
   48MOL   H63334567   3.079   7.252   0.128  0.4507 -0.7767 -1.2964
   48MOL   H63434568   3.009   7.102   0.162  1.6825 -1.8862  2.2069
   48MOL   H63534569   2.792   6.896   0.179  0.6738 -2.5871  1.7958
   48MOL   H63634570   2.938   6.831   0.195 -1.5247 -1.2122  1.6357
   48MOL   H63734571   2.829   7.046   0.388 -0.0518 -0.0660  1.6055
   48MOL   H63834572   2.983   6.958   0.404  0.1919 -2.0304  0.7341
   48MOL   H63934573   2.709   6.823   0.412  0.2214  1.8283  0.1732
   48MOL   H64034574   2.854   6.749   0.418  2.6863  0.4250  2.3635
   48MOL   H64134575   2.891   6.942   0.607 -0.2217  0.5409 -1.2733
   48MOL   H64234576   2.821   6.787   0.648  1.4793  0.2466 -0.5324
   48MOL   H64334577   2.594   6.895   0.576  0.4164  1.3022 -1.6919
   48MOL   H64434578   2.657   7.043   0.553 -1.7001 -2.1953 -2.5737
   48MOL   H64534579   2.555   7.028   0.774  0.3445  0.8031 -0.2512
   48MOL   H64634580   2.666   6.910   0.822 -0.7973  1.4931  2.1614
   48MOL   H64734581   2.850   7.067   0.773 -0.2342 -0.4879 -0.5025
   48MOL   H64834582   3.034   7.072   7.622 -0.4626 -2.3990  2.7764
   48MOL   H64934583   3.138   7.280   7.526  2.1173 -1.9989  0.2536
   48MOL   C65034584   2.751   7.206   0.874  0.2069  0.2756  0.0443
   48MOL   O65134585   2.652   7.240   0.936 -0.2233 -0.2210 -0.4573
   48MOL   C65234586   2.864   7.301   0.847 -0.0225 -0.1902 -0.6533
   48MOL   C65334587   2.835   7.438   0.834  0.5933 -0.2895  0.4566
   48MOL   C65434588   2.936   7.530   0.821  0.1273 -0.1448 -0.0707
   48MOL   C65534589   3.073   7.485   0.829  0.2459 -0.0557  0.2947
   48MOL   C65634590   3.188   7.578   0.827 -0.3310 -1.2989  0.5959
   48MOL   O65734591   3.293   7.545   0.891 -0.0390  0.1307 -0.3861
   48MOL   N65834592   3.181   7.690   0.762  0.8485 -0.6036 -0.0610
   48MOL   C65934593   3.291   7.796   0.750  0.3357 -0.9536 -1.4529
   48MOL   C66034594   3.333   7.815   0.603  0.5582  0.3812  0.2003
   48MOL   C66134595   3.480   7.862   0.592  0.0793  0.4603 -0.4493
   48MOL   C66234596   3.516   0.024   0.451  0.2074  0.3056  0.8394
   48MOL   C66334597   3.663   0.067   0.452 -0.5282 -0.0903  0.0316
   48MOL   C66434598   3.703   0.158   0.334 -0.7079 -0.4138  0.0675
   48MOL   N66534599   3.832   0.225   0.371 -0.0732 -0.2501 -0.2282
   48MOL   C66634600   3.097   7.347   0.855 -0.1390  0.5647  0.1846
   48MOL   C66734601   2.995   7.257   0.851  0.1515 -0.1177 -0.7770
   48MOL   H66834602   2.734   7.475   0.828  0.8620  0.2995 -0.5116
   48MOL   H66934603   2.906   7.631   0.800 -2.0412 -0.5675  0.8803
   48MOL   H67034604   3.092   7.712   0.720  0.6657  0.8971  1.0775
   48MOL   H67134605   3.255   0.001   0.797  1.6780 -2.0679  1.9309
   48MOL   H67234606   3.376   7.756   0.807 -1.2222  0.1663  1.7968
   48MOL   H67334607   3.269   0.009   0.566 -0.7547  0.2094  2.0412
   48MOL   H67434608   3.312   7.719   0.557 -1.6851  0.4626  1.0031
   48MOL   H67534609   3.506   0.044   0.673  0.9051 -0.5107  0.1199
   48MOL   H67634610   3.535   7.770   0.614 -0.0602  0.7757  1.2464
   48MOL   H67734611   3.448   0.105   0.425  0.1958 -0.2150 -0.7993
   48MOL   H67834612   3.488   7.828   0.385 -1.6716 -0.2355  2.2658
   48MOL   H67934613   3.734   7.871   0.461  0.5899  0.7929 -0.4885
   48MOL   H68034614   3.671   0.122   0.546 -2.7765 -1.7308  1.2034
   48MOL   H68134615   3.715   0.099   0.243  0.9614  1.7010 -1.1409
   48MOL   H68234616   3.633   0.239   0.314  1.1690  0.9054 -1.3394
   48MOL   H68334617   3.909   0.163   0.390  0.5880  1.2609  2.2167
   48MOL   H68434618   3.197   7.308   0.863 -0.1508  0.0264 -1.9341
   48MOL   H68534619   3.010   7.152   0.869  0.9635 -0.0387 -0.9898
   48MOL   C68634620   3.855   0.361   0.385  0.3323 -0.0167 -0.0449
   48MOL   O68734621   3.771   0.443   0.353 -0.5397 -0.5582 -0.0987
   48MOL   C68834622   3.997   0.400   0.419  0.5272  0.4267  0.1600
   48MOL   C68934623   4.051   0.522   0.374 -0.3022  0.2877 -0.4631
   48MOL   C69034624   4.188   0.552   0.392 -0.5024 -0.3899 -0.9431
   48MOL   C69134625   4.269   0.465   0.468 -0.9735  0.1066 -0.7714
   48MOL   C69234626   4.413   0.500   0.486 -0.4079 -0.3284 -0.1616
   48MOL   O69334627   4.446   0.558   0.585 -0.1143  0.1591  0.1917
   48MOL   N69434628   4.494   0.467   0.390 -0.0288 -0.1812  0.3308
   48MOL   C69534629   4.631   0.500   0.372 -0.1912  0.1743 -0.4176
   48MOL   C69634630   4.655   0.551   0.234 -0.0641 -0.0727 -0.2993
   48MOL   C69734631   4.802   0.597   0.233  0.0896  0.0312 -0.6078
   48MOL   C69834632   4.834   0.657   0.102 -0.5811 -0.2786  0.5735
   48MOL   C69934633   4.993   0.669   0.090 -0.4673  0.5017  0.0050
   48MOL   C70034634   5.033   0.728   7.835 -0.6318  0.0478  0.0298
   48MOL   N70134635   4.982   0.865   7.828  0.3168  0.4243 -0.3584
   48MOL   C70234636   4.215   0.343   0.517 -0.0280 -0.2158  0.1432
   48MOL   C70334637   4.081   0.309   0.491 -0.3728 -0.8740  0.2253
   48MOL   H70434638   3.987   0.583   0.312 -0.1614 -0.1316 -1.0222
   48MOL   H70534639   4.226   0.632   0.332  0.5711 -0.0309  0.1909
   48MOL   H70634640   4.455   0.414   0.314  1.3703  0.3267 -0.7525
   48MOL   H70734641   4.662   0.573   0.447 -1.6500 -1.3894  1.7803
   48MOL   H70834642   4.687   0.409   0.392 -2.5752 -1.0262  0.9531
   48MOL   H70934643   4.586   0.634   0.221 -3.7559 -3.1804 -1.3620
   48MOL   H71034644   4.649   0.467   0.165  0.0824 -0.9062  0.6879
   48MOL   H71134645   4.835   0.670   0.307  0.7248  0.0443 -0.8980
   48MOL   H71234646   4.858   0.506   0.255 -0.6930 -0.5107 -0.7982
   48MOL   H71334647   4.773   0.747   0.101  1.0928  0.9148 -3.0431
   48MOL   H71434648   4.793   0.599   0.019  0.7333  0.7610 -0.8071
   48MOL   H71534649   5.040   0.572   0.109 -0.6031  0.6712  1.2605
   48MOL   H71634650   5.026   0.736   0.169 -1.3460  0.4826  0.3875
   48MOL   H71734651   5.142   0.729   7.832 -0.6235 -1.9336 -1.2231
   48MOL   H71834652   5.013   0.660   7.753 -1.9977  1.1156 -0.5511
   48MOL   H71934653   5.030   0.911   7.752  0.2619  1.5375  0.2791
   48MOL   H72034654   4.286   0.276   0.564 -0.4137 -0.1714  0.7909
   48MOL   H72134655   4.027   0.221   0.522 -0.3455 -0.9633  0.0209
   48MOL   H72234656   4.987   0.922   0.025 -0.1135  0.5035 -0.3850
   49MOL     C134657   0.398   6.561   5.743 -0.0553  1.1542 -0.2358
   49MOL     O234658   0.511   6.611   5.758  0.2496  0.0685 -1.2863
   49MOL     C334659   0.341   6.445   5.816  0.3836  0.5800 -0.0946
   49MOL     C434660   0.359   6.421   5.954 -0.2970 -0.3242 -0.1639
   49MOL     C534661   0.309   6.307   6.011 -0.4214  0.2612  0.0641
   49MOL     C634662   0.242   6.212   5.934  0.4892  0.3771 -0.2647
   49MOL     C734663   0.194   6.085   5.999 -0.0543 -0.6154 -0.6480
   49MOL     O834664   0.114   6.086   6.093  0.2333  0.2555  0.0031
   49MOL     N934665   0.249   5.973   5.948  0.1271  0.5650 -0.4124
   49MOL    C1034666   0.217   5.841   5.995 -0.8066  0.0002 -0.0974
   49MOL    C1134667   0.088   5.783   5.930  0.7281 -0.0626  0.2108
   49MOL    C1234668   0.089   5.797   5.776 -0.8830  0.8143 -0.1172
   49MOL    C1334669   7.837   5.771   5.721  0.7521 -0.4387 -0.3152
   49MOL    C1434670   7.832   5.765   5.561  0.4669 -0.5778  0.1845
   49MOL    C1534671   7.692   5.746   5.495  0.1142 -0.1601  0.3815
   49MOL    N1634672   7.613   5.854   5.521 -0.0328  0.2672 -0.1601
   49MOL    C1734673   0.213   6.236   5.798  0.1705  0.5745  0.2081
   49MOL    C1834674   0.269   6.349   5.739  0.2293  0.5448  0.1283
   49MOL    H1934675   0.416   6.486   6.019  2.4627 -1.0886 -1.7262
   49MOL    H2034676   0.325   6.293   6.117 -0.3709  0.4108  0.0761
   49MOL    H2134677   0.312   5.978   5.870  0.1259  1.0763 -0.3864
   49MOL    H2234678   0.295   5.767   5.979 -0.9239 -0.3520  0.9489
   49MOL    H2334679   0.214   5.849   6.103  0.1621  0.3016 -0.0889
   49MOL    H2434680   0.016   5.848   5.979 -0.0189  0.2904 -1.3360
   49MOL    H2534681   0.072   5.681   5.965  1.9175 -0.0846  0.7361
   49MOL    H2634682   0.121   5.899   5.752 -3.5979  2.3809  2.5624
   49MOL    H2734683   0.158   5.733   5.722 -1.5871  1.2277 -1.5216
   49MOL    H2834684   7.779   5.858   5.753 -0.3975 -1.3298  0.0263
   49MOL    H2934685   7.776   5.688   5.757 -0.5362  0.1339 -1.1206
   49MOL    H3034686   7.878   5.669   5.540  0.3977 -0.5136 -0.2689
   49MOL    H3134687   0.010   5.841   5.516 -0.0704 -0.1074  0.2062
   49MOL    H3234688   7.699   5.709   5.393  3.2691  0.4780  0.3227
   49MOL    H3334689   7.629   5.670   5.541  0.9520 -2.0020 -1.4299
   49MOL    H3434690   7.648   5.917   5.592  1.7573 -0.4027 -0.4242
   49MOL    H3534691   0.164   6.163   5.736  1.5059  1.3241 -1.7977
   49MOL    H3634692   0.267   6.364   5.633 -1.5373 -0.6977 -0.0211
   49MOL    H3734693   0.321   6.602   5.677 -0.8804 -1.2431 -0.8115
   49MOL    C3834694   7.500   5.879   5.453 -0.0358 -0.4557  0.1787
   49MOL    O3934695   7.469   5.813   5.354  0.1876  0.3164 -0.0193
   49MOL    C4034696   7.422   6.003   5.493 -0.2751 -0.1708 -0.0739
   49MOL    C4134697   7.380   6.095   5.394  0.0787  0.2751  0.0865
   49MOL    C4234698   7.307   6.208   5.434  0.5878 -0.5040  0.4141
   49MOL    C4334699   7.270   6.237   5.571  0.4631  0.0282 -0.6293
   49MOL    C4434700   7.212   6.370   5.608  0.5827 -0.2652 -0.3934
   49MOL    O4534701   7.147   6.431   5.526  0.3683  0.1986 -0.1820
   49MOL    N4634702   7.242   6.415   5.732 -0.0940  0.5491 -0.0813
   49MOL    C4734703   7.164   6.526   5.794 -0.2213  0.4903 -0.1924
   49MOL    C4834704   7.227   6.657   5.758 -0.2356  0.0602  0.1532
   49MOL    C4934705   7.162   6.773   5.830  0.0755 -0.2717  0.3486
   49MOL    C5034706   7.233   6.901   5.795 -0.0516  0.5260  0.0445
   49MOL    C5134707   7.361   6.919   5.877 -0.5691  0.1233 -0.5601
   49MOL    C5234708   7.427   7.054   5.844  0.1645  0.3712 -0.0424
   49MOL    N5334709   7.344   7.171   5.868 -0.0512 -0.4589 -0.3689
   49MOL    C5434710   7.320   6.151   5.667  0.3552  0.5842 -0.1410
   49MOL    C5534711   7.396   6.034   5.630 -0.0096 -0.0605 -1.0065
   49MOL    H5634712   7.411   6.077   5.293  0.9441 -1.1459  0.5932
   49MOL    H5734713   7.288   6.285   5.361  1.1701  0.3380  1.1420
   49MOL    H5834714   7.310   6.368   5.789 -1.2337 -1.1845 -0.1148
   49MOL    H5934715   7.059   6.525   5.766 -0.9199 -0.5186  2.3121
   49MOL    H6034716   7.168   6.514   5.902 -0.1202  0.5994 -0.1837
   49MOL    H6134717   7.239   6.658   5.650  0.1616 -2.7924  0.1487
   49MOL    H6234718   7.328   6.644   5.797 -0.9793 -1.7425  1.5602
   49MOL    H6334719   7.056   6.769   5.804  0.0336 -0.4481  0.5407
   49MOL    H6434720   7.170   6.764   5.938 -0.5961 -0.9943  0.3502
   49MOL    H6534721   7.155   6.974   5.820 -0.1514  0.2309  0.6185
   49MOL    H6634722   7.252   6.915   5.689  0.9958 -0.7005  0.0692
   49MOL    H6734723   7.433   6.839   5.865  1.1762  1.8010 -1.6528
   49MOL    H6834724   7.335   6.910   5.982 -2.6890  2.9977 -0.7701
   49MOL    H6934725   7.522   7.071   5.896  0.1227 -0.8139  0.4319
   49MOL    H7034726   7.454   7.042   5.739  0.7471 -1.7317  0.3286
   49MOL    H7134727   7.314   7.178   5.964  0.6079 -2.1400 -0.0312
   49MOL    H7234728   7.296   6.173   5.770 -1.3749  2.7578 -0.9788
   49MOL    H7334729   7.443   5.982   5.712 -0.9273  1.2386  0.3692
   49MOL    C7434730   7.316   7.261   5.774 -0.4437  0.0568 -0.2694
   49MOL    O7534731   7.371   7.265   5.665  0.1569 -0.4674  0.0961
   49MOL    C7634732   7.204   7.357   5.812 -0.8208 -0.4495  0.4767
   49MOL    C7734733   7.196   7.480   5.744 -0.3543  0.1486 -0.3883
   49MOL    C7834734   7.088   7.568   5.772  0.0986  0.0247  0.3129
   49MOL    C7934735   6.994   7.531   5.861  0.0412  0.4035  0.0088
   49MOL    C8034736   6.883   7.631   5.885 -0.7255 -0.0057 -0.1402
   49MOL    O8134737   6.888   7.748   5.851 -0.4991  0.0812  0.0194
   49MOL    N8234738   6.769   7.572   5.934 -0.1792 -0.5629 -0.5645
   49MOL    C8334739   6.641   7.632   5.934  0.2454  0.4765 -0.1469
   49MOL    C8434740   6.530   7.547   6.001 -0.5653 -0.1417 -0.4988
   49MOL    C8534741   6.394   7.610   5.996  0.2496  0.4084  0.6846
   49MOL    C8634742   6.275   7.523   6.044 -0.3071  0.2742  0.8039
   49MOL    C8734743   6.240   7.407   5.945  1.1466 -0.6115 -0.3335
   49MOL    C8834744   6.191   7.460   5.811 -0.2318  0.6120  0.0176
   49MOL    N8934745   6.146   7.361   5.712  0.0691 -0.0336  0.3762
   49MOL    C9034746   6.999   7.405   5.928 -0.1498  0.8250 -0.2259
   49MOL    C9134747   7.101   7.318   5.898  0.2488  0.2590 -0.8629
   49MOL    H9234748   7.270   7.514   5.674  1.0198 -0.4897  0.7157
   49MOL    H9334749   7.083   7.662   5.719 -5.6120 -1.0296 -1.3502
   49MOL    H9434750   6.776   7.474   5.958 -1.3797 -0.4649  0.2075
   49MOL    H9534751   6.637   7.735   5.970 -3.7797  0.8130 -1.2720
   49MOL    H9634752   6.616   7.636   5.828 -0.4433 -0.3829 -0.0274
   49MOL    H9734753   6.548   7.521   6.105 -1.1573  0.3018 -0.2812
   49MOL    H9834754   6.540   7.452   5.949 -0.0878 -1.0376  1.1914
   49MOL    H9934755   6.393   7.708   6.044 -0.6640  1.2533 -1.0006
   49MOL   H10034756   6.370   7.647   5.896  0.8024  0.5344  0.5980
   49MOL   H10134757   6.188   7.587   6.054  0.8371  1.6751  2.0401
   49MOL   H10234758   6.291   7.484   6.144  0.7501 -0.8580  0.2157
   49MOL   H10334759   6.173   7.332   5.987  2.5010 -0.9368  1.3228
   49MOL   H10434760   6.331   7.349   5.929  0.8361 -0.7514 -1.6478
   49MOL   H10534761   6.109   7.529   5.828  0.1359  0.6807  1.5467
   49MOL   H10634762   6.264   7.521   5.757  0.7333 -1.3333 -0.9580
   49MOL   H10734763   6.217   7.291   5.694 -0.9631 -0.8668 -0.5453
   49MOL   H10834764   6.925   7.375   6.001 -1.6542 -2.1842 -2.8718
   49MOL   H10934765   7.102   7.220   5.943  1.0079  1.6506  2.2753
   49MOL   C11034766   6.047   7.390   5.625 -0.2217  0.2991  0.1061
   49MOL   O11134767   5.973   7.491   5.635 -0.3890  0.0016 -0.5754
   49MOL   C11234768   6.021   7.282   5.523 -0.1455  0.2065  0.8959
   49MOL   C11334769   5.891   7.272   5.472 -0.3822 -0.0543 -0.3791
   49MOL   C11434770   5.860   7.158   5.397  1.1673  0.5735  0.1475
   49MOL   C11534771   5.953   7.056   5.370 -0.3019  0.4325  0.4524
   49MOL   C11634772   5.907   6.936   5.302  0.2188 -0.0986  0.4179
   49MOL   O11734773   5.822   6.943   5.214  0.5260  0.5127 -0.2113
   49MOL   N11834774   5.938   6.819   5.355  0.1460 -0.3930 -0.6447
   49MOL   C11934775   5.894   6.691   5.294  0.0030 -0.0203  0.0376
   49MOL   C12034776   5.962   6.665   5.158 -0.1797 -0.6466 -0.0025
   49MOL   C12134777   6.114   6.707   5.151 -0.0287 -0.1425  0.4988
   49MOL   C12234778   6.212   6.628   5.239 -0.1946  0.1697 -0.5134
   49MOL   C12334779   6.219   6.477   5.205  0.6083 -0.3794 -0.2954
   49MOL   C12434780   6.328   6.380   5.247  0.3780  0.1373 -0.0013
   49MOL   N12534781   6.318   6.249   5.194 -0.1161 -0.0738 -0.3008
   49MOL   C12634782   6.083   7.066   5.418  0.1395  0.2470  0.7450
   49MOL   C12734783   6.118   7.181   5.491 -0.1617  0.3609 -0.2860
   49MOL   H12834784   5.821   7.352   5.494  0.3973  0.5828 -0.1950
   49MOL   H12934785   5.762   7.141   5.354  0.9829  0.8405  0.4655
   49MOL   H13034786   6.001   6.815   5.433  0.2983 -0.0556 -0.7486
   49MOL   H13134787   5.915   6.611   5.364  1.3222 -0.1957 -0.5457
   49MOL   H13234788   5.786   6.677   5.288  0.2231 -2.1967  0.8097
   49MOL   H13334789   5.902   6.710   5.079  0.0184  0.8553  0.6851
   49MOL   H13434790   5.949   6.558   5.144  2.4315 -1.2235  1.7308
   49MOL   H13534791   6.140   6.693   5.046 -2.6338 -0.3736 -0.1399
   49MOL   H13634792   6.113   6.811   5.182  0.2893 -0.2795  0.9812
   49MOL   H13734793   6.182   6.645   5.342 -1.0265 -0.3104 -0.6715
   49MOL   H13834794   6.312   6.668   5.224 -0.5856  1.1748 -0.4582
   49MOL   H13934795   6.217   6.468   5.096  1.0462 -2.0241 -0.1864
   49MOL   H14034796   6.123   6.431   5.226  1.3177 -1.8112 -0.1361
   49MOL   H14134797   6.423   6.404   5.198  0.7845 -1.5033 -0.0572
   49MOL   H14234798   6.353   6.378   5.353  1.1461 -0.2367 -0.1826
   49MOL   H14334799   6.385   6.226   5.122 -0.1428 -1.4160  0.0967
   49MOL   H14434800   6.157   6.989   5.409  0.8878  0.8622  1.5074
   49MOL   H14534801   6.213   7.187   5.541  0.3948  1.3336 -1.4561
   49MOL   C14634802   6.211   6.169   5.196 -0.3339  0.5292 -1.0127
   49MOL   O14734803   6.119   6.187   5.274  0.1449 -0.3784  0.4528
   49MOL   C14834804   6.214   6.061   5.095 -0.3042 -0.2833 -0.3094
   49MOL   C14934805   6.098   6.025   5.021  0.6532 -0.2149 -0.2707
   49MOL   C15034806   6.103   5.918   4.920 -0.4591 -0.0124  0.1413
   49MOL   C15134807   6.231   5.857   4.891 -0.1275 -0.2660  0.4770
   49MOL   C15234808   6.246   5.749   4.790 -0.4740  0.1106 -0.1595
   49MOL   O15334809   6.170   5.731   4.701 -0.1449  0.1794  0.7535
   49MOL   N15434810   6.349   5.667   4.814  0.0041 -0.2971 -0.2591
   49MOL   C15534811   6.426   5.587   4.715  0.5276  0.2067  0.4890
   49MOL   C15634812   6.480   5.470   4.790  0.3582 -0.6123  0.2252
   49MOL   C15734813   6.538   5.361   4.702 -0.1552  0.0872 -0.3472
   49MOL   C15834814   6.581   5.238   4.772  0.1539 -0.4118 -0.5486
   49MOL   C15934815   6.675   5.154   4.684  0.4881 -0.4599  0.3346
   49MOL   C16034816   6.718   5.033   4.766 -0.0122  0.1703  0.3191
   49MOL   N16134817   6.799   4.953   4.677 -0.2701 -0.4037  0.1573
   49MOL   C16234818   6.344   5.906   4.955  0.3096  0.0511 -0.0031
   49MOL   C16334819   6.337   5.997   5.060 -0.5800 -0.0274  0.8510
   49MOL   H16434820   6.004   6.073   5.042  0.5626 -1.4631  2.4480
   49MOL   H16534821   6.016   5.878   4.870  0.9800 -1.2060 -1.4651
   49MOL   H16634822   6.384   5.656   4.908  0.9776  1.1848 -0.4244
   49MOL   H16734823   6.370   5.548   4.630 -0.2391  1.8196  0.2312
   49MOL   H16834824   6.505   5.647   4.669  1.3111 -0.8850  0.4188
   49MOL   H16934825   6.400   5.436   4.856 -1.0074  1.5611 -0.2755
   49MOL   H17034826   6.556   5.504   4.861  0.4217 -2.0474  0.8607
   49MOL   H17134827   6.460   5.343   4.628 -0.5615  1.0241 -0.1642
   49MOL   H17234828   6.628   5.401   4.656  0.0164  0.4246  0.2680
   49MOL   H17334829   6.492   5.185   4.806 -1.2828  2.8492  0.9775
   49MOL   H17434830   6.634   5.275   4.860 -0.0776 -0.2622 -0.4709
   49MOL   H17534831   6.750   5.217   4.636 -0.6650  0.7752  0.1384
   49MOL   H17634832   6.625   5.108   4.599  1.4281 -1.7994  0.4982
   49MOL   H17734833   6.775   5.067   4.853  1.3964  0.8897 -0.8594
   49MOL   H17834834   6.640   4.961   4.789 -0.9775  1.3670  0.8089
   49MOL   H17934835   6.844   4.998   4.599  2.1911 -0.6245  1.3708
   49MOL   H18034836   6.442   5.865   4.935  1.0112  0.3551  2.6525
   49MOL   H18134837   6.425   6.028   5.115  0.2712  0.0472 -0.5266
   49MOL   C18234838   6.777   4.818   4.663  0.5093 -0.0567 -0.4936
   49MOL   O18334839   6.735   4.742   4.755 -0.2458 -0.4931  0.1803
   49MOL   C18434840   6.814   4.762   4.531  0.0847 -0.3347 -0.6849
   49MOL   C18534841   6.733   4.665   4.469  0.3294 -0.3360  0.5731
   49MOL   C18634842   6.759   4.622   4.336 -0.0512  0.4780  0.1305
   49MOL   C18734843   6.873   4.676   4.265 -0.1530 -0.1600  0.0233
   49MOL   C18834844   6.895   4.623   4.130 -0.3547 -0.5529 -0.1996
   49MOL   O18934845   7.006   4.611   4.079  0.3172  0.4297 -0.0441
   49MOL   N19034846   6.787   4.597   4.057  0.8678 -0.0653  0.1305
   49MOL   C19134847   6.791   4.550   3.920 -0.1375 -0.2234  0.4562
   49MOL   C19234848   6.650   4.544   3.860 -0.8384 -0.0703 -0.3831
   49MOL   C19334849   6.570   4.679   3.871  0.1194 -0.1702  0.5300
   49MOL   C19434850   6.424   4.658   3.918 -0.3487 -0.7134  0.0343
   49MOL   C19534851   6.410   4.626   4.071 -0.1166 -1.1632 -0.2038
   49MOL   C19634852   6.271   4.629   4.135 -0.7137  0.2346 -0.3987
   49MOL   N19734853   6.263   4.602   4.280  0.6550 -0.2202 -0.1970
   49MOL   C19834854   6.961   4.764   4.326 -0.2341  0.9019 -0.2880
   49MOL   C19934855   6.930   4.807   4.458 -0.0812 -0.8398  0.5512
   49MOL   H20034856   6.647   4.630   4.524  1.0114 -2.6293  0.2353
   49MOL   H20134857   6.701   4.540   4.295  0.7031 -0.4897  0.9982
   49MOL   H20234858   6.699   4.636   4.087  0.5469  0.5316 -1.5359
   49MOL   H20334859   6.850   4.614   3.855  0.6123 -0.4998  0.8526
   49MOL   H20434860   6.849   4.457   3.925 -1.0190 -0.8037  0.0501
   49MOL   H20534861   6.599   4.467   3.919  2.1948 -0.6880  1.5579
   49MOL   H20634862   6.676   4.513   3.759  0.2713 -0.0779 -0.0959
   49MOL   H20734863   6.623   4.759   3.923 -0.4901  2.2285 -2.4275
   49MOL   H20834864   6.558   4.713   3.768 -0.1088 -0.2780  0.5201
   49MOL   H20934865   6.365   4.590   3.857 -0.4166  0.3088 -1.0670
   49MOL   H21034866   6.381   4.755   3.894  3.9348  1.3315  0.0829
   49MOL   H21134867   6.470   4.699   4.127 -2.1038  1.2139 -1.0863
   49MOL   H21234868   6.448   4.526   4.090  0.6019 -0.6665  1.0921
   49MOL   H21334869   6.241   4.731   4.115 -2.2222  0.6596  3.4817
   49MOL   H21434870   6.208   4.557   4.083 -1.3953 -1.2121  2.3456
   49MOL   H21534871   6.310   4.518   4.312 -2.6355 -1.1814  2.4392
   49MOL   H21634872   7.046   4.789   4.264 -1.1990  2.0647 -1.1714
   49MOL   H21734873   6.991   4.879   4.511  1.2132 -1.0821 -0.5932
   49MOL   C21834874   6.233   4.695   4.368 -0.1951  0.5767  0.2604
   49MOL   O21934875   6.170   4.795   4.337  0.4245  0.2878  0.0607
   49MOL   C22034876   6.289   4.681   4.511  0.3224 -1.0189  0.7220
   49MOL   C22134877   6.337   4.793   4.579 -0.4041 -0.1218  0.6279
   49MOL   C22234878   6.385   4.786   4.711  0.2108 -0.3156  0.5612
   49MOL   C22334879   6.366   4.672   4.791  0.3447 -0.6622 -0.1158
   49MOL   C22434880   6.411   4.667   4.936  0.0541 -0.3009  0.9496
   49MOL   O22534881   6.336   4.631   5.025 -0.4033  0.3274  0.2245
   49MOL   N22634882   6.540   4.691   4.948  0.5764 -0.4784  0.1310
   49MOL   C22734883   6.626   4.712   5.071  0.5326 -1.1072 -0.0479
   49MOL   C22834884   6.637   4.867   5.110  0.0737  0.5284  0.5868
   49MOL   C22934885   6.509   4.952   5.096 -0.0815 -0.3001  0.3921
   49MOL   C23034886   6.539   5.097   5.137 -0.0863  0.0012  0.0577
   49MOL   C23134887   6.420   5.190   5.121  0.7754 -0.1005 -0.2903
   49MOL   C23234888   6.445   5.334   5.177  0.6448 -0.2310  0.1781
   49MOL   N23334889   6.327   5.420   5.185  0.5076 -0.2004  0.5147
   49MOL   C23434890   6.314   4.556   4.727 -0.0859  0.1375  0.1390
   49MOL   C23534891   6.279   4.561   4.592 -0.3550 -0.7436 -0.3288
   49MOL   H23634892   6.350   4.885   4.523 -1.3416 -0.5931 -0.3985
   49MOL   H23734893   6.413   4.875   4.766  1.6384 -1.4004  1.6554
   49MOL   H23834894   6.590   4.684   4.861  0.1603 -0.8025 -0.0856
   49MOL   H23934895   6.580   4.672   5.161 -1.7018  3.3417  0.9204
   49MOL   H24034896   6.724   4.674   5.044  0.7509  1.0590 -2.4814
   49MOL   H24134897   6.715   4.915   5.051  1.9943 -1.1766  1.7073
   49MOL   H24234898   6.660   4.872   5.216  0.3156 -0.8214  0.6067
   49MOL   H24334899   6.485   4.941   4.991  1.2274 -0.4274  0.0919
   49MOL   H24434900   6.444   4.892   5.161  1.0824 -4.1403 -1.8024
   49MOL   H24534901   6.619   5.128   5.070 -0.2183  1.9565  0.7532
   49MOL   H24634902   6.578   5.095   5.239  1.6503  0.2266 -0.5990
   49MOL   H24734903   6.337   5.154   5.182  0.4802  0.9718 -0.0508
   49MOL   H24834904   6.389   5.186   5.017 -1.2745 -0.6296  0.3101
   49MOL   H24934905   6.491   5.326   5.276 -0.5471 -0.2937  0.7297
   49MOL   H25034906   6.521   5.389   5.121  1.2944 -3.0529 -1.7807
   49MOL   H25134907   6.245   5.387   5.233 -0.3540 -0.3358 -0.9907
   49MOL   H25234908   6.300   4.467   4.787  0.6475 -1.5155 -2.0708
   49MOL   H25334909   6.234   4.469   4.556  0.3488 -0.7201 -1.2897
   49MOL   C25434910   6.323   5.560   5.155  0.7004  0.3433  0.6778
   49MOL   O25534911   6.415   5.622   5.101  0.2799  0.2349 -0.4086
   49MOL   C25634912   6.207   5.624   5.216  0.1825 -0.3201 -0.1880
   49MOL   C25734913   6.075   5.574   5.218  0.8989 -0.2750 -0.6886
   49MOL   C25834914   5.967   5.647   5.263  0.0934  0.7668 -0.5005
   49MOL   C25934915   5.984   5.779   5.311  0.0349  0.2729  0.1081
   49MOL   C26034916   5.865   5.861   5.360 -0.6003  1.1116 -0.1458
   49MOL   O26134917   5.756   5.806   5.379  0.0380 -0.0571 -0.0189
   49MOL   N26234918   5.891   5.991   5.386  0.5151  0.0408 -0.3482
   49MOL   C26334919   5.792   6.098   5.428 -0.8322 -0.2349 -0.1070
   49MOL   C26434920   5.699   6.153   5.315 -0.4528  0.8560 -0.4028
   49MOL   C26534921   5.769   6.199   5.185  0.9509  0.0966 -0.1042
   49MOL   C26634922   5.669   6.263   5.092  0.3568  0.1125  0.1417
   49MOL   C26734923   5.745   6.310   4.969 -0.5204 -0.4375  0.0348
   49MOL   C26834924   5.644   6.370   4.870  0.1195 -0.1126 -0.2470
   49MOL   N26934925   5.582   6.489   4.929  0.3126 -0.1413  0.5677
   49MOL   C27034926   6.118   5.827   5.322  1.2004  0.6091  0.0827
   49MOL   C27134927   6.223   5.747   5.275 -0.1290 -0.5736  0.0041
   49MOL   H27234928   6.047   5.476   5.183 -2.8461  1.2596 -2.1742
   49MOL   H27334929   5.873   5.595   5.259 -0.1280  1.1960 -0.9361
   49MOL   H27434930   5.979   6.023   5.349 -0.1193  0.3250 -1.6506
   49MOL   H27534931   5.738   6.060   5.515  0.7610  1.4733  1.6874
   49MOL   H27634932   5.854   6.172   5.479 -0.1589 -1.6238  1.1267
   49MOL   H27734933   5.635   6.232   5.357  1.4973  3.0381 -1.4280
   49MOL   H27834934   5.637   6.068   5.288  2.6150 -0.9624 -1.9666
   49MOL   H27934935   5.848   6.271   5.206  0.5250 -0.0640  2.2183
   49MOL   H28034936   5.810   6.111   5.135 -1.7424 -2.2561  1.6162
   49MOL   H28134937   5.606   6.337   5.141 -0.8927 -3.2243  3.8634
   49MOL   H28234938   5.598   6.185   5.063  3.2882 -1.8976 -1.8616
   49MOL   H28334939   5.804   6.233   4.918 -0.9409  0.0554 -1.2280
   49MOL   H28434940   5.820   6.382   5.002 -0.6728 -0.0943 -0.3728
   49MOL   H28534941   5.701   6.399   4.782 -0.4059  0.8641 -0.2831
   49MOL   H28634942   5.561   6.303   4.848  0.4638 -1.0389  1.1998
   49MOL   H28734943   5.575   6.506   5.028 -1.3848 -0.2151  0.4864
   49MOL   H28834944   6.134   5.929   5.352  0.7975  0.5374  0.5374
   49MOL   H28934945   6.319   5.796   5.274  0.0424 -0.8402  1.5320
   49MOL   C29034946   5.502   6.571   4.856  0.1556  0.0881 -0.3166
   49MOL   O29134947   5.474   6.566   4.736  0.1353  0.4605 -0.6496
   49MOL   C29234948   5.450   6.684   4.939  0.5432  0.0035 -0.0894
   49MOL   C29334949   5.333   6.751   4.905  0.6161 -0.4717 -0.7741
   49MOL   C29434950   5.295   6.873   4.955  0.5174  0.2846 -0.0426
   49MOL   C29534951   5.372   6.928   5.061  0.7020  0.0051 -0.0740
   49MOL   C29634952   5.333   7.060   5.127 -0.7045  0.2520  1.1501
   49MOL   O29734953   5.243   7.122   5.078  0.2343 -0.4708  0.1325
   49MOL   N29834954   5.384   7.085   5.248 -0.2978  0.9244  0.2619
   49MOL   C29934955   5.334   7.183   5.340 -0.5370  0.1821  1.1935
   49MOL   C30034956   5.438   7.215   5.443  0.3754 -0.0107  0.4947
   49MOL   C30134957   5.463   7.110   5.552 -0.3716  0.6217  0.3488
   49MOL   C30234958   5.507   6.973   5.498  0.0577 -0.1456 -0.2296
   49MOL   C30334959   5.546   6.868   5.600 -0.3056  0.7249 -0.2900
   49MOL   C30434960   5.597   6.729   5.547  0.0895  0.5529 -0.3184
   49MOL   N30534961   5.496   6.667   5.462 -0.4222 -0.0683 -0.2044
   49MOL   C30634962   5.481   6.854   5.110  0.2139  1.2586 -0.1928
   49MOL   C30734963   5.527   6.745   5.038 -0.6948  0.3723 -0.2552
   49MOL   H30834964   5.275   6.710   4.824 -0.9877  2.2507 -1.0704
   49MOL   H30934965   5.210   6.929   4.921 -0.0649 -0.6257 -0.0931
   49MOL   H31034966   5.462   7.028   5.278 -1.1972 -1.5231 -1.9150
   49MOL   H31134967   5.306   7.274   5.287 -0.8938  0.0171  1.0940
   49MOL   H31234968   5.249   7.144   5.397 -2.2811 -0.4101 -1.6777
   49MOL   H31334969   5.401   7.300   5.500  1.0459  1.9782 -1.9630
   49MOL   H31434970   5.535   7.235   5.397 -0.2099 -2.0214 -1.7084
   49MOL   H31534971   5.535   7.145   5.626  1.2709 -0.7835 -0.5336
   49MOL   H31634972   5.375   7.100   5.614 -0.5031  1.4403  0.2935
   49MOL   H31734973   5.600   6.988   5.444 -0.3450  0.3563 -0.7998
   49MOL   H31834974   5.428   6.939   5.431  0.7861  0.6558 -1.5093
   49MOL   H31934975   5.468   6.850   5.674  0.7434 -0.3841  0.5803
   49MOL   H32034976   5.624   6.914   5.662  0.1464  0.6945 -0.8316
   49MOL   H32134977   5.693   6.743   5.498  0.1037 -0.2364 -0.5203
   49MOL   H32234978   5.620   6.665   5.632 -0.1428  1.2560  0.2818
   49MOL   H32334979   5.412   6.720   5.445  0.0932  0.5832 -0.7481
   49MOL   H32434980   5.538   6.887   5.196 -3.9085  0.0136  3.2095
   49MOL   H32534981   5.626   6.708   5.058 -1.1583 -0.9568 -0.3461
   49MOL   C32634982   5.506   6.545   5.403  0.2236 -0.0200  0.0854
   49MOL   O32734983   5.602   6.472   5.406  0.7374  0.0938 -0.0684
   49MOL   C32834984   5.387   6.493   5.325 -0.7117  0.4714  0.7955
   49MOL   C32934985   5.356   6.355   5.315 -0.5512 -0.0355 -0.8082
   49MOL   C33034986   5.271   6.297   5.220  0.5589  0.3579  0.4301
   49MOL   C33134987   5.216   6.389   5.125 -0.4676  0.6066  0.1751
   49MOL   C33234988   5.136   6.339   5.010  0.0872 -0.4380  1.4880
   49MOL   O33334989   5.148   6.226   4.963 -0.8758 -0.2495 -0.0130
   49MOL   N33434990   5.040   6.421   4.959 -0.3046 -0.1318 -0.1830
   49MOL   C33534991   4.977   6.418   4.820  0.1081  0.2101 -0.0307
   49MOL   C33634992   5.017   6.544   4.743 -0.2389 -0.4333 -0.0957
   49MOL   C33734993   4.994   6.675   4.820  0.2113  0.4426  0.4586
   49MOL   C33834994   4.853   6.721   4.842  0.1599 -0.1871  0.1999
   49MOL   C33934995   4.838   6.858   4.905 -0.4342  0.1287  1.2616
   49MOL   C34034996   4.692   6.879   4.946 -0.6531 -0.6940 -0.2751
   49MOL   N34134997   4.675   7.011   4.990  0.2992  0.3981 -0.2604
   49MOL   C34234998   5.228   6.524   5.140 -0.2689 -0.2863 -0.0907
   49MOL   C34334999   5.313   6.577   5.241  0.1330  0.3245 -0.2323
   49MOL   H34435000   5.417   6.287   5.373  0.3887  0.2068 -1.5047
   49MOL   H34535001   5.253   6.191   5.213  2.8594 -0.1573  1.8331
   49MOL   H34635002   5.009   6.496   5.020  0.0436  0.1369 -0.3338
   49MOL   H34735003   5.023   6.330   4.776  1.7529  1.7778 -1.5291
   49MOL   H34835004   4.868   6.415   4.819  0.0606 -1.7166  3.1978
   49MOL   H34935005   4.954   6.544   4.654  0.3216  1.6553 -0.5139
   49MOL   H35035006   5.120   6.530   4.710 -0.2001 -0.4366  0.0262
   49MOL   H35135007   5.056   6.675   4.909  0.1669 -2.6460  0.5622
   49MOL   H35235008   5.037   6.758   4.764  0.4396 -0.7606 -1.1845
   49MOL   H35335009   4.828   6.648   4.918  6.6952 -0.9472  1.9249
   49MOL   H35435010   4.788   6.702   4.756 -0.2272  0.9727  0.2188
   49MOL   H35535011   4.871   6.938   4.839 -1.1879 -1.4390 -1.0843
   49MOL   H35635012   4.896   6.870   4.996 -0.4738 -0.9683  1.4407
   49MOL   H35735013   4.633   6.850   4.859 -2.8143  2.4185  0.0564
   49MOL   H35835014   4.659   6.816   5.029 -0.3740 -0.5378 -0.0449
   49MOL   H35935015   4.739   7.038   5.063 -0.6795  2.7547 -0.2111
   49MOL   H36035016   5.188   6.593   5.067 -1.2861  0.9200  1.5625
   49MOL   H36135017   5.316   6.685   5.244 -2.7303  0.4466 -0.1334
   49MOL   C36235018   4.583   7.094   4.953 -0.0239 -0.9075 -0.2818
   49MOL   O36335019   4.490   7.064   4.877  0.3679 -0.7928 -0.3417
   49MOL   C36435020   4.602   7.234   5.000  0.2028  0.4384 -0.4704
   49MOL   C36535021   4.479   7.314   5.004 -0.6236  0.0042  0.2124
   49MOL   C36635022   4.488   7.454   5.018 -0.3102 -0.3074  0.1235
   49MOL   C36735023   4.616   7.514   5.034 -0.1808  0.0425  0.0421
   49MOL   C36835024   4.621   7.661   5.055  0.3175  0.0808 -0.2135
   49MOL   O36935025   4.691   7.718   5.139 -0.0910  0.2329  0.3135
   49MOL   N37035026   4.532   7.730   4.983 -0.0566  0.0384 -0.4961
   49MOL   C37135027   4.499   7.873   4.976 -0.2085 -0.0480  0.3343
   49MOL   C37235028   4.448   0.031   4.837  0.3699 -0.3829 -0.0008
   49MOL   C37335029   4.427   0.183   4.811  0.1805 -0.6077  0.5976
   49MOL   C37435030   4.357   0.206   4.674 -0.0800  0.2111  0.1346
   49MOL   C37535031   4.274   0.335   4.682  0.2783 -0.4771  0.2294
   49MOL   C37635032   4.210   0.368   4.550  0.0898  0.3124  0.1953
   49MOL   N37735033   4.128   0.491   4.544  0.3164 -0.4637 -0.2669
   49MOL   C37835034   4.731   7.431   5.039 -0.2982 -0.6515  0.9748
   49MOL   C37935035   4.732   7.291   5.013 -0.2113  0.1753  0.1633
   49MOL   H38035036   4.380   7.274   4.985 -0.2572  0.2446 -2.4698
   49MOL   H38135037   4.399   7.514   5.021  0.7882  1.3106  1.0061
   49MOL   H38235038   4.479   7.676   4.915 -0.4744  1.9128 -1.7051
   49MOL   H38335039   4.419   0.020   5.043 -0.5979  0.8126 -0.5370
   49MOL   H38435040   4.590   0.041   5.005  0.4200 -0.8509 -0.1235
   49MOL   H38535041   4.366   7.854   4.804 -0.9842  0.9158  0.8351
   49MOL   H38635042   4.528   7.883   4.771 -0.4507  0.7305 -1.6032
   49MOL   H38735043   4.348   0.217   4.879  0.3087  0.6291  0.1406
   49MOL   H38835044   4.514   0.244   4.834  0.2884  0.3830 -2.3449
   49MOL   H38935045   4.295   0.120   4.649 -2.3343  1.9206 -0.4236
   49MOL   H39035046   4.433   0.216   4.596  0.4781  0.6505  0.7364
   49MOL   H39135047   4.347   0.412   4.706  1.4269 -1.9054  1.4289
   49MOL   H39235048   4.195   0.334   4.757  0.4370  4.5890  0.6330
   49MOL   H39335049   4.282   0.392   4.472  0.4980 -2.4309 -0.3475
   49MOL   H39435050   4.149   0.288   4.508 -0.8420  0.1816  1.7593
   49MOL   H39535051   4.152   0.572   4.600 -0.7271  1.2680 -2.2577
   49MOL   H39635052   4.818   7.492   5.054 -0.1189 -0.8231  0.6406
   49MOL   H39735053   4.827   7.240   5.007 -0.2664 -0.1131  1.5676
   49MOL   C39835054   4.012   0.507   4.475 -0.6754  0.0434  0.7513
   49MOL   O39935055   3.960   0.419   4.410 -0.6418  0.4219 -0.2494
   49MOL   C40035056   3.955   0.648   4.486  0.1164  0.0528  0.4297
   49MOL   C40135057   3.838   0.671   4.407  0.4700  0.2260  0.3516
   49MOL   C40235058   3.775   0.794   4.403 -0.0018 -0.4472 -0.2617
   49MOL   C40335059   3.830   0.908   4.473 -0.1235  0.0813  0.4838
   49MOL   C40435060   3.750   1.038   4.469  1.0572  0.3314  0.0126
   49MOL   O40535061   3.647   1.046   4.396 -0.0758  0.4057  0.2977
   49MOL   N40635062   3.796   1.138   4.554  0.6821  0.5251 -0.4169
   49MOL   C40735063   3.736   1.278   4.541 -0.7886  0.1249  0.7173
   49MOL   C40835064   3.754   1.363   4.667  0.5088 -0.3193 -0.0313
   49MOL   C40935065   3.894   1.426   4.706 -0.2221  0.0432  0.0451
   49MOL   C41035066   4.000   1.316   4.741 -0.3796  0.1544  0.4328
   49MOL   C41135067   4.114   1.379   4.825  0.4716 -0.4797  0.8351
   49MOL   C41235068   4.189   1.268   4.905  0.0706 -0.1909 -0.3482
   49MOL   N41335069   4.233   1.153   4.823  0.3664 -0.9255  0.0352
   49MOL   C41435070   3.948   0.881   4.543  0.4556 -0.2724  0.0041
   49MOL   C41535071   4.006   0.753   4.563  0.3100  0.1166  0.1963
   49MOL   H41635072   3.793   0.589   4.353 -3.6761  2.4194  0.2771
   49MOL   H41735073   3.686   0.795   4.343 -1.1975  0.8728  1.4883
   49MOL   H41835074   3.891   1.126   4.586  0.2132 -0.5894  0.5930
   49MOL   H41935075   3.771   1.326   4.449 -1.0823 -3.7728 -1.5610
   49MOL   H42035076   3.630   1.265   4.521 -0.5884 -1.9473  0.8984
   49MOL   H42135077   3.724   1.308   4.756  2.2838 -0.3762  0.5606
   49MOL   H42235078   3.685   1.446   4.653  2.4712  1.5871  1.2158
   49MOL   H42335079   3.931   1.485   4.622 -2.3410  0.2347 -0.7779
   49MOL   H42435080   3.887   1.497   4.788  1.9315 -0.1790  0.4684
   49MOL   H42535081   4.030   1.267   4.648  0.2462 -1.8013  1.6451
   49MOL   H42635082   3.950   1.238   4.799  0.2798  0.2019  1.0713
   49MOL   H42735083   4.071   1.433   4.909  2.3139  0.5062  1.1765
   49MOL   H42835084   4.182   1.436   4.761 -0.4897 -1.4682 -1.1064
   49MOL   H42935085   4.269   1.323   4.955  0.8683 -1.8518  0.2322
   49MOL   H43035086   4.130   1.237   4.991 -3.1453  0.8057 -2.1174
   49MOL   H43135087   4.163   1.084   4.800  0.0978 -0.7534  0.3385
   49MOL   H43235088   3.989   0.959   4.604  0.1013 -0.1661  0.1054
   49MOL   H43335089   4.099   0.742   4.617  2.3616 -0.0051 -3.2458
   49MOL   C43435090   4.360   1.137   4.779  0.5534 -0.7371 -0.5365
   49MOL   O43535091   4.447   1.216   4.817 -0.3383 -0.1522 -0.1357
   49MOL   C43635092   4.394   1.010   4.707 -0.8430 -0.0273  0.7538
   49MOL   C43735093   4.302   0.957   4.617  0.5254 -0.0599 -0.5193
   49MOL   C43835094   4.333   0.840   4.549 -0.1069  0.9447 -0.1424
   49MOL   C43935095   4.456   0.775   4.572  0.4394 -0.0323  0.4422
   49MOL   C44035096   4.495   0.654   4.489 -0.1078  0.1517  0.9647
   49MOL   O44135097   4.434   0.620   4.388 -0.3903  0.2771 -0.1046
   49MOL   N44235098   4.591   0.575   4.537  0.1117 -0.7445 -0.3794
   49MOL   C44335099   4.612   0.438   4.487  0.0631 -0.8510 -0.7428
   49MOL   C44435100   4.719   0.363   4.561 -0.2272  0.6626 -0.1995
   49MOL   C44535101   4.735   0.228   4.506 -0.9007  0.3688 -0.0547
   49MOL   C44635102   4.822   0.133   4.591 -0.2839 -0.1841 -0.1876
   49MOL   C44735103   4.784   7.867   4.577  0.3995 -0.0311  0.2157
   49MOL   C44835104   4.826   7.784   4.698  0.5162 -0.2583  0.2046
   49MOL   N44935105   4.820   7.640   4.687  0.2555 -0.2172 -0.1777
   49MOL   C45035106   4.548   0.835   4.661 -0.5446 -0.2490  0.4144
   49MOL   C45135107   4.518   0.951   4.734 -0.4212  0.3003 -0.4988
   49MOL   H45235108   4.225   1.024   4.581  0.9925  2.9336  3.6685
   49MOL   H45335109   4.274   0.804   4.466  1.6000 -1.1930 -0.4618
   49MOL   H45435110   4.636   0.613   4.619 -0.3283  2.4831 -1.5560
   49MOL   H45535111   4.521   0.379   4.497 -2.1994  2.7706  1.4764
   49MOL   H45635112   4.635   0.448   4.381 -2.1436 -1.2364 -1.2751
   49MOL   H45735113   4.676   0.344   4.659 -2.3180 -0.7230 -1.3798
   49MOL   H45835114   4.811   0.422   4.569 -0.3180  0.8612 -0.6197
   49MOL   H45935115   4.641   0.173   4.498  0.5278 -2.3556  0.9380
   49MOL   H46035116   4.777   0.224   4.406  3.4916 -0.2000  1.7097
   49MOL   H46135117   4.808   0.154   4.697 -0.1999  1.9572 -0.5912
   49MOL   H46235118   4.927   0.153   4.568  0.4361 -2.6098  0.7858
   49MOL   H46335119   4.833   7.815   4.495  1.6851  0.1778  0.8387
   49MOL   H46435120   4.675   7.859   4.574  0.5295 -2.3650  0.4462
   49MOL   H46535121   4.926   7.821   4.721  0.1243  0.6996  0.3726
   49MOL   H46635122   4.759   7.815   4.778  2.8411  1.6898  1.4671
   49MOL   H46735123   4.903   7.586   4.670  1.1073  1.2680 -0.8688
   49MOL   H46835124   4.645   0.793   4.678 -0.4599  0.5226  1.8871
   49MOL   H46935125   4.589   0.988   4.806 -2.6991  2.1365  0.8368
   49MOL   C47035126   4.710   7.564   4.691 -0.1888 -0.1776  0.5748
   49MOL   O47135127   4.601   7.617   4.708  0.0570 -0.7716  0.0478
   49MOL   C47235128   4.726   7.414   4.667  0.3981 -0.5875 -0.3556
   49MOL   C47335129   4.626   7.333   4.614  0.1695  0.1643  0.0906
   49MOL   C47435130   4.647   7.194   4.589  0.7713  0.6874  0.0524
   49MOL   C47535131   4.772   7.139   4.605  0.9838 -0.0534 -0.0525
   49MOL   C47635132   4.802   7.006   4.560 -0.0545 -0.0998  0.8271
   49MOL   O47735133   4.733   6.911   4.596 -0.1462 -0.3092 -0.2822
   49MOL   N47835134   4.904   6.987   4.474 -0.0678 -0.4290 -0.2736
   49MOL   C47935135   4.913   6.878   4.372  0.2028  0.4344 -0.0293
   49MOL   C48035136   5.056   6.874   4.312  0.2031  0.3428  0.9491
   49MOL   C48135137   5.159   6.813   4.407  0.1483 -0.1402  0.0852
   49MOL   C48235138   5.209   6.922   4.513 -0.2836  0.7299 -0.9552
   49MOL   C48335139   5.342   6.864   4.574  0.4563  0.0973  0.0607
   49MOL   C48435140   5.471   6.873   4.489  0.5937 -0.1723 -0.1506
   49MOL   N48535141   5.569   6.784   4.542 -0.0646  0.4362  0.3761
   49MOL   C48635142   4.870   7.214   4.678  0.0298 -1.0835 -0.2578
   49MOL   C48735143   4.850   7.349   4.709 -0.2767 -0.3478  0.1291
   49MOL   H48835144   4.531   7.382   4.596 -0.0365 -1.2815 -3.0494
   49MOL   H48935145   4.571   7.129   4.547  0.4670  1.2349 -0.2490
   49MOL   H49035146   4.951   7.074   4.450  0.9749 -0.8336  0.2539
   49MOL   H49135147   4.897   6.781   4.419  0.1524  0.4732  0.0319
   49MOL   H49235148   4.828   6.905   4.308  0.1762  0.8584  0.1886
   49MOL   H49335149   5.075   6.977   4.279  0.4641  0.1229  0.4048
   49MOL   H49435150   5.050   6.814   4.221 -0.8006  0.5973  0.8346
   49MOL   H49535151   5.123   6.721   4.454 -2.3733  1.7185  1.9038
   49MOL   H49635152   5.246   6.791   4.346  1.0124  1.5841  0.6698
   49MOL   H49735153   5.134   6.926   4.591  2.6392  1.2290  1.9048
   49MOL   H49835154   5.233   7.021   4.475  2.4842 -0.5802 -2.8469
   49MOL   H49935155   5.317   6.763   4.608 -0.1938  0.9500  2.1333
   49MOL   H50035156   5.360   6.926   4.661 -1.6764  2.2300 -0.9438
   49MOL   H50135157   5.455   6.836   4.387  0.9461 -1.4245  0.2434
   49MOL   H50235158   5.493   6.979   4.475  0.9422 -0.2882 -0.5016
   49MOL   H50335159   5.527   6.715   4.602  0.4179 -0.4336 -0.2745
   49MOL   H50435160   4.969   7.175   4.698  0.8521  1.7484  1.4360
   49MOL   H50535161   4.931   7.402   4.757 -1.2399  0.0552  1.3231
   49MOL   C50635162   5.702   6.790   4.516  0.7177  0.1203  0.0822
   49MOL   O50735163   5.757   6.868   4.437  0.1909 -0.1609 -0.1128
   49MOL   C50835164   5.782   6.677   4.580  0.3245  0.4911  0.3540
   49MOL   C50935165   5.854   6.584   4.497  0.4603 -0.5908  0.0972
   49MOL   C51035166   5.952   6.510   4.561 -0.0233  0.2397  0.3049
   49MOL   C51135167   5.969   6.493   4.703  0.2647 -0.1690 -0.5209
   49MOL   C51235168   6.079   6.400   4.757  0.4850  0.5597 -0.8164
   49MOL   O51335169   6.138   6.426   4.857 -0.2071  0.0936 -0.7250
   49MOL   N51435170   6.100   6.285   4.686  0.2788  0.0425 -0.5443
   49MOL   C51535171   6.211   6.196   4.704  0.0622  0.5941  0.2989
   49MOL   C51635172   6.243   6.138   4.568 -0.6316  0.0251 -0.1720
   49MOL   C51735173   6.364   6.050   4.579  0.2191 -0.1579  0.4860
   49MOL   C51835174   6.408   5.991   4.443 -0.6086  0.2166 -0.0620
   49MOL   C51935175   6.412   6.087   4.321 -0.5252  0.1037 -0.1526
   49MOL   C52035176   6.281   6.104   4.239 -0.2006  0.1898 -0.1948
   49MOL   N52135177   6.294   6.205   4.139 -0.4614  0.1419 -0.0810
   49MOL   C52235178   5.880   6.574   4.779 -0.0002  0.2121 -0.1213
   49MOL   C52335179   5.793   6.668   4.719  0.5839  0.2881  0.3748
   49MOL   H52435180   5.843   6.585   4.389  2.9054  1.0085 -0.1613
   49MOL   H52535181   6.019   6.457   4.494  1.2858  0.1601  1.6394
   49MOL   H52635182   6.055   6.295   4.596 -0.4383  1.4617 -0.0392
   49MOL   H52735183   6.293   6.257   4.740 -0.1480  1.3580 -0.5084
   49MOL   H52835184   6.181   6.114   4.770  0.5650  0.1672  0.0063
   49MOL   H52935185   6.278   6.219   4.504  1.3424 -0.8689 -0.2705
   49MOL   H53035186   6.163   6.077   4.528 -0.8433  1.0868 -1.4101
   49MOL   H53135187   6.450   6.104   4.620  0.3198  1.1670 -1.4225
   49MOL   H53235188   6.338   5.972   4.650  0.5763 -1.6517 -0.9945
   49MOL   H53335189   6.346   5.906   4.417  0.4193 -1.5630  2.9218
   49MOL   H53435190   6.505   5.944   4.462 -0.1342  0.6756 -1.2905
   49MOL   H53535191   6.495   6.063   4.254  0.5780  2.7409  0.2134
   49MOL   H53635192   6.425   6.182   4.372  4.1977 -1.0960  1.1132
   49MOL   H53735193   6.246   6.013   4.190 -0.7087 -1.1253  2.5307
   49MOL   H53835194   6.199   6.136   4.305 -1.5017 -0.6425 -1.3833
   49MOL   H53935195   6.280   6.300   4.171 -0.2379 -0.0362  0.5334
   49MOL   H54035196   5.886   6.573   4.887  1.8385  0.8708 -0.2023
   49MOL   H54135197   5.746   6.735   4.789 -2.9298 -1.0819 -0.5648
   49MOL   C54235198   6.318   6.171   4.006  0.2226  0.0079 -0.1988
   49MOL   O54335199   6.342   6.056   3.966 -0.0136 -0.7600  0.5062
   49MOL   C54435200   6.304   6.283   3.902  0.6576 -0.2973  0.4778
   49MOL   C54535201   6.267   6.255   3.774  0.0711  0.4062  0.0085
   49MOL   C54635202   6.267   6.360   3.673 -0.5852  0.4389  0.3124
   49MOL   C54735203   6.291   6.495   3.714  0.0492 -0.1023  0.3198
   49MOL   C54835204   6.287   6.613   3.621 -0.0744 -0.0829  0.4848
   49MOL   O54935205   6.367   6.704   3.632 -0.4623  0.1418 -0.6597
   49MOL   N55035206   6.199   6.611   3.520 -0.1768 -0.6968  0.7847
   49MOL   C55135207   6.200   6.706   3.402  0.1889  0.1221  0.3529
   49MOL   C55235208   6.127   6.829   3.454  0.3884  0.1997  0.2069
   49MOL   C55335209   6.094   6.934   3.342  0.1956 -0.0977  0.2275
   49MOL   C55435210   5.993   7.041   3.381 -0.1693 -0.0009  0.2350
   49MOL   C55535211   5.978   7.100   3.514  0.6451  1.1098 -0.9180
   49MOL   C55635212   5.887   7.220   3.522 -0.3612 -0.2107 -0.4940
   49MOL   N55735213   5.856   7.251   3.663 -0.3306  0.3266 -0.1628
   49MOL   C55835214   6.331   6.516   3.845 -0.2237  0.8743 -0.3209
   49MOL   C55935215   6.343   6.415   3.937  0.1707  0.2074 -0.3152
   49MOL   H56035216   6.243   6.155   3.739  0.0962 -0.1338  1.5244
   49MOL   H56135217   6.247   6.341   3.569  1.5452  0.3015 -0.0950
   49MOL   H56235218   6.143   6.528   3.507  1.3431 -1.2410 -3.0159
   49MOL   H56335219   6.303   6.733   3.378 -0.0970  1.5024  0.6458
   49MOL   H56435220   6.153   6.644   3.326  0.7010  2.1049 -1.6401
   49MOL   H56535221   6.185   6.876   3.533  0.9376  0.9113 -0.6084
   49MOL   H56635222   6.033   6.788   3.491  1.1548 -0.3610  1.5386
   49MOL   H56735223   6.187   6.988   3.325  0.1509 -0.2686 -0.5686
   49MOL   H56835224   6.060   6.888   3.249  1.5358 -0.8877  0.1183
   49MOL   H56935225   5.896   7.001   3.354 -0.3493 -0.6141  1.7470
   49MOL   H57035226   6.002   7.121   3.308 -1.9766  0.9822  1.0584
   49MOL   H57135227   6.075   7.134   3.551 -1.5080  2.2495  3.9193
   49MOL   H57235228   5.934   7.036   3.590 -0.0124  0.0268 -2.1688
   49MOL   H57335229   5.931   7.308   3.474 -0.0341  0.0742  0.3189
   49MOL   H57435230   5.787   7.209   3.481 -0.4790 -0.9223 -0.0197
   49MOL   H57535231   5.765   7.221   3.696  0.4108 -1.1809  0.5364
   49MOL   H57635232   6.353   6.615   3.882  0.3868  0.8687 -0.6761
   49MOL   H57735233   6.380   6.446   4.034  1.0676  1.2161 -0.9609
   49MOL   C57835234   5.935   7.308   3.756  0.3885  0.2203 -0.2496
   49MOL   O57935235   6.057   7.324   3.729  0.0566 -0.2051 -0.8918
   49MOL   C58035236   5.882   7.346   3.890 -0.0491  0.4542 -0.7759
   49MOL   C58135237   5.743   7.334   3.913 -0.0379  0.1948  0.0331
   49MOL   C58235238   5.697   7.350   4.045 -0.0295 -0.3617 -0.0160
   49MOL   C58335239   5.786   7.372   4.150 -0.3066 -0.1593 -0.4888
   49MOL   C58435240   5.736   7.386   4.293 -0.0353  0.1890 -0.0026
   49MOL   O58535241   5.611   7.373   4.321 -0.6166 -0.4368  0.3478
   49MOL   N58635242   5.830   7.407   4.385  0.1890 -0.1314 -0.6110
   49MOL   C58735243   5.821   7.406   4.528  0.6928 -0.8822 -0.0005
   49MOL   C58835244   5.751   7.540   4.567 -0.4954 -0.3595  0.4335
   49MOL   C58935245   5.722   7.564   4.717  0.3883 -0.0554  0.0709
   49MOL   C59035246   5.854   7.583   4.796 -0.5328  0.0576  0.4374
   49MOL   C59135247   5.823   7.595   4.953  0.3290 -0.1589 -0.2385
   49MOL   C59235248   5.958   7.615   5.025  0.0374  0.2929  0.6905
   49MOL   N59335249   6.046   7.502   4.996 -0.0827  0.0368 -0.0271
   49MOL   C59435250   5.920   7.386   4.122  0.9196 -0.1215 -0.1000
   49MOL   C59535251   5.970   7.377   3.997  0.2363 -0.8465 -0.0644
   49MOL   H59635252   5.667   7.301   3.844  1.3690  0.8435 -1.8336
   49MOL   H59735253   5.590   7.342   4.060  0.2654 -1.5720  1.6162
   49MOL   H59835254   5.922   7.411   4.344  0.3146 -0.6622 -0.3885
   49MOL   H59935255   5.765   7.317   4.558 -1.3543  0.2438 -0.4110
   49MOL   H60035256   5.917   7.404   4.578  0.6985 -0.8991 -0.0137
   49MOL   H60135257   5.662   7.553   4.504  1.1061  0.9239 -1.6279
   49MOL   H60235258   5.820   7.610   4.521 -1.3109 -0.2329 -0.6310
   49MOL   H60335259   5.651   7.646   4.726 -0.3401 -0.7358  0.5048
   49MOL   H60435260   5.678   7.477   4.765 -2.2613  0.1696 -1.8512
   49MOL   H60535261   5.915   7.667   4.764  1.6230 -1.8887 -0.7428
   49MOL   H60635262   5.923   7.501   4.777  1.0441  1.1220  1.4518
   49MOL   H60735263   5.761   7.510   4.982  2.4672 -0.7760  2.8027
   49MOL   H60835264   5.768   7.688   4.970  1.2857  0.3933 -0.0888
   49MOL   H60935265   6.005   7.707   4.991 -2.2534  0.3806 -2.5617
   49MOL   H61035266   5.928   7.618   5.129 -1.6389  0.7664  0.2128
   49MOL   H61135267   6.141   7.529   4.972 -0.3575  2.6308  1.5901
   49MOL   H61235268   5.989   7.399   4.204  1.4166  0.5962 -0.6326
   49MOL   H61335269   6.077   7.378   3.982  0.0022  1.3849 -2.1250
   49MOL   C61435270   6.029   7.382   5.046 -0.7279 -0.0173  0.3862
   49MOL   O61535271   5.935   7.342   5.110 -0.2677  0.1966  0.2768
   49MOL   C61635272   6.148   7.291   5.042  0.2268 -0.4104 -0.5285
   49MOL   C61735273   6.128   7.154   5.068 -0.5265 -0.2197 -0.1688
   49MOL   C61835274   6.229   7.059   5.058 -0.1823  0.0581  1.1165
   49MOL   C61935275   6.358   7.099   5.013  0.3044  0.0273  1.4034
   49MOL   C62035276   6.473   7.004   5.002 -0.0164  0.5512  0.0507
   49MOL   O62135277   6.570   7.030   4.927  0.4593  0.0033  0.0020
   49MOL   N62235278   6.467   6.884   5.060  0.4847  0.0146 -0.2343
   49MOL   C62335279   6.563   6.779   5.042  0.2431 -0.2357 -0.2333
   49MOL   C62435280   6.516   6.676   4.933  0.2260 -0.3061 -0.3443
   49MOL   C62535281   6.450   6.737   4.806 -0.1496 -0.5603 -1.0776
   49MOL   C62635282   6.403   6.630   4.710 -0.2525  0.3660  0.2048
   49MOL   C62735283   6.320   6.696   4.597 -0.4841  0.0106  0.2291
   49MOL   C62835284   6.279   6.597   4.477  0.5705  0.6062 -0.7860
   49MOL   N62935285   6.188   6.650   4.378 -0.4630  0.2945  0.2834
   49MOL   C63035286   6.381   7.234   4.983 -0.0060 -0.2767 -0.2236
   49MOL   C63135287   6.282   7.331   5.004 -0.5764  0.4501 -0.1133
   49MOL   H63235288   6.032   7.128   5.110  0.0032 -1.0407  0.5448
   49MOL   H63335289   6.205   6.955   5.078 -2.5573  0.4711  0.5412
   49MOL   H63435290   6.379   6.874   5.109 -1.2825  3.5683 -2.4464
   49MOL   H63535291   6.662   6.817   5.018 -0.5787  1.3848 -1.1218
   49MOL   H63635292   6.577   6.723   5.135 -0.1711  2.4208  1.4788
   49MOL   H63735293   6.447   6.609   4.984  2.0423 -1.4237  0.6997
   49MOL   H63835294   6.600   6.610   4.911 -1.1101 -1.8421 -0.9204
   49MOL   H63935295   6.360   6.788   4.843  0.8125  0.1521  0.3230
   49MOL   H64035296   6.519   6.812   4.769  1.5279 -0.6433  1.7730
   49MOL   H64135297   6.341   6.551   4.752  0.3404 -0.0715  0.2621
   49MOL   H64235298   6.489   6.574   4.672 -0.9018 -0.6470  0.1981
   49MOL   H64335299   6.376   6.781   4.557 -1.7267  0.9892  0.5368
   49MOL   H64435300   6.235   6.744   4.646 -1.1318 -1.4416  0.5582
   49MOL   H64535301   6.366   6.555   4.426 -0.1202  0.0999 -1.5503
   49MOL   H64635302   6.234   6.504   4.510  0.9552 -0.3347 -2.8906
   49MOL   H64735303   6.130   6.731   4.394  0.0386  1.1165 -1.8933
   49MOL   H64835304   6.478   7.275   4.959 -0.3917 -0.1941 -1.7042
   49MOL   H64935305   6.306   7.436   4.998 -2.3008  0.8658  0.1943
   49MOL   C65035306   6.163   6.585   4.263  0.4939 -0.4369 -0.1281
   49MOL   O65135307   6.209   6.474   4.227 -0.5024  0.2231 -0.1372
   49MOL   C65235308   6.071   6.664   4.175  0.2729 -0.4591 -1.1621
   49MOL   C65335309   6.064   6.626   4.040  0.2872  0.7931 -0.3690
   49MOL   C65435310   5.992   6.697   3.945 -0.3512  0.2632  0.1038
   49MOL   C65535311   5.922   6.812   3.985 -0.2655  0.5983  0.2547
   49MOL   C65635312   5.842   6.884   3.887 -0.4575 -0.4558  0.5471
   49MOL   O65735313   5.882   6.887   3.767 -0.0252 -0.0687  0.4246
   49MOL   N65835314   5.723   6.931   3.931  0.2574  0.5236 -0.6916
   49MOL   C65935315   5.612   6.982   3.859  0.1828 -0.1188 -0.2452
   49MOL   C66035316   5.478   6.906   3.895  0.1156 -0.2293  0.2175
   49MOL   C66135317   5.449   6.883   4.045  0.6238 -0.5088 -0.0913
   49MOL   C66235318   5.430   7.011   4.131  0.1346 -0.4583  0.3718
   49MOL   C66335319   5.300   7.088   4.109 -0.1355  0.1105  0.1176
   49MOL   C66435320   5.283   7.203   4.210 -0.1498  0.2649  0.7150
   49MOL   N66535321   5.173   7.291   4.179  0.3331 -0.1591 -0.5172
   49MOL   C66635322   5.925   6.851   4.121 -0.3358  0.3556  0.2356
   49MOL   C66735323   5.997   6.780   4.213  0.2761 -0.4488  0.4152
   49MOL   H66835324   6.114   6.538   4.001 -0.7534  0.2721 -0.5443
   49MOL   H66935325   5.993   6.671   3.841 -1.0985 -1.1553  0.4438
   49MOL   H67035326   5.709   6.907   4.028 -0.4204 -0.1767 -0.9655
   49MOL   H67135327   5.608   7.087   3.888 -1.8488 -0.3501  0.4133
   49MOL   H67235328   5.637   6.973   3.753  1.1562  1.4785 -0.1650
   49MOL   H67335329   5.476   6.814   3.837 -1.4912  0.3395 -0.6635
   49MOL   H67435330   5.394   6.959   3.850 -0.6258 -1.8869 -0.3758
   49MOL   H67535331   5.356   6.827   4.049 -0.7526  1.8143  1.3511
   49MOL   H67635332   5.522   6.813   4.085  0.6424 -1.0592 -1.0851
   49MOL   H67735333   5.509   7.081   4.106 -1.5217  1.0088 -0.8376
   49MOL   H67835334   5.444   6.976   4.234 -0.9502 -1.3452  0.2278
   49MOL   H67935335   5.216   7.022   4.126  0.2038  0.2880  2.6757
   49MOL   H68035336   5.294   7.114   4.004  0.5734 -1.4583 -0.3200
   49MOL   H68135337   5.272   7.156   4.308  2.3264 -1.0878  0.3828
   49MOL   H68235338   5.385   7.243   4.208  0.0541 -0.2903 -2.0445
   49MOL   H68335339   5.196   7.354   4.103  2.6611  1.0637  1.1187
   49MOL   H68435340   5.873   6.942   4.148 -1.3565  0.4950 -2.0540
   49MOL   H68535341   6.004   6.817   4.315  0.1810  1.0521 -0.1124
   49MOL   C68635342   5.072   7.307   4.264  0.3730 -0.4982  0.1227
   49MOL   O68735343   5.050   7.229   4.357 -0.1997  0.1867 -0.5600
   49MOL   C68835344   4.998   7.439   4.247  0.0085  1.1002 -0.2359
   49MOL   C68935345   4.907   7.479   4.348  0.3103 -0.1399 -0.0216
   49MOL   C69035346   4.819   7.591   4.326 -0.6813  0.6730  0.4828
   49MOL   C69135347   4.838   7.680   4.210  0.2405 -0.3490  0.4366
   49MOL   C69235348   4.756   7.803   4.205 -0.4427 -0.1990 -0.2561
   49MOL   O69335349   4.797   0.017   4.145  0.0648 -0.8378  0.3302
   49MOL   N69435350   4.631   7.795   4.250  0.4010  0.0967 -0.1131
   49MOL   C69535351   4.536   0.013   4.233 -0.4600 -0.4730  0.1866
   49MOL   C69635352   4.412   7.873   4.323  0.3181  0.7785  0.9474
   49MOL   C69735353   4.295   0.092   4.309 -0.3090 -0.8797  0.3261
   49MOL   C69835354   4.165   0.028   4.361  0.3416  0.6058 -0.0838
   49MOL   C69935355   4.043   0.112   4.339  0.1428  0.9727 -0.1618
   49MOL   C70035356   3.927   0.081   4.430  0.6675 -0.1585 -0.4923
   49MOL   N70135357   3.895   7.831   4.403 -0.2789  0.5775  0.7526
   49MOL   C70235358   4.936   7.640   4.113  0.0136 -0.0085  0.2680
   49MOL   C70335359   5.009   7.519   4.126  0.6854  1.0000  0.6765
   49MOL   H70435360   4.893   7.418   4.436  4.1394 -0.6840  0.2916
   49MOL   H70535361   4.746   7.624   4.399 -0.3755  2.7441 -0.1238
   49MOL   H70635362   4.606   7.717   4.309  1.0055 -0.1447 -0.1787
   49MOL   H70735363   4.584   0.108   4.256  0.2294 -0.4735 -1.1640
   49MOL   H70835364   4.510   0.004   4.127  3.0532  0.5513 -0.8454
   49MOL   H70935365   4.435   7.858   4.428 -0.3398  0.3138  1.0308
   49MOL   H71035366   4.377   7.772   4.299 -0.0102  0.3689  3.0179
   49MOL   H71135367   4.315   0.187   4.360 -3.3059 -0.2093  0.3758
   49MOL   H71235368   4.289   0.117   4.203 -1.3522 -0.2205  0.5285
   49MOL   H71335369   4.171   0.004   4.467 -2.3964 -1.9091 -0.4339
   49MOL   H71435370   4.156   7.814   4.319  0.8677  1.1386 -1.4947
   49MOL   H71535371   4.011   0.087   4.238 -1.5397 -1.4130  0.9170
   49MOL   H71635372   4.059   0.220   4.337  1.2714  0.8197  0.7050
   49MOL   H71735373   3.948   0.097   4.536 -1.0443  0.5178 -0.2366
   49MOL   H71835374   3.842   0.144   4.406 -0.7799 -2.4467 -1.6002
   49MOL   H71935375   3.908   7.817   4.304 -0.6643  0.1581  0.7568
   49MOL   H72035376   4.951   7.708   4.030 -0.2345 -0.6843 -0.3338
   49MOL   H72135377   5.069   7.480   4.045 -2.4238  0.9305 -1.7291
   49MOL   H72235378   3.794   7.823   4.403 -0.2223 -0.7030 -1.3607
   50MOL     C135379   3.959   0.900   4.070  0.1197 -0.6900 -0.3467
   50MOL     O235380   4.030   0.844   3.992  0.7173  0.8780  0.3038
   50MOL     C335381   4.023   1.006   4.150 -0.5499 -0.1773  0.5781
   50MOL     C435382   3.943   1.112   4.193 -0.2493  0.0062 -0.3115
   50MOL     C535383   4.004   1.211   4.270  0.0545 -0.6305 -0.3920
   50MOL     C635384   4.142   1.210   4.293  0.0794  0.6014  0.5300
   50MOL     C735385   4.208   1.332   4.362 -0.2517  0.6229  0.3298
   50MOL     O835386   4.139   1.421   4.410  0.0631 -0.1445  0.7286
   50MOL     N935387   4.339   1.341   4.352 -0.0469  0.2414  0.0744
   50MOL    C1035388   4.412   1.454   4.405  0.2935 -0.5492  0.3382
   50MOL    C1135389   4.521   1.403   4.493 -0.1250  0.0999  0.0306
   50MOL    C1235390   4.623   1.514   4.536 -0.4854  0.6344  0.0540
   50MOL    C1335391   4.716   1.465   4.648 -0.1909  0.2427  0.0462
   50MOL    C1435392   4.802   1.341   4.607  0.3903  0.5572  0.0081
   50MOL    C1535393   4.898   1.303   4.715  0.2407 -0.2774 -0.2243
   50MOL    N1635394   4.830   1.294   4.848 -0.5162 -0.3491  0.1419
   50MOL    C1735395   4.217   1.101   4.260 -0.0441 -0.0145 -0.4964
   50MOL    C1835396   4.159   0.999   4.187 -0.3109  0.0758 -0.5159
   50MOL    H1935397   3.837   1.113   4.170 -0.5706 -1.8156  1.0026
   50MOL    H2035398   3.955   1.297   4.313  0.2145 -0.7545  0.0416
   50MOL    H2135399   4.383   1.285   4.281  0.4782  2.2042 -1.1892
   50MOL    H2235400   4.445   1.521   4.325  1.0320  0.0877  1.1658
   50MOL    H2335401   4.353   1.526   4.463 -1.8876  0.0628 -2.5003
   50MOL    H2435402   4.566   1.312   4.454  0.2462 -0.2420  1.2518
   50MOL    H2535403   4.473   1.372   4.586 -3.2875  1.9718 -0.9009
   50MOL    H2635404   4.690   1.538   4.453  0.8048 -3.1092 -0.0712
   50MOL    H2735405   4.578   1.609   4.562 -0.3548  0.8151 -0.3696
   50MOL    H2835406   4.655   1.450   4.737  0.3986 -1.4426  0.1756
   50MOL    H2935407   4.789   1.540   4.679  0.9329 -1.3938  1.4495
   50MOL    H3035408   4.845   1.346   4.507 -1.7610 -2.4986 -1.1510
   50MOL    H3135409   4.733   1.258   4.587  1.7567 -1.2166  2.4286
   50MOL    H3235410   4.952   1.209   4.701 -1.0317 -0.9038 -1.0084
   50MOL    H3335411   4.970   1.383   4.728  0.4949 -0.4748 -0.3985
   50MOL    H3435412   4.733   1.266   4.842 -0.2975 -0.8739 -1.1463
   50MOL    H3535413   4.323   1.099   4.280 -0.4700  0.4089  1.9704
   50MOL    H3635414   4.217   0.911   4.160  0.3595  0.9093 -1.8529
   50MOL    H3735415   3.856   0.872   4.093  1.0023 -2.4639  1.6713
   50MOL    C3835416   4.893   1.308   4.963  0.4857  0.1995  0.4297
   50MOL    O3935417   5.011   1.331   4.980  0.2987 -0.1571 -0.0368
   50MOL    C4035418   4.806   1.276   5.079 -0.0564  0.3558  0.1847
   50MOL    C4135419   4.662   1.289   5.081 -0.4806 -0.3073 -0.2690
   50MOL    C4235420   4.587   1.270   5.194  0.0529 -0.0955  0.1983
   50MOL    C4335421   4.647   1.239   5.319 -0.4552 -0.2571  0.4855
   50MOL    C4435422   4.562   1.225   5.446 -0.5311 -0.5015  0.3120
   50MOL    O4535423   4.439   1.227   5.445  0.3084 -0.0073  0.1232
   50MOL    N4635424   4.637   1.209   5.557 -0.3004  0.1230  0.7254
   50MOL    C4735425   4.573   1.166   5.680 -0.2807  0.0492  0.0146
   50MOL    C4835426   4.679   1.156   5.792  0.2963  0.3052 -0.1713
   50MOL    C4935427   4.799   1.061   5.755  0.3726 -0.2945 -0.9644
   50MOL    C5035428   4.877   1.008   5.878 -0.2761 -0.4175  0.3577
   50MOL    C5135429   5.013   0.938   5.845 -0.5914  0.1381 -0.2086
   50MOL    C5235430   4.990   0.793   5.801 -0.5758 -0.5803 -0.1721
   50MOL    N5335431   5.109   0.710   5.776 -0.1910 -0.1974 -0.0252
   50MOL    C5435432   4.788   1.219   5.316  0.2156  0.8481  0.3485
   50MOL    C5535433   4.862   1.235   5.199 -0.6093 -0.1957 -0.0804
   50MOL    H5635434   4.619   1.328   4.990 -0.3834  1.3939  0.3905
   50MOL    H5735435   4.481   1.288   5.203  0.2322  0.6441  0.8820
   50MOL    H5835436   4.730   1.247   5.554  0.1767 -0.9214  1.7535
   50MOL    H5935437   4.495   1.238   5.702  1.3769  2.0715 -0.5062
   50MOL    H6035438   4.513   1.075   5.680  0.7606 -0.6507 -0.4740
   50MOL    H6135439   4.635   1.118   5.884  0.2503 -1.8243 -1.0313
   50MOL    H6235440   4.722   1.254   5.813  0.1934  0.0247  1.4010
   50MOL    H6335441   4.754   0.980   5.697 -0.0048  0.3468 -1.5814
   50MOL    H6435442   4.872   1.118   5.699  0.1075 -0.1497 -1.1671
   50MOL    H6535443   4.813   0.940   5.934 -2.5019  0.9055 -0.5183
   50MOL    H6635444   4.914   1.090   5.940  1.9876 -1.9507  1.0673
   50MOL    H6735445   5.078   0.941   5.932 -1.6020 -0.7419  0.5947
   50MOL    H6835446   5.072   0.994   5.773  1.3725 -0.8179  0.6286
   50MOL    H6935447   4.927   0.743   5.875 -0.6411  0.7589  0.7033
   50MOL    H7035448   4.930   0.794   5.709 -1.2152 -1.5542  0.2283
   50MOL    H7135449   5.194   0.762   5.760 -0.8828  0.5070 -1.6080
   50MOL    H7235450   4.843   1.181   5.401  1.4533  0.4005 -0.6391
   50MOL    H7335451   4.969   1.216   5.201 -0.1891  2.0517  1.3721
   50MOL    C7435452   5.109   0.584   5.736 -0.6547  0.6614  0.2667
   50MOL    O7535453   5.008   0.518   5.732  0.0090 -0.3755  0.1285
   50MOL    C7635454   5.240   0.514   5.694  0.4833  0.0878 -1.1996
   50MOL    C7735455   5.252   0.374   5.704 -0.1571 -0.5548  0.1773
   50MOL    C7835456   5.371   0.309   5.663  0.1592 -0.6147 -0.2909
   50MOL    C7935457   5.469   0.380   5.589 -0.2660  0.3343 -0.4719
   50MOL    C8035458   5.591   0.315   5.528  0.3881 -0.3971  1.0632
   50MOL    O8135459   5.588   0.199   5.488 -0.0720 -0.7589  0.1075
   50MOL    N8235460   5.707   0.381   5.531  0.2436 -0.2493 -0.5095
   50MOL    C8335461   5.834   0.333   5.472 -0.0680  0.5249  0.6917
   50MOL    C8435462   5.826   0.346   5.320  0.6856  0.4919 -0.0687
   50MOL    C8535463   5.955   0.363   5.249 -0.5922 -0.2932 -0.3240
   50MOL    C8635464   5.957   0.325   5.102  0.1353 -0.0770  0.2480
   50MOL    C8735465   6.053   0.425   5.026  0.1384  0.0366  0.3369
   50MOL    C8835466   6.062   0.401   4.878 -0.6890 -0.1956 -0.0034
   50MOL    N8935467   6.158   0.495   4.819 -0.4339  0.3553  0.2795
   50MOL    C9035468   5.462   0.521   5.587  0.1090 -0.7229  0.6911
   50MOL    C9135469   5.349   0.593   5.640 -0.3346  0.5259 -0.1104
   50MOL    H9235470   5.170   0.320   5.749 -0.5290 -0.1652 -0.0305
   50MOL    H9335471   5.376   0.202   5.676  0.4095 -0.7065 -1.1166
   50MOL    H9435472   5.708   0.477   5.561 -0.9949 -1.1854  2.7124
   50MOL    H9535473   5.918   0.396   5.504  0.0328  0.1218  1.2156
   50MOL    H9635474   5.842   0.231   5.509 -1.0714  0.5242  0.9003
   50MOL    H9735475   5.763   0.429   5.289 -0.5583 -1.0361 -1.7638
   50MOL    H9835476   5.784   0.250   5.287 -1.5401  0.9052  1.4175
   50MOL    H9935477   6.001   0.461   5.258  0.2200 -0.5769 -1.1909
   50MOL   H10035478   6.018   0.291   5.302  0.7358  1.0037 -0.1190
   50MOL   H10135479   5.859   0.342   5.058 -0.0189  0.5366  0.8133
   50MOL   H10235480   5.985   0.220   5.094 -0.3251 -0.0709 -1.8397
   50MOL   H10335481   6.150   0.405   5.071  0.5167 -1.8878 -1.2251
   50MOL   H10435482   6.026   0.528   5.047  0.6994  0.4173 -0.7548
   50MOL   H10535483   6.086   0.296   4.858 -0.1758  0.2329 -1.7381
   50MOL   H10635484   5.964   0.416   4.832 -0.1462 -0.7117 -1.3869
   50MOL   H10735485   6.117   0.585   4.801  1.0011  0.9523 -0.0810
   50MOL   H10835486   5.542   0.570   5.534 -0.9562 -1.4615 -1.6682
   50MOL   H10935487   5.351   0.701   5.633  0.3800  0.5149 -0.1214
   50MOL   C11035488   6.288   0.496   4.819 -0.4833 -0.4662  0.0374
   50MOL   O11135489   6.358   0.424   4.882  0.2844  0.0680 -0.2162
   50MOL   C11235490   6.354   0.602   4.733  0.0011  0.1452 -0.0913
   50MOL   C11335491   6.302   0.637   4.610  0.3065 -0.3690 -0.8115
   50MOL   C11435492   6.362   0.737   4.530  0.6031  0.0821  0.3256
   50MOL   C11535493   6.480   0.803   4.574 -1.0662  0.1030 -0.2027
   50MOL   C11635494   6.545   0.908   4.486 -0.4240  0.4916 -0.0729
   50MOL   O11735495   6.666   0.898   4.473  0.1572  0.0255 -0.5884
   50MOL   N11835496   6.479   1.011   4.448  0.0163  0.3048  0.3414
   50MOL   C11935497   6.536   1.134   4.390  0.1190 -0.6587  0.6991
   50MOL   C12035498   6.447   1.254   4.413  0.1690 -0.6279 -0.4992
   50MOL   C12135499   6.288   1.236   4.395  0.0616  0.5988  0.0092
   50MOL   C12235500   6.229   1.371   4.356 -0.7647 -0.5528  0.3513
   50MOL   C12335501   6.079   1.363   4.330  0.2790  0.9271  0.0305
   50MOL   C12435502   6.045   1.267   4.213  0.0414 -0.2972  0.2137
   50MOL   N12535503   6.100   1.306   4.087 -0.2354 -0.6297 -0.0681
   50MOL   C12635504   6.542   0.757   4.694  0.4239  0.1323 -0.5062
   50MOL   C12735505   6.480   0.652   4.767  0.8857  0.0238  0.7679
   50MOL   H12835506   6.214   0.589   4.570 -0.3197  0.6058 -0.6201
   50MOL   H12935507   6.314   0.761   4.437  3.1507  1.5084 -0.6986
   50MOL   H13035508   6.378   1.005   4.453 -0.2236  2.8062 -0.6658
   50MOL   H13135509   6.631   1.144   4.443 -0.9583  0.8543  2.4417
   50MOL   H13235510   6.539   1.115   4.283  3.8019 -1.4741  0.8577
   50MOL   H13335511   6.482   1.339   4.355  2.6892  0.2724  2.1958
   50MOL   H13435512   6.465   1.280   4.518  2.4187  1.0568 -1.2517
   50MOL   H13535513   6.274   1.167   4.312 -1.3594  1.2954 -0.3522
   50MOL   H13635514   6.234   1.177   4.469 -0.2434 -0.1687 -0.8097
   50MOL   H13735515   6.287   1.403   4.270 -0.5938 -0.1130  0.6237
   50MOL   H13835516   6.248   1.448   4.432  2.8794 -1.7300  0.7293
   50MOL   H13935517   6.058   1.467   4.304  1.2981  1.6039  1.7846
   50MOL   H14035518   6.025   1.361   4.425  1.4113 -0.9206  0.6480
   50MOL   H14135519   6.069   1.163   4.234 -0.4369 -0.1229  1.7316
   50MOL   H14235520   5.937   1.270   4.197  0.2510  1.0572 -0.9871
   50MOL   H14335521   6.072   1.399   4.061 -0.9728 -0.8251  0.0091
   50MOL   H14435522   6.633   0.796   4.736  0.8290 -0.3356 -0.9435
   50MOL   H14535523   6.540   0.623   4.852  2.1084  0.4900  0.0714
   50MOL   C14635524   6.173   1.227   4.010  0.4001 -0.5824  0.8437
   50MOL   O14735525   6.172   1.101   4.028  0.5061  0.4139 -0.2917
   50MOL   C14835526   6.216   1.288   3.878 -1.4115  0.1057 -0.5564
   50MOL   C14935527   6.274   1.418   3.880 -0.3039 -0.1270 -0.2159
   50MOL   C15035528   6.327   1.480   3.759  0.1132  0.0273  0.5475
   50MOL   C15135529   6.311   1.415   3.631 -0.4256 -0.0410 -0.3358
   50MOL   C15235530   6.361   1.475   3.502 -0.1212 -0.3691 -0.2218
   50MOL   O15335531   6.458   1.552   3.501  0.2354  0.1174  1.0736
   50MOL   N15435532   6.302   1.430   3.388  0.2627  0.1045 -0.0492
   50MOL   C15535533   6.355   1.472   3.254 -0.0762  0.3172  0.4676
   50MOL   C15635534   6.344   1.358   3.154  0.2725 -0.7650 -0.2287
   50MOL   C15735535   6.412   1.223   3.194 -0.4678  0.4793  0.1754
   50MOL   C15835536   6.397   1.126   3.073  0.0883  0.3103  0.5388
   50MOL   C15935537   6.432   0.975   3.098  0.2620 -0.0191 -0.5924
   50MOL   C16035538   6.575   0.961   3.132  0.2184 -0.1137  0.2498
   50MOL   N16135539   6.672   1.011   3.035  0.0980 -0.2054  0.4838
   50MOL   C16235540   6.246   1.290   3.634 -0.5006  0.2024 -0.0607
   50MOL   C16335541   6.198   1.227   3.755  0.1329  0.2345  0.0017
   50MOL   H16435542   6.284   1.469   3.975 -0.4046 -0.6235  0.0664
   50MOL   H16535543   6.385   1.571   3.768 -0.2140 -0.0587  4.9742
   50MOL   H16635544   6.212   1.384   3.394  1.1172 -1.3213  2.1335
   50MOL   H16735545   6.294   1.554   3.216 -0.0125  0.6116  0.9995
   50MOL   H16835546   6.459   1.507   3.259 -0.0731  0.4104 -0.1671
   50MOL   H16935547   6.383   1.378   3.055 -2.6991 -0.3755 -1.3547
   50MOL   H17035548   6.240   1.337   3.129  0.6805  0.6866 -3.2802
   50MOL   H17135549   6.518   1.232   3.215 -0.1771 -0.8056 -0.7050
   50MOL   H17235550   6.379   1.173   3.285 -1.5709  1.0955  0.1263
   50MOL   H17335551   6.443   1.173   2.986  0.4005 -1.0143 -0.0268
   50MOL   H17435552   6.292   1.128   3.042  0.6917  3.9568 -1.5379
   50MOL   H17535553   6.417   0.910   3.013  1.1321 -0.7544 -0.2016
   50MOL   H17635554   6.376   0.935   3.183  1.0798  0.4935  0.2097
   50MOL   H17735555   6.585   1.022   3.221  0.3597  0.0839  0.0997
   50MOL   H17835556   6.597   0.857   3.155 -0.1476 -0.5947 -1.4980
   50MOL   H17935557   6.680   1.111   3.026 -2.1190 -0.0282  0.1424
   50MOL   H18035558   6.219   1.239   3.543 -0.0107 -0.2755  0.0544
   50MOL   H18135559   6.137   1.139   3.755 -2.0934  1.7334 -0.1138
   50MOL   C18235560   6.748   0.933   2.961 -0.9642  0.7125 -0.0959
   50MOL   O18335561   6.726   0.815   2.948 -1.0525 -0.2737 -0.1034
   50MOL   C18435562   6.870   1.000   2.891 -0.4525 -0.5121  0.1091
   50MOL   C18535563   6.984   0.918   2.864 -0.4196  0.2628 -0.0481
   50MOL   C18635564   7.094   0.973   2.786 -0.1024  0.7473  0.2810
   50MOL   C18735565   7.080   1.101   2.732 -0.3870 -0.2150  0.4036
   50MOL   C18835566   7.195   1.151   2.650  0.8406 -0.2230  0.4873
   50MOL   O18935567   7.307   1.105   2.650 -0.3899  0.0358 -0.0172
   50MOL   N19035568   7.157   1.253   2.574  0.3401  0.8198 -0.2458
   50MOL   C19135569   7.237   1.320   2.471 -0.0170  0.1708 -0.1088
   50MOL   C19235570   7.163   1.446   2.424 -0.5363  0.4892  0.5193
   50MOL   C19335571   7.097   1.540   2.534 -0.3204 -0.2143  0.1524
   50MOL   C19435572   7.054   1.672   2.467 -0.4207  0.5576  0.5726
   50MOL   C19535573   7.007   1.779   2.566 -0.0184  0.2078  0.1518
   50MOL   C19635574   6.966   1.899   2.492 -0.5883 -0.3293  0.5953
   50MOL   N19735575   6.922   2.005   2.579 -0.0058  0.0678  0.3740
   50MOL   C19835576   6.966   1.180   2.751 -0.2150  0.2960 -0.2835
   50MOL   C19935577   6.861   1.127   2.829  0.2746  0.2976 -0.1446
   50MOL   H20035578   6.987   0.817   2.902 -2.6076  0.0963 -0.2222
   50MOL   H20135579   7.178   0.906   2.773 -1.2708 -0.9765  1.3663
   50MOL   H20235580   7.063   1.291   2.583 -0.4949 -1.4689  1.2642
   50MOL   H20335581   7.332   1.351   2.514  0.1059  0.2090 -0.4060
   50MOL   H20435582   7.258   1.250   2.389 -0.8335 -0.2552  0.0441
   50MOL   H20535583   7.101   1.400   2.347 -0.3152 -1.0096  1.2273
   50MOL   H20635584   7.225   1.519   2.371 -0.2335 -0.9377 -1.1496
   50MOL   H20735585   7.009   1.489   2.573  0.4639 -0.1030  2.0807
   50MOL   H20835586   7.170   1.565   2.611 -1.4100 -0.4994  1.2916
   50MOL   H20935587   6.976   1.652   2.395 -0.4523  1.6974  0.2840
   50MOL   H21035588   7.132   1.715   2.404 -0.6633 -0.6944 -0.5804
   50MOL   H21135589   7.087   1.793   2.638  0.4456 -1.6728  0.0237
   50MOL   H21235590   6.922   1.735   2.618 -0.1413 -1.8698 -1.6972
   50MOL   H21335591   7.046   1.933   2.426 -0.6436 -1.0210  0.1690
   50MOL   H21435592   6.880   1.862   2.436  1.5805 -2.6005 -1.3446
   50MOL   H21535593   6.983   2.020   2.659 -0.7763 -0.3751  1.0443
   50MOL   H21635594   6.950   1.275   2.701  0.9432  0.3595 -0.5473
   50MOL   H21735595   6.767   1.180   2.835  0.6657  0.9181  0.4827
   50MOL   C21835596   6.808   2.072   2.571 -0.0018 -0.6552 -0.2360
   50MOL   O21935597   6.718   2.036   2.491 -0.0302  0.1034  0.1933
   50MOL   C22035598   6.786   2.186   2.661  0.0476  0.4663  0.7484
   50MOL   C22135599   6.883   2.250   2.739  0.3769  0.6857  0.5982
   50MOL   C22235600   6.858   2.365   2.816  0.1486 -0.6444 -0.4216
   50MOL   C22335601   6.728   2.424   2.807 -0.3273  0.1416 -0.1341
   50MOL   C22435602   6.693   2.550   2.882 -0.4704  0.1503  0.3226
   50MOL   O22535603   6.778   2.632   2.900  0.3026 -0.0363  0.1640
   50MOL   N22635604   6.569   2.560   2.933 -0.5057 -0.0139  0.8632
   50MOL   C22735605   6.520   2.673   3.000  0.2672  0.3649 -0.1788
   50MOL   C22835606   6.454   2.633   3.139  0.6566  0.0597  0.2545
   50MOL   C22935607   6.553   2.592   3.244  0.0590 -0.2396  0.6149
   50MOL   C23035608   6.491   2.562   3.384 -0.8205  0.3416 -0.0151
   50MOL   C23135609   6.603   2.509   3.483  0.3313 -0.1058 -0.1783
   50MOL   C23235610   6.559   2.503   3.621  0.3403 -0.3958 -0.1343
   50MOL   N23335611   6.462   2.397   3.651  0.2918  0.3596  0.6046
   50MOL   C23435612   6.630   2.359   2.732  0.7051 -0.1085  0.6553
   50MOL   C23535613   6.653   2.239   2.663  0.2777 -0.0077 -0.1443
   50MOL   H23635614   6.983   2.208   2.740  0.5147  1.0297  1.3749
   50MOL   H23735615   6.937   2.401   2.881  1.2499 -1.6455 -1.1830
   50MOL   H23835616   6.506   2.484   2.913  0.0353 -0.0368 -0.8469
   50MOL   H23935617   6.596   2.750   3.008  0.5789 -0.0980  1.5562
   50MOL   H24035618   6.449   2.720   2.932  1.8332 -1.3408 -3.0620
   50MOL   H24135619   6.378   2.559   3.111  1.5062 -1.0009  0.7235
   50MOL   H24235620   6.392   2.713   3.180 -0.2464 -0.0227 -0.9049
   50MOL   H24335621   6.592   2.503   3.196  1.1302  0.8435 -0.5711
   50MOL   H24435622   6.637   2.662   3.250  1.1325 -1.3902 -0.6535
   50MOL   H24535623   6.426   2.477   3.364 -0.3117 -0.4159  1.4812
   50MOL   H24635624   6.433   2.646   3.422  0.5198  0.4898  1.8093
   50MOL   H24735625   6.675   2.590   3.478  0.9877 -0.6086  1.0535
   50MOL   H24835626   6.653   2.419   3.447  1.1529  0.3188 -0.1045
   50MOL   H24935627   6.644   2.489   3.689  0.2945  0.9290  0.2281
   50MOL   H25035628   6.517   2.598   3.656 -0.5594 -0.7294 -0.3039
   50MOL   H25135629   6.468   2.318   3.589 -0.8076  0.7085  0.0291
   50MOL   H25235630   6.533   2.404   2.714  0.5723 -0.7042 -0.1197
   50MOL   H25335631   6.578   2.197   2.597 -0.0568  0.7831 -0.2717
   50MOL   C25435632   6.401   2.390   3.772 -0.3430  0.2299  0.2552
   50MOL   O25535633   6.412   2.474   3.864  0.6198 -0.2613  0.2447
   50MOL   C25635634   6.355   2.255   3.814  0.0320 -0.4501  0.3188
   50MOL   C25735635   6.220   2.221   3.837 -0.3642 -0.0872 -0.3275
   50MOL   C25835636   6.183   2.091   3.882 -0.8932 -1.0689 -0.3943
   50MOL   C25935637   6.289   1.995   3.896  0.1800 -0.2885 -0.0583
   50MOL   C26035638   6.253   1.858   3.942 -0.4285 -0.4098  0.1101
   50MOL   O26135639   6.309   1.757   3.901 -0.7622  0.2332 -0.0108
   50MOL   N26235640   6.163   1.849   4.050 -0.5257 -0.2733  0.2400
   50MOL   C26335641   6.147   1.727   4.130 -0.1886 -0.0518 -1.0446
   50MOL   C26435642   6.225   1.734   4.268 -0.4216 -0.8907 -0.8644
   50MOL   C26535643   6.384   1.728   4.252  0.5788  1.1714 -0.5608
   50MOL   C26635644   6.460   1.718   4.382 -0.1565 -0.1413  0.1944
   50MOL   C26735645   6.608   1.704   4.362 -0.8953  0.6903  0.0060
   50MOL   C26835646   6.700   1.766   4.472  0.4813 -0.3082  0.4229
   50MOL   N26935647   6.674   1.712   4.604 -0.0331 -0.3686 -0.1987
   50MOL   C27035648   6.419   2.026   3.865  0.4311 -1.1464  0.6417
   50MOL   C27135649   6.454   2.155   3.827  0.2731 -0.0480  0.2679
   50MOL   H27235650   6.138   2.289   3.820  2.5231  3.1160 -2.1068
   50MOL   H27335651   6.080   2.064   3.902 -0.3813  0.1508  4.6403
   50MOL   H27435652   6.123   1.936   4.081 -0.4744 -0.6408  1.3700
   50MOL   H27535653   6.044   1.702   4.155  0.4153 -0.8091  0.7328
   50MOL   H27635654   6.179   1.641   4.072 -0.2441 -0.1203 -0.9724
   50MOL   H27735655   6.192   1.653   4.334 -1.0418 -1.1275 -1.4553
   50MOL   H27835656   6.207   1.828   4.319  1.8483 -0.9123  0.0358
   50MOL   H27935657   6.399   1.635   4.198 -0.7663  0.7985 -0.3162
   50MOL   H28035658   6.424   1.804   4.185  1.3753  1.6661  0.4665
   50MOL   H28135659   6.426   1.638   4.448  0.3553 -0.3412  0.2166
   50MOL   H28235660   6.443   1.812   4.433  0.6770 -0.5993  1.3272
   50MOL   H28335661   6.635   1.759   4.271 -0.3193  1.9787  0.9279
   50MOL   H28435662   6.632   1.598   4.358 -2.1862  0.3168  1.5131
   50MOL   H28535663   6.806   1.749   4.457  0.4924  0.2690 -0.2362
   50MOL   H28635664   6.688   1.875   4.467  1.5391 -0.2767 -2.2358
   50MOL   H28735665   6.686   1.612   4.609 -0.8692 -0.3665  2.3429
   50MOL   H28835666   6.497   1.952   3.864  1.2947 -0.2547 -1.2038
   50MOL   H28935667   6.560   2.171   3.813  0.4091  0.2833  1.6072
   50MOL   C29035668   6.637   1.778   4.715 -0.2928 -0.0586  0.7796
   50MOL   O29135669   6.607   1.902   4.725 -0.3506 -0.3243 -0.1489
   50MOL   C29235670   6.615   1.688   4.834 -0.4137 -0.3449  0.7581
   50MOL   C29335671   6.519   1.726   4.929 -0.2905  0.0992  0.3252
   50MOL   C29435672   6.483   1.637   5.033  0.0247 -0.1763  0.6651
   50MOL   C29535673   6.548   1.514   5.045 -0.2972  0.0625  0.6097
   50MOL   C29635674   6.498   1.417   5.152 -0.9276  0.3351 -0.3962
   50MOL   O29735675   6.464   1.462   5.264 -0.7310 -0.2985 -0.4102
   50MOL   N29835676   6.501   1.290   5.115 -0.1546 -0.1042 -0.7203
   50MOL   C29935677   6.445   1.185   5.195  0.2731  0.0447 -0.5988
   50MOL   C30035678   6.345   1.107   5.104 -0.5170  0.7411 -0.2623
   50MOL   C30135679   6.298   0.980   5.169 -0.3283  0.2034  0.2848
   50MOL   C30235680   6.188   0.907   5.084 -0.1903  0.5494  0.6561
   50MOL   C30335681   6.075   0.852   5.162 -0.1114 -0.3171  0.5973
   50MOL   C30435682   6.104   0.764   5.283  0.6809 -0.1856 -0.3167
   50MOL   N30535683   6.212   0.669   5.254  0.1921  0.3247  0.2149
   50MOL   C30635684   6.657   1.483   4.956 -0.3350 -0.8163 -0.1366
   50MOL   C30735685   6.683   1.569   4.853 -0.7192 -0.5523 -0.1663
   50MOL   H30835686   6.455   1.811   4.912 -1.2277 -0.7424 -0.3553
   50MOL   H30935687   6.403   1.674   5.095  1.3805  1.6245  1.3954
   50MOL   H31035688   6.531   1.269   5.021  1.1692  1.8252 -0.7579
   50MOL   H31135689   6.529   1.125   5.230 -0.2589  1.0001  2.4776
   50MOL   H31235690   6.399   1.218   5.288 -0.0815 -1.3569 -0.2691
   50MOL   H31335691   6.393   1.088   5.009 -3.5903  0.2190 -1.7904
   50MOL   H31435692   6.262   1.174   5.081 -1.3350 -0.5397 -1.0796
   50MOL   H31535693   6.379   0.907   5.164 -0.7746 -0.2448 -0.6212
   50MOL   H31635694   6.267   1.005   5.271 -0.0341  2.2012 -0.0917
   50MOL   H31735695   6.238   0.828   5.028 -2.0535  0.0256 -0.2965
   50MOL   H31835696   6.151   0.962   4.998  0.2536 -0.2707 -0.0712
   50MOL   H31935697   6.010   0.786   5.104 -0.0823 -2.0220  2.4339
   50MOL   H32035698   6.011   0.936   5.191  1.1416  0.6020  0.7216
   50MOL   H32135699   6.113   0.814   5.380  2.1604 -0.4110 -0.3251
   50MOL   H32235700   6.014   0.706   5.301  0.9910  0.0788  2.3429
   50MOL   H32335701   6.240   0.654   5.158 -0.1116  1.1220  0.0041
   50MOL   H32435702   6.705   1.388   4.973 -0.4346 -1.0543 -1.1670
   50MOL   H32535703   6.759   1.528   4.788  0.0737  0.0401  0.3861
   50MOL   C32635704   6.279   0.594   5.341  0.2815 -0.4322  0.6637
   50MOL   O32735705   6.246   0.577   5.458  0.0858 -0.4006 -0.4606
   50MOL   C32835706   6.387   0.517   5.274 -0.3807  0.5885 -0.1420
   50MOL   C32935707   6.496   0.571   5.211  0.1480 -0.6488 -0.1702
   50MOL   C33035708   6.589   0.492   5.140 -0.1299 -0.2023  0.0152
   50MOL   C33135709   6.560   0.355   5.119 -1.0372  0.5746 -0.4699
   50MOL   C33235710   6.638   0.269   5.018  0.2682  0.1822  0.6033
   50MOL   O33335711   6.688   0.162   5.052  0.6623 -0.1953 -0.4396
   50MOL   N33435712   6.618   0.305   4.889  0.0450  0.1570  0.0639
   50MOL   C33535713   6.689   0.245   4.767  0.9340 -0.3687  0.1841
   50MOL   C33635714   6.815   0.321   4.727  0.4369  1.1136 -0.0046
   50MOL   C33735715   6.791   0.463   4.683  0.3915 -0.2427 -0.4435
   50MOL   C33835716   6.902   0.511   4.597 -0.2997 -0.7521  0.3611
   50MOL   C33935717   6.881   0.653   4.554  0.2896 -0.1832  0.1792
   50MOL   C34035718   6.974   0.700   4.435  0.0613 -0.2436 -0.0414
   50MOL   N34135719   6.944   0.834   4.388  0.3513 -0.3131 -0.2168
   50MOL   C34235720   6.444   0.294   5.180 -0.0864 -0.3386 -0.0764
   50MOL   C34335721   6.374   0.376   5.268  0.2816  0.9292 -0.2624
   50MOL   H34435722   6.513   0.677   5.206 -0.5462 -0.3708  2.4773
   50MOL   H34535723   6.680   0.531   5.097  1.2387 -2.9384  0.2921
   50MOL   H34635724   6.550   0.380   4.882 -0.6958 -0.3124  2.0566
   50MOL   H34735725   6.699   0.140   4.795  3.3097 -0.9573 -2.6015
   50MOL   H34835726   6.620   0.249   4.683  0.1023 -0.7034  0.8448
   50MOL   H34935727   6.864   0.265   4.648 -1.3665  0.0943 -0.4258
   50MOL   H35035728   6.882   0.316   4.813 -2.7357 -1.5166  2.4442
   50MOL   H35135729   6.706   0.455   4.614  1.3093  1.3676 -1.8107
   50MOL   H35235730   6.771   0.523   4.771 -0.3578 -1.4129  0.1959
   50MOL   H35335731   6.907   0.450   4.506 -0.3042  0.1888 -0.2799
   50MOL   H35435732   6.998   0.500   4.646 -0.9853  0.3532  1.9836
   50MOL   H35535733   6.897   0.716   4.641  1.0196  0.7387 -0.6019
   50MOL   H35635734   6.778   0.672   4.523  0.4120  0.1745 -0.0104
   50MOL   H35735735   7.074   0.706   4.478  0.9390 -3.0104 -1.5656
   50MOL   H35835736   6.985   0.634   4.350  1.4323  0.8083 -0.6909
   50MOL   H35935737   6.852   0.872   4.402 -0.3429 -2.1926  0.4088
   50MOL   H36035738   6.421   0.189   5.165  1.5367 -0.3003 -3.3797
   50MOL   H36135739   6.297   0.323   5.323  0.6460  0.4136 -0.2527
   50MOL   C36235740   7.043   0.901   4.327 -0.4412  0.1304  0.2768
   50MOL   O36335741   7.157   0.851   4.310  0.3728 -0.0642  0.2706
   50MOL   C36435742   7.011   1.038   4.271 -0.1044 -0.0357  0.1224
   50MOL   C36535743   7.109   1.104   4.184 -0.7383  0.5412 -0.1082
   50MOL   C36635744   7.077   1.226   4.121  0.1620  0.3594 -0.6440
   50MOL   C36735745   6.952   1.287   4.146  0.3418 -0.2815  0.0585
   50MOL   C36835746   6.916   1.420   4.084 -0.4689  0.0778 -0.1631
   50MOL   O36935747   7.006   1.487   4.032  0.3247  0.2605 -0.9493
   50MOL   N37035748   6.788   1.458   4.099 -0.3695 -0.0970  0.2612
   50MOL   C37135749   6.737   1.577   4.048 -0.4040  0.5737  0.1424
   50MOL   C37235750   6.723   1.565   3.891 -0.9736  0.1545  0.1020
   50MOL   C37335751   6.710   1.704   3.824  0.2265 -0.1950 -0.7673
   50MOL   C37435752   6.735   1.689   3.669 -0.2303 -0.4468 -0.2028
   50MOL   C37535753   6.815   1.808   3.619 -0.7756 -0.1507  0.0115
   50MOL   C37635754   6.746   1.939   3.635  0.0059 -0.2112 -0.3317
   50MOL   N37735755   6.616   1.940   3.572  0.1068  0.1403  0.0431
   50MOL   C37835756   6.853   1.214   4.224 -0.0432 -0.1095  0.5970
   50MOL   C37935757   6.888   1.094   4.287  0.6215  0.0216  0.0333
   50MOL   H38035758   7.198   1.051   4.154 -1.6502 -1.9053  1.3216
   50MOL   H38135759   7.155   1.267   4.058 -0.4047  1.3593 -0.7130
   50MOL   H38235760   6.714   1.393   4.120 -1.3825  0.8360 -0.3484
   50MOL   H38335761   6.644   1.591   4.102 -1.0602 -0.0907 -0.7904
   50MOL   H38435762   6.801   1.659   4.080 -1.9613  0.4874  3.7447
   50MOL   H38535763   6.643   1.499   3.858 -1.1372  1.4728 -2.1826
   50MOL   H38635764   6.807   1.504   3.857 -0.9049  0.3763 -0.1241
   50MOL   H38735765   6.614   1.746   3.857  1.5651  1.6236  0.9648
   50MOL   H38835766   6.790   1.769   3.858  0.7554  0.3406 -2.9968
   50MOL   H38935767   6.642   1.681   3.614 -0.3278 -1.2771  0.0744
   50MOL   H39035768   6.796   1.602   3.647 -0.8749 -0.4280 -2.1332
   50MOL   H39135769   6.839   1.799   3.513 -3.1078 -0.0551 -0.5478
   50MOL   H39235770   6.907   1.813   3.677 -0.7819 -0.7972  0.0875
   50MOL   H39335771   6.750   1.973   3.738 -1.2216  1.1990 -0.7357
   50MOL   H39435772   6.812   2.012   3.588 -0.7036  0.8222  0.2477
   50MOL   H39535773   6.584   1.846   3.549  1.3006 -0.0779 -0.7647
   50MOL   H39635774   6.755   1.256   4.240 -0.6438 -1.1248 -0.3439
   50MOL   H39735775   6.809   1.044   4.341  0.0674 -0.1291 -0.8983
   50MOL   C39835776   6.545   2.038   3.516  0.1399 -0.1399  0.2337
   50MOL   O39935777   6.590   2.154   3.506 -0.4748 -0.0789 -0.1719
   50MOL   C40035778   6.413   1.999   3.447  0.2481  0.0727  0.2331
   50MOL   C40135779   6.331   2.096   3.387 -0.5253 -0.5343  0.2089
   50MOL   C40235780   6.205   2.060   3.331 -0.4543  0.4584 -0.2973
   50MOL   C40335781   6.161   1.925   3.338 -0.4170 -0.8209  0.1239
   50MOL   C40435782   6.024   1.891   3.284 -0.4599  0.6969 -0.0026
   50MOL   O40535783   5.926   1.913   3.353  0.1334  0.2347  0.1817
   50MOL   N40635784   6.028   1.825   3.170 -0.2306  0.0573  0.5519
   50MOL   C40735785   5.918   1.746   3.110 -0.0275  0.5446 -0.1057
   50MOL   C40835786   5.905   1.752   2.955  0.6169 -0.2540  0.3188
   50MOL   C40935787   6.004   1.658   2.891 -0.1457 -0.4975  0.4527
   50MOL   C41035788   5.979   1.628   2.742 -0.8118  0.3220 -0.3638
   50MOL   C41135789   6.073   1.540   2.673 -0.1145  0.5615  0.3963
   50MOL   C41235790   6.038   1.394   2.705 -0.5678 -0.5135  0.2770
   50MOL   N41335791   6.135   1.302   2.641  0.6857 -0.6330 -0.0769
   50MOL   C41435792   6.246   1.827   3.388 -0.0079 -0.3811 -0.1874
   50MOL   C41535793   6.378   1.864   3.432  0.1583  0.7169  0.3042
   50MOL   H41635794   6.359   2.200   3.399  1.8572 -1.1860  0.4814
   50MOL   H41735795   6.143   2.142   3.299 -0.1770  1.2019  1.0452
   50MOL   H41835796   6.111   1.817   3.113  0.5071 -0.3105  1.6583
   50MOL   H41935797   5.928   1.642   3.141 -3.7284 -0.4480 -1.9443
   50MOL   H42035798   5.822   1.774   3.154 -0.4328  0.2375 -0.7916
   50MOL   H42135799   5.913   1.853   2.915 -0.1172 -0.0346  0.7189
   50MOL   H42235800   5.811   1.706   2.924  1.2266  0.1404 -2.2298
   50MOL   H42335801   6.100   1.706   2.909  0.5555 -1.7895  0.2217
   50MOL   H42435802   5.996   1.563   2.942  2.8300 -0.9039  0.2592
   50MOL   H42535803   5.995   1.716   2.680 -0.1139 -1.7522 -3.2382
   50MOL   H42635804   5.873   1.601   2.734 -0.8452  0.8971 -2.1708
   50MOL   H42735805   6.174   1.560   2.710  0.3676 -2.1325  0.6634
   50MOL   H42835806   6.080   1.555   2.565  1.8366  1.2398  0.5946
   50MOL   H42935807   6.046   1.382   2.813  1.3162 -0.6916  0.1309
   50MOL   H43035808   5.934   1.379   2.676 -0.5212 -0.3629  0.0309
   50MOL   H43135809   6.110   1.272   2.548  0.7100 -0.0471 -0.2752
   50MOL   H43235810   6.206   1.728   3.397  1.2913 -1.0575 -1.5087
   50MOL   H43335811   6.436   1.778   3.465 -0.8001 -0.1600 -0.2581
   50MOL   C43435812   6.239   1.237   2.694  0.1748  0.1704 -0.3049
   50MOL   O43535813   6.280   1.265   2.814  0.1190  0.1147 -0.4670
   50MOL   C43635814   6.317   1.143   2.610 -0.8246 -0.5177  1.1268
   50MOL   C43735815   6.280   1.109   2.478 -0.1599  0.0761 -0.4279
   50MOL   C43835816   6.350   1.005   2.415 -0.1571  0.0661 -0.9926
   50MOL   C43935817   6.458   0.940   2.476 -0.2222 -0.1315  0.4967
   50MOL   C44035818   6.526   0.826   2.406 -0.5613 -0.5169  0.0411
   50MOL   O44135819   6.644   0.796   2.429  0.3448 -0.6624 -0.2036
   50MOL   N44235820   6.447   0.743   2.337 -0.5426 -0.0269  0.2967
   50MOL   C44335821   6.479   0.613   2.274  0.1153  0.2691  0.3060
   50MOL   C44435822   6.411   0.585   2.142  0.3589 -0.2404 -0.7207
   50MOL   C44535823   6.266   0.639   2.136  0.1175  0.4304 -0.1709
   50MOL   C44635824   6.201   0.607   2.002 -0.0005  0.2489 -0.1859
   50MOL   C44735825   6.129   0.468   2.010 -0.5751  0.9260 -0.6067
   50MOL   C44835826   6.050   0.433   1.883  0.2751  0.3970  0.0274
   50MOL   N44935827   5.973   0.307   1.900 -0.1048 -0.5694  0.0508
   50MOL   C45035828   6.500   0.987   2.603  0.2373  0.4058 -0.3873
   50MOL   C45135829   6.426   1.081   2.669  0.4062 -0.3737 -0.3565
   50MOL   H45235830   6.197   1.152   2.423 -1.0349 -0.8543  0.1517
   50MOL   H45335831   6.322   0.977   2.315  0.5211 -1.8724 -0.6569
   50MOL   H45435832   6.355   0.784   2.326  1.4947  4.5034 -0.8764
   50MOL   H45535833   6.588   0.607   2.266  0.0144  0.3190 -1.2497
   50MOL   H45635834   6.450   0.534   2.342 -2.0818  0.5465 -0.2689
   50MOL   H45735835   6.409   0.476   2.130  0.5070 -0.1631 -1.4364
   50MOL   H45835836   6.476   0.631   2.068  0.7213  0.8116  0.2363
   50MOL   H45935837   6.209   0.615   2.226 -0.4030  0.3216 -0.5257
   50MOL   H46035838   6.283   0.746   2.141  0.7495  0.2685  1.5535
   50MOL   H46135839   6.280   0.611   1.926  0.0318 -0.4040 -0.1916
   50MOL   H46235840   6.129   0.686   1.984 -0.6294 -0.0480  0.9953
   50MOL   H46335841   6.054   0.479   2.089 -1.1840 -0.6634 -0.9545
   50MOL   H46435842   6.198   0.388   2.039 -2.6449 -1.4842 -2.1687
   50MOL   H46535843   5.971   0.507   1.882 -0.6949 -0.6208 -1.4062
   50MOL   H46635844   6.117   0.431   1.798 -2.8955 -0.5843 -2.5293
   50MOL   H46735845   5.942   0.282   1.993  1.4080 -0.7253  0.5333
   50MOL   H46835846   6.589   0.935   2.637  0.0617 -0.2008 -0.8436
   50MOL   H46935847   6.446   1.092   2.774 -0.0999 -2.8178  0.0310
   50MOL   C47035848   5.934   0.231   1.799 -0.3213  1.3492 -0.4467
   50MOL   O47135849   5.946   0.253   1.679  0.2572  0.0395  0.5648
   50MOL   C47235850   5.872   0.104   1.848  0.2016 -0.0681 -0.2900
   50MOL   C47335851   5.797   0.102   1.970  0.2674  0.0843 -0.6474
   50MOL   C47435852   5.739   7.865   2.004  0.3023  0.2920 -0.2625
   50MOL   C47535853   5.755   7.753   1.930 -0.2466 -0.2404  0.0250
   50MOL   C47635854   5.694   7.623   1.970  0.2533 -0.5693  0.0510
   50MOL   O47735855   5.670   7.592   2.087  0.2435  0.2027 -0.2078
   50MOL   N47835856   5.662   7.527   1.875 -0.1509  0.0615 -0.4417
   50MOL   C47935857   5.584   7.400   1.891 -0.2505 -0.9885  0.2694
   50MOL   C48035858   5.448   7.418   1.815 -0.9692 -0.0866 -0.0917
   50MOL   C48135859   5.358   7.298   1.824  0.2952 -0.0182  0.7582
   50MOL   C48235860   5.357   7.232   1.967  0.0810  0.5005  0.1891
   50MOL   C48335861   5.256   7.123   1.986  0.3870 -0.6291  0.1434
   50MOL   C48435862   5.275   7.064   2.125  0.3990 -0.8010 -0.1908
   50MOL   N48535863   5.230   7.150   2.237  0.1871  0.1857  0.7594
   50MOL   C48635864   5.820   7.759   1.805  0.0042 -0.5850  0.5669
   50MOL   C48735865   5.881   7.879   1.761  0.4822  0.2855  0.2700
   50MOL   H48835866   5.785   0.178   2.045 -0.2842 -0.9192  0.2926
   50MOL   H48935867   5.702   7.863   2.105  0.5266  0.9495 -0.1692
   50MOL   H49035868   5.707   7.544   1.787 -0.4775 -1.6859 -0.9616
   50MOL   H49135869   5.637   7.315   1.847  0.3061 -0.9205  0.8011
   50MOL   H49235870   5.561   7.390   1.996 -4.0048 -0.3521 -0.4382
   50MOL   H49335871   5.460   7.422   1.707 -2.3848 -1.3669 -0.3142
   50MOL   H49435872   5.391   7.502   1.853 -1.5714  0.0125 -1.2017
   50MOL   H49535873   5.265   7.338   1.785  0.8800 -0.0487 -0.6762
   50MOL   H49635874   5.377   7.225   1.746 -1.5561 -0.1170  0.3715
   50MOL   H49735875   5.331   7.312   2.036  1.3639 -0.2928  1.6150
   50MOL   H49835876   5.454   7.199   2.006 -0.2157 -2.2898 -1.3324
   50MOL   H49935877   5.284   7.042   1.918  0.4608 -1.2490  0.9035
   50MOL   H50035878   5.155   7.154   1.958 -0.0111 -2.4959 -0.5563
   50MOL   H50135879   5.237   6.962   2.117  1.2120 -1.0223 -1.3543
   50MOL   H50235880   5.378   7.042   2.153  0.3172 -1.7129 -0.5963
   50MOL   H50335881   5.307   7.180   2.296  1.9205  2.2637 -2.4080
   50MOL   H50435882   5.829   7.675   1.738  1.1979  0.9083 -1.1802
   50MOL   H50535883   5.946   7.885   1.675  2.2622  0.2785  1.5833
   50MOL   C50635884   5.108   7.206   2.252 -0.3116 -0.1776 -0.4513
   50MOL   O50735885   5.015   7.194   2.173 -0.0367  0.0149 -0.3154
   50MOL   C50835886   5.090   7.295   2.374  1.0605 -0.4597  0.0049
   50MOL   C50935887   4.986   7.389   2.384 -0.3511 -0.0452  0.2164
   50MOL   C51035888   4.978   7.481   2.490  0.4494 -0.0616  0.4510
   50MOL   C51135889   5.080   7.484   2.585 -0.7702 -0.3554 -0.0524
   50MOL   C51235890   5.082   7.588   2.693 -0.0290 -0.6684  0.0799
   50MOL   O51335891   5.138   7.564   2.796  0.6406  0.5040  0.7208
   50MOL   N51435892   5.039   7.708   2.665 -0.7944  0.0613  0.0928
   50MOL   C51535893   5.050   7.823   2.756  0.4040  0.6899  0.2298
   50MOL   C51635894   5.051   0.063   2.661  0.2866 -0.3591 -0.5250
   50MOL   C51735895   4.917   0.075   2.583  0.1645 -0.1462 -0.3834
   50MOL   C51835896   4.823   0.177   2.644 -0.0285  0.3042  0.4108
   50MOL   C51935897   4.713   0.235   2.557 -0.3958  0.1271  0.1635
   50MOL   C52035898   4.652   0.365   2.622 -0.4423  0.4330  0.0604
   50MOL   N52135899   4.533   0.413   2.558  0.1381  0.2894  0.9487
   50MOL   C52235900   5.173   7.378   2.582 -0.2927 -0.2031 -0.2261
   50MOL   C52335901   5.177   7.284   2.481 -0.4607 -0.2386 -0.0847
   50MOL   H52435902   4.918   7.391   2.301 -0.2608  0.0293  0.1450
   50MOL   H52535903   4.894   7.549   2.496  1.2275  1.0824 -1.3760
   50MOL   H52635904   5.004   7.717   2.571  0.6347 -2.6549 -0.7692
   50MOL   H52735905   4.967   7.833   2.827 -0.3789  1.7929 -0.8210
   50MOL   H52835906   5.148   7.818   2.802 -0.2826 -3.1213  1.3956
   50MOL   H52935907   5.128   0.045   2.586  0.9289  1.2398 -0.2608
   50MOL   H53035908   5.083   0.147   2.722 -0.3111  0.4074 -1.2507
   50MOL   H53135909   4.944   0.127   2.492 -1.9404  0.5891 -0.6197
   50MOL   H53235910   4.868   7.873   2.542 -3.2167  0.9517  1.1052
   50MOL   H53335911   4.885   0.266   2.656  2.2689 -0.7310 -2.8740
   50MOL   H53435912   4.777   0.136   2.734  0.0760 -0.0718  0.2969
   50MOL   H53535913   4.647   0.158   2.518 -0.1002  0.5406 -1.1716
   50MOL   H53635914   4.756   0.267   2.462 -0.6126 -2.4902 -0.8470
   50MOL   H53735915   4.643   0.352   2.730  2.3422 -0.8575  0.1769
   50MOL   H53835916   4.718   0.452   2.617 -0.4925  0.6081  1.9892
   50MOL   H53935917   4.532   0.465   2.471 -1.9106 -0.2241  0.6361
   50MOL   H54035918   5.249   7.368   2.659 -1.2322 -1.8714  0.5152
   50MOL   H54135919   5.257   7.211   2.485 -0.5511 -0.3821 -0.9540
   50MOL   C54235920   4.406   0.395   2.609 -0.0589  0.2109 -0.2008
   50MOL   O54335921   4.382   0.321   2.708  0.4325 -0.1628  0.0928
   50MOL   C54435922   4.296   0.468   2.539  0.4009  0.2894 -1.1592
   50MOL   C54535923   4.326   0.592   2.478  0.5187  0.2606 -0.3815
   50MOL   C54635924   4.221   0.664   2.421  0.8752  0.0503  0.1616
   50MOL   C54735925   4.089   0.614   2.423 -0.5708  0.3279 -0.1993
   50MOL   C54835926   3.982   0.690   2.354  0.8582 -0.5232  0.0398
   50MOL   O54935927   4.007   0.725   2.235 -0.0159 -0.1481  0.0647
   50MOL   N55035928   3.869   0.724   2.425 -0.3925 -0.1003 -0.1479
   50MOL   C55135929   3.779   0.831   2.380 -0.5902 -0.2460  0.2266
   50MOL   C55235930   3.645   0.762   2.351  0.0653 -0.0109  0.2341
   50MOL   C55335931   3.642   0.680   2.218 -0.5729 -0.1739 -0.5763
   50MOL   C55435932   3.517   0.586   2.213 -0.4022  0.1375 -0.2511
   50MOL   C55535933   3.473   0.544   2.065 -0.1088 -0.0855  0.2139
   50MOL   C55635934   3.387   0.425   2.062 -0.1270 -0.3031 -0.4579
   50MOL   N55735935   3.328   0.410   1.936 -0.0268 -0.2805  0.4567
   50MOL   C55835936   4.064   0.488   2.480  0.9748  0.6529 -0.3193
   50MOL   C55935937   4.164   0.416   2.542 -0.1067  0.1530 -0.2702
   50MOL   H56035938   4.427   0.631   2.480  0.5922  0.0563  1.2946
   50MOL   H56135939   4.229   0.759   2.371  0.1368 -1.4692 -2.9898
   50MOL   H56235940   3.851   0.675   2.511  1.9796 -0.4984  0.1385
   50MOL   H56335941   3.772   0.898   2.466 -0.3112 -0.5672  0.4962
   50MOL   H56435942   3.813   0.896   2.299 -2.2960 -0.0221 -0.3423
   50MOL   H56535943   3.562   0.833   2.356  1.3994  1.7325 -1.4716
   50MOL   H56635944   3.619   0.695   2.432 -2.5740  1.7452  0.8853
   50MOL   H56735945   3.651   0.750   2.134  0.5503  2.5260  1.7130
   50MOL   H56835946   3.726   0.611   2.218  0.1073  0.6225  1.8738
   50MOL   H56935947   3.429   0.635   2.256 -0.6796  0.0064 -0.6630
   50MOL   H57035948   3.545   0.494   2.264  1.0245  0.1148 -1.0549
   50MOL   H57135949   3.568   0.523   2.017 -0.1708 -0.5972  0.3089
   50MOL   H57235950   3.420   0.629   2.021  0.5835  0.8699  1.1987
   50MOL   H57335951   3.441   0.333   2.082 -2.0987 -0.9833  2.0212
   50MOL   H57435952   3.319   0.429   2.148 -0.4808  0.6508 -0.7709
   50MOL   H57535953   3.347   0.479   1.864 -2.3354  0.4157  0.4986
   50MOL   H57635954   3.964   0.447   2.472  1.6577 -1.1581  0.1377
   50MOL   H57735955   4.147   0.329   2.603  2.4545  0.6210  1.1781
   50MOL   C57835956   3.245   0.308   1.899  0.1665  0.1436  0.1709
   50MOL   O57935957   3.197   0.222   1.973 -0.3709  0.1060 -0.2415
   50MOL   C58035958   3.199   0.309   1.758  0.0348  0.6229  0.1790
   50MOL   C58135959   3.081   0.242   1.723  0.0057 -0.0493 -0.0403
   50MOL   C58235960   3.051   0.226   1.587  0.0668 -0.4231  0.6734
   50MOL   C58335961   3.132   0.285   1.482 -0.1456  0.6583 -0.3286
   50MOL   C58435962   3.107   0.266   1.334  0.1520 -0.1130 -1.2058
   50MOL   O58535963   2.989   0.266   1.297 -0.4016 -0.5382  0.2839
   50MOL   N58635964   3.215   0.271   1.251  0.4724 -0.7587 -0.0162
   50MOL   C58735965   3.194   0.280   1.105  0.2515 -0.3246 -0.6162
   50MOL   C58835966   3.324   0.297   1.031 -0.3388 -0.4473  0.1399
   50MOL   C58935967   3.305   0.332   0.878 -0.7747 -0.6082 -0.1727
   50MOL   C59035968   3.440   0.362   0.808  0.3260  0.3923  0.8108
   50MOL   C59135969   3.418   0.380   0.659 -0.5393  0.0407 -0.1492
   50MOL   C59235970   3.549   0.416   0.584 -0.2844  0.1897 -0.0079
   50MOL   N59335971   3.605   0.542   0.631 -0.3343  0.4325  0.8774
   50MOL   C59435972   3.243   0.366   1.527  0.3756 -0.7854 -0.2485
   50MOL   C59535973   3.275   0.373   1.660  0.2635 -0.0827 -0.5385
   50MOL   H59635974   3.016   0.198   1.796  0.8441  1.4222  1.6390
   50MOL   H59735975   2.963   0.172   1.554 -0.1152  0.0722  0.3397
   50MOL   H59835976   3.310   0.268   1.283  0.5271 -3.0432 -0.3255
   50MOL   H59935977   3.148   0.189   1.068 -1.9216 -0.0427  1.2541
   50MOL   H60035978   3.134   0.370   1.090  1.7229  0.9269  0.7834
   50MOL   H60135979   3.391   0.211   1.036 -0.9980 -1.0347 -1.0359
   50MOL   H60235980   3.380   0.379   1.076 -0.9482  1.5011 -2.5650
   50MOL   H60335981   3.254   0.251   0.825 -0.1846 -0.6775 -0.6466
   50MOL   H60435982   3.245   0.422   0.865 -1.6805 -1.2611 -0.5578
   50MOL   H60535983   3.512   0.282   0.821  1.1550  0.9773 -0.1402
   50MOL   H60635984   3.483   0.452   0.853  0.7294  0.4336  0.3448
   50MOL   H60735985   3.334   0.447   0.643 -1.7694 -1.4061  0.0950
   50MOL   H60835986   3.372   0.289   0.619  1.5997 -1.2315  0.2009
   50MOL   H60935987   3.624   0.340   0.607  0.7428  1.3001  0.3212
   50MOL   H61035988   3.544   0.412   0.475 -2.6019 -0.7361  0.0963
   50MOL   H61135989   3.696   0.533   0.674 -0.9176  0.7764  2.2220
   50MOL   H61235990   3.296   0.421   1.450  2.8513  1.5080  2.9375
   50MOL   H61335991   3.359   0.434   1.690  0.8688 -0.4257 -1.5365
   50MOL   C61435992   3.556   0.666   0.625  0.1819  0.6667  0.3879
   50MOL   O61535993   3.445   0.691   0.577 -0.4746 -0.4749  0.0757
   50MOL   C61635994   3.642   0.774   0.680 -0.1772  0.0091 -0.0317
   50MOL   C61735995   3.782   0.757   0.688  0.0696  0.5786 -0.4981
   50MOL   C61835996   3.861   0.862   0.736 -0.5594 -0.2835  0.1857
   50MOL   C61935997   3.804   0.987   0.784 -0.3447  0.4490 -0.1055
   50MOL   C62035998   3.888   1.094   0.843 -0.0612  1.2460  0.2501
   50MOL   O62135999   3.844   1.179   0.917  0.2603  0.3899  0.0573
   50MOL   N62236000   4.018   1.092   0.813 -0.3930  0.3994 -0.2599
   50MOL   C62336001   4.108   1.203   0.848 -0.8965  0.7319  0.1208
   50MOL   C62436002   4.238   1.157   0.788 -0.4629 -0.0047 -0.1854
   50MOL   C62536003   4.335   1.265   0.810  0.2156 -0.1306 -0.0425
   50MOL   C62636004   4.471   1.239   0.736  0.3137 -0.0733 -0.1280
   50MOL   C62736005   4.463   1.248   0.582 -0.1966  0.0316  0.2900
   50MOL   C62836006   4.601   1.227   0.512 -0.3466  0.7127 -0.4676
   50MOL   N62936007   4.710   1.295   0.583 -0.2244 -0.2314  0.0137
   50MOL   C63036008   3.666   0.999   0.777 -0.5553 -0.3920 -0.4465
   50MOL   C63136009   3.585   0.896   0.725  0.1154  0.5471 -0.2156
   50MOL   H63236010   3.827   0.665   0.655  0.6630  0.4515  0.6708
   50MOL   H63336011   3.967   0.845   0.747 -0.5000 -0.1664 -0.2069
   50MOL   H63436012   4.059   1.010   0.771  0.5613 -0.5829  2.4356
   50MOL   H63536013   4.075   1.299   0.809 -1.7875 -0.6026 -2.4836
   50MOL   H63636014   4.121   1.201   0.956 -0.9986 -4.2091  0.1592
   50MOL   H63736015   4.210   1.144   0.683 -0.1885  0.0861 -0.2711
   50MOL   H63836016   4.271   1.063   0.833  4.3795  1.0259 -1.2341
   50MOL   H63936017   4.294   1.358   0.771 -1.3060 -0.5559  0.4740
   50MOL   H64036018   4.350   1.269   0.917  0.8348 -1.7413 -0.0581
   50MOL   H64136019   4.511   1.141   0.763  1.2543  0.7032  1.3548
   50MOL   H64236020   4.540   1.318   0.767 -0.9549  1.3301 -0.8016
   50MOL   H64336021   4.437   1.353   0.564  1.8928  0.6433  0.6429
   50MOL   H64436022   4.391   1.180   0.537 -1.9342  0.3909  2.4356
   50MOL   H64536023   4.628   1.123   0.529  0.0855  1.1062  1.4395
   50MOL   H64636024   4.595   1.231   0.404  2.8882 -2.0086 -0.8182
   50MOL   H64736025   4.744   1.259   0.671  1.4882 -0.6783 -0.8048
   50MOL   H64836026   3.618   1.089   0.815 -1.5631 -0.6160 -1.1625
   50MOL   H64936027   3.479   0.913   0.726  0.0563  0.2214 -0.7536
   50MOL   C65036028   4.798   1.377   0.521  0.0483 -0.7580  0.0622
   50MOL   O65136029   4.774   1.434   0.416  0.0783  0.3129 -0.5053
   50MOL   C65236030   4.918   1.407   0.601 -0.1585  0.3191 -0.6331
   50MOL   C65336031   4.980   1.296   0.666 -1.4505 -0.3273 -0.7048
   50MOL   C65436032   5.110   1.308   0.727  0.7123  0.2616 -0.5453
   50MOL   C65536033   5.167   1.441   0.741 -0.7004  0.6905 -0.2473
   50MOL   C65636034   5.301   1.457   0.807 -0.7054  0.7556  0.1757
   50MOL   O65736035   5.317   1.555   0.878  0.3181  0.4345  0.6009
   50MOL   N65836036   5.386   1.360   0.789  0.4631 -0.1164  0.4460
   50MOL   C65936037   5.520   1.360   0.839 -0.1671  0.0359 -0.3809
   50MOL   C66036038   5.610   1.445   0.746  0.2990 -0.0073 -0.1035
   50MOL   C66136039   5.757   1.445   0.787 -0.1801 -0.0328 -0.0952
   50MOL   C66236040   5.840   1.518   0.684  0.2566 -0.7686 -0.2034
   50MOL   C66336041   5.879   1.432   0.562  0.0874  0.4709 -0.5427
   50MOL   C66436042   5.945   1.508   0.451 -0.3910 -0.5114  0.5512
   50MOL   N66536043   6.041   1.611   0.489 -0.6494  0.4222  0.6196
   50MOL   C66636044   5.101   1.551   0.678 -0.4363 -0.2542  0.1279
   50MOL   C66736045   4.977   1.533   0.611 -0.0028 -0.3499 -0.0531
   50MOL   H66836046   4.935   1.197   0.666  1.0543 -1.5162 -0.3440
   50MOL   H66936047   5.162   1.224   0.770  2.0622  0.7994 -1.1010
   50MOL   H67036048   5.347   1.275   0.750 -2.4368 -0.5624  3.9569
   50MOL   H67136049   5.530   1.388   0.944 -0.1107  1.6935 -0.8205
   50MOL   H67236050   5.554   1.257   0.842  1.3275  0.5430  0.7102
   50MOL   H67336051   5.575   1.548   0.737 -0.5762 -0.3212 -0.3441
   50MOL   H67436052   5.609   1.404   0.645  1.1469  1.2097 -0.6206
   50MOL   H67536053   5.768   1.486   0.887  1.5698 -0.8103  0.0558
   50MOL   H67636054   5.798   1.345   0.795  0.4388  0.2946  0.9324
   50MOL   H67736055   5.932   1.541   0.738 -0.4049 -0.7625  0.9521
   50MOL   H67836056   5.784   1.606   0.652  1.1066  0.1745  0.8671
   50MOL   H67936057   5.785   1.394   0.523  0.2273  1.4787 -1.8961
   50MOL   H68036058   5.945   1.352   0.597 -1.1131 -0.5115 -0.5190
   50MOL   H68136059   5.978   1.442   0.371 -0.6668  0.3138 -0.2632
   50MOL   H68236060   5.862   1.565   0.409 -1.7724 -2.4215  0.6413
   50MOL   H68336061   6.074   1.623   0.584  1.6596 -0.4027 -0.0607
   50MOL   H68436062   5.156   1.644   0.674  0.7596 -0.9866 -1.0131
   50MOL   H68536063   4.932   1.616   0.558 -0.9316 -1.0753 -0.4055
   50MOL   C68636064   6.100   1.688   0.396 -0.6581 -0.1786 -0.5009
   50MOL   O68736065   6.085   1.664   0.277 -0.8194 -0.5706 -0.1845
   50MOL   C68836066   6.190   1.799   0.440 -0.7181 -0.6954 -0.4891
   50MOL   C68936067   6.207   1.915   0.358  0.0588 -0.8091 -0.0040
   50MOL   C69036068   6.291   2.021   0.409 -0.3148 -0.0063 -0.6277
   50MOL   C69136069   6.361   2.012   0.531  0.0328 -0.3735 -0.3037
   50MOL   C69236070   6.465   2.111   0.577 -0.0923  0.2593 -0.3546
   50MOL   O69336071   6.529   2.183   0.499  0.0279 -0.0138  0.4189
   50MOL   N69436072   6.492   2.114   0.710  0.0101  0.1626  0.6556
   50MOL   C69536073   6.570   2.215   0.783  0.6134  0.2070  0.1818
   50MOL   C69636074   6.702   2.134   0.810 -0.2325  0.1827  0.8431
   50MOL   C69736075   6.786   2.218   0.914  0.1384 -0.2940 -0.0801
   50MOL   C69836076   6.917   2.147   0.943  0.2407 -0.4806  0.2305
   50MOL   C69936077   6.989   2.198   1.070  0.0715  0.2127  0.1803
   50MOL   C70036078   7.093   2.104   1.110 -0.1221 -0.0452  0.1410
   50MOL   N70136079   7.163   2.141   1.233 -0.1848 -0.5430  0.4316
   50MOL   C70236080   6.342   1.896   0.604 -0.8816 -0.0627 -0.1741
   50MOL   C70336081   6.262   1.787   0.559  0.5976 -0.1165 -0.2481
   50MOL   H70436082   6.157   1.921   0.262 -2.0632  1.2223  1.1772
   50MOL   H70536083   6.315   2.101   0.340  0.3467  1.3515  1.1226
   50MOL   H70636084   6.428   2.058   0.766  1.7577 -1.4197  1.1202
   50MOL   H70736085   6.577   2.308   0.727  0.7513 -0.4885 -0.9715
   50MOL   H70836086   6.520   2.235   0.878  0.1429 -1.3080  0.2566
   50MOL   H70936087   6.762   2.128   0.719 -2.2788 -1.6819 -0.4573
   50MOL   H71036088   6.672   2.036   0.847 -0.8278  0.3770  0.8839
   50MOL   H71136089   6.806   2.317   0.874  1.0695 -0.0861  0.8979
   50MOL   H71236090   6.722   2.230   1.002 -1.3370 -1.2118 -1.0039
   50MOL   H71336091   6.982   2.171   0.859 -0.6825  1.4345  0.0360
   50MOL   H71436092   6.912   2.038   0.949 -1.1795 -0.3390  2.0292
   50MOL   H71536093   6.915   2.199   1.150 -0.1365  0.4053 -0.0144
   50MOL   H71636094   7.021   2.302   1.061  0.6933 -0.0357 -0.5915
   50MOL   H71736095   7.048   2.006   1.124  1.9259 -0.5424  3.7849
   50MOL   H71836096   7.166   2.092   1.029  0.0665 -0.0697  0.3144
   50MOL   H71936097   7.236   2.076   1.258 -0.5712 -0.3013  2.2323
   50MOL   H72036098   6.396   1.884   0.697  1.3972  0.2647 -1.4469
   50MOL   H72136099   6.247   1.710   0.633  0.4947  1.4689  1.4136
   50MOL   H72236100   7.089   2.133   1.301  1.6001  2.3487  2.8097
   51MOL     C136101   5.281   0.153   5.344  0.2127  0.1995 -0.0024
   51MOL     O236102   5.194   0.228   5.300 -0.4278 -0.3641  0.0130
   51MOL     C336103   5.260   0.055   5.461  0.3124 -0.5660  0.3492
   51MOL     C436104   5.347   7.832   5.471 -0.2943  0.3314  0.6862
   51MOL     C536105   5.324   7.730   5.566 -0.8175  0.4108 -0.8048
   51MOL     C636106   5.205   7.735   5.643  0.6134  0.4781  0.0400
   51MOL     C736107   5.165   7.619   5.731  0.6527 -0.5762  0.7604
   51MOL     O836108   5.056   7.602   5.770  1.1542  0.2138 -0.6117
   51MOL     N936109   5.266   7.541   5.774 -0.0069  0.5087  0.1169
   51MOL    C1036110   5.253   7.437   5.874  0.6371  0.3517  0.5622
   51MOL    C1136111   5.230   7.486   6.022 -0.0370  0.0270  0.0541
   51MOL    C1236112   5.346   7.570   6.081  0.1263 -0.1662 -0.9976
   51MOL    C1336113   5.371   7.706   6.016 -0.7551  0.5210  0.3580
   51MOL    C1436114   5.476   7.798   6.071 -0.8940  0.7654 -0.4499
   51MOL    C1536115   5.481   0.055   6.020  0.0661  0.4453  0.5452
   51MOL    N1636116   5.358   0.136   6.040 -0.3079 -0.5561  0.5554
   51MOL    C1736117   5.117   7.841   5.631  0.1524  0.3158  0.3084
   51MOL    C1836118   5.145   0.062   5.541 -0.7918  0.6051 -0.4953
   51MOL    H1936119   5.431   7.833   5.402 -0.1184  0.6492  0.9056
   51MOL    H2036120   5.384   7.640   5.559 -1.4827  0.0386 -1.8992
   51MOL    H2136121   5.360   7.547   5.738 -0.1561 -3.4667 -1.2539
   51MOL    H2236122   5.179   7.360   5.849  0.9738  0.2884 -0.2415
   51MOL    H2336123   5.348   7.385   5.875 -0.1237 -1.1400 -1.1334
   51MOL    H2436124   5.228   7.396   6.084 -2.6557  0.0728  0.0708
   51MOL    H2536125   5.143   7.547   6.045  0.6763  1.5228 -1.1741
   51MOL    H2636126   5.334   7.585   6.188  2.1388  1.3828 -0.9828
   51MOL    H2736127   5.433   7.506   6.068 -0.7329 -2.0139  1.7301
   51MOL    H2836128   5.279   7.764   6.010 -1.0272 -0.0681 -1.6690
   51MOL    H2936129   5.408   7.689   5.914  0.6710  0.3105  0.8992
   51MOL    H3036130   5.578   7.759   6.061 -0.9293  0.2755  0.8983
   51MOL    H3136131   5.459   7.789   6.178  2.2852 -1.7974 -0.0789
   51MOL    H3236132   5.560   0.122   6.054  1.5517 -1.3055  0.5677
   51MOL    H3336133   5.495   0.034   5.914  0.6440  0.8467  0.5453
   51MOL    H3436134   5.295   0.149   5.961 -2.1880  0.8631  2.2351
   51MOL    H3536135   5.032   7.854   5.697 -0.9298 -0.2391 -0.9358
   51MOL    H3636136   5.074   0.143   5.530 -2.2406 -0.5243  0.2344
   51MOL    H3736137   5.383   0.149   5.307  0.4596  1.7827  0.5060
   51MOL    C3836138   5.304   0.155   6.161  0.5466 -0.0437  0.2465
   51MOL    O3936139   5.373   0.158   6.263  0.0174  0.3547 -0.0485
   51MOL    C4036140   5.160   0.198   6.160 -0.4554 -0.8071 -0.1876
   51MOL    C4136141   5.064   0.129   6.079 -0.0482 -0.5093 -0.2338
   51MOL    C4236142   4.931   0.175   6.080  0.0644  0.3583  0.5781
   51MOL    C4336143   4.890   0.269   6.179 -0.5120  0.3913  0.3935
   51MOL    C4436144   4.747   0.316   6.177 -0.1698 -0.3037  0.1616
   51MOL    O4536145   4.658   0.235   6.159  0.2489 -0.4106 -0.1534
   51MOL    N4636146   4.725   0.448   6.214 -0.0893  0.1184 -0.6073
   51MOL    C4736147   4.601   0.521   6.211 -0.0102  0.3287 -0.6948
   51MOL    C4836148   4.554   0.555   6.061  0.0768  0.2853  0.0368
   51MOL    C4936149   4.672   0.613   5.978 -0.1715  0.4742 -0.0267
   51MOL    C5036150   4.625   0.711   5.863 -0.7243  0.0070 -0.4706
   51MOL    C5136151   4.537   0.637   5.762  0.4961  0.2934  0.2099
   51MOL    C5236152   4.535   0.712   5.625 -0.6199 -0.5278  0.6793
   51MOL    N5336153   4.660   0.729   5.552  0.3164  0.1905 -0.3812
   51MOL    C5436154   4.978   0.318   6.271 -1.5477  0.2081  0.0365
   51MOL    C5536155   5.116   0.294   6.254 -0.0167 -0.4346 -0.1399
   51MOL    H5636156   5.090   0.056   6.004  1.2918 -0.7726  0.4671
   51MOL    H5736157   4.865   0.129   6.007 -1.2034  2.0228  0.6373
   51MOL    H5836158   4.810   0.503   6.216 -0.6950  1.0331  0.6224
   51MOL    H5936159   4.525   0.459   6.260  0.7341  1.0018  1.3671
   51MOL    H6036160   4.611   0.610   6.272 -0.6858  2.6060 -3.8294
   51MOL    H6136161   4.476   0.629   6.082  3.0656  3.4847  0.3865
   51MOL    H6236162   4.507   0.466   6.020  1.1830 -0.9956  1.4858
   51MOL    H6336163   4.735   0.666   6.049 -0.4277 -0.5515  0.9863
   51MOL    H6436164   4.720   0.521   5.944 -1.6734 -0.5559  0.5590
   51MOL    H6536165   4.716   0.743   5.813 -1.3222  1.0206 -0.9245
   51MOL    H6636166   4.581   0.804   5.899  0.8293 -0.4148  2.6725
   51MOL    H6736167   4.437   0.631   5.803 -0.4164 -0.9676 -2.0845
   51MOL    H6836168   4.568   0.534   5.741 -0.6209 -0.0801  0.3796
   51MOL    H6936169   4.457   0.678   5.557  0.4149  1.1348 -1.3987
   51MOL    H7036170   4.495   0.810   5.650  0.8304  0.4542 -0.7660
   51MOL    H7136171   4.748   0.688   5.581  0.2540  1.5223  1.8111
   51MOL    H7236172   4.952   0.398   6.339  0.1484  0.2624  0.6347
   51MOL    H7336173   5.180   0.343   6.326 -1.3802  1.9317 -0.4854
   51MOL    C7436174   4.676   0.807   5.444 -0.6445  0.0890 -0.0461
   51MOL    O7536175   4.587   0.867   5.386 -0.0212 -0.1658 -0.0117
   51MOL    C7636176   4.825   0.802   5.395 -0.1519  0.0223 -0.1078
   51MOL    C7736177   4.917   0.710   5.449 -0.9595 -0.0022  0.0929
   51MOL    C7836178   5.047   0.717   5.406  0.6080 -0.1888 -0.3513
   51MOL    C7936179   5.094   0.809   5.316 -0.1321  0.5178  0.8162
   51MOL    C8036180   5.242   0.812   5.277  0.7986 -0.0719 -0.1091
   51MOL    O8136181   5.298   0.916   5.235  0.1839 -0.1346  0.6011
   51MOL    N8236182   5.300   0.698   5.287  0.7421  0.4269 -0.0992
   51MOL    C8336183   5.428   0.659   5.235  0.5801 -0.3271 -0.0750
   51MOL    C8436184   5.436   0.506   5.223  0.0054 -0.5232  0.5939
   51MOL    C8536185   5.505   0.465   5.096  0.5803 -0.1680  0.2088
   51MOL    C8636186   5.532   0.316   5.092  0.1797 -0.0717 -0.2153
   51MOL    C8736187   5.596   0.266   4.960  0.1091  1.0539  0.1380
   51MOL    C8836188   5.605   0.112   4.968  0.4079 -0.1253 -1.2152
   51MOL    N8936189   5.697   0.059   5.070  0.1870  0.4494 -0.7296
   51MOL    C9036190   5.000   0.897   5.256 -0.0359 -0.6981 -0.3816
   51MOL    C9136191   4.862   0.887   5.291 -1.2203  0.3033 -0.4019
   51MOL    H9236192   4.891   0.635   5.522 -2.2439  0.4799  0.1472
   51MOL    H9336193   5.113   0.638   5.440 -1.4377 -1.2385  1.2774
   51MOL    H9436194   5.233   0.628   5.317 -0.3033  1.4778  0.0582
   51MOL    H9536195   5.449   0.700   5.136  2.1821  0.1652  0.4558
   51MOL    H9636196   5.504   0.705   5.298  2.0861 -1.3241 -1.1194
   51MOL    H9736197   5.339   0.456   5.228 -1.0984  1.6459  1.2959
   51MOL    H9836198   5.492   0.473   5.310  1.1568  0.0142  0.0618
   51MOL    H9936199   5.444   0.505   5.015  1.9053  1.0729 -0.1879
   51MOL   H10036200   5.599   0.519   5.089  1.4357 -1.3912  1.9845
   51MOL   H10136201   5.443   0.256   5.111 -1.5457  3.1230  2.4227
   51MOL   H10236202   5.592   0.304   5.182 -0.3097  0.0861  0.1388
   51MOL   H10336203   5.689   0.317   4.935 -0.8224  3.5367  1.4822
   51MOL   H10436204   5.527   0.294   4.880  1.0177  3.1182  0.0337
   51MOL   H10536205   5.513   0.054   4.964 -1.1625  2.3309 -1.9684
   51MOL   H10636206   5.651   0.090   4.872  0.7235  1.3758 -1.4140
   51MOL   H10736207   5.796   0.063   5.050  0.6690  0.2796  1.4170
   51MOL   H10836208   5.045   0.955   5.176  0.6132  0.0327  0.5079
   51MOL   H10936209   4.796   0.951   5.234 -0.0790  2.6395  0.7803
   51MOL   C11036210   5.666   7.875   5.184  0.0535 -0.1166 -0.2198
   51MOL   O11136211   5.552   7.837   5.206  0.5068 -0.2640  0.5209
   51MOL   C11236212   5.777   7.842   5.281  0.0548 -0.2094  0.2324
   51MOL   C11336213   5.750   7.785   5.403 -0.8250  0.0924  0.2694
   51MOL   C11436214   5.863   7.757   5.485  0.1065  0.0134 -0.9317
   51MOL   C11536215   5.995   7.789   5.449 -0.4369  0.6732  0.3571
   51MOL   C11636216   6.117   7.771   5.535  0.4909  0.7581 -0.8850
   51MOL   O11736217   6.210   7.697   5.499  0.1569  0.2025  0.0648
   51MOL   N11836218   6.121   7.837   5.648 -0.1818  0.4419  0.0304
   51MOL   C11936219   6.225   7.841   5.747 -0.3591 -0.6400  0.2384
   51MOL   C12036220   6.287   0.099   5.761 -0.3613  0.2171  0.3753
   51MOL   C12136221   6.353   0.155   5.634 -0.5399  0.1423 -0.1076
   51MOL   C12236222   6.454   0.059   5.568  0.3429 -0.3041  0.5296
   51MOL   C12336223   6.497   0.085   5.416  0.3393 -0.0958  0.4147
   51MOL   C12436224   6.616   7.884   5.362  0.3521  0.0304  0.3868
   51MOL   N12536225   6.617   7.747   5.419  0.3343  0.9166  0.0538
   51MOL   C12636226   6.018   7.843   5.322 -0.7003  0.0391 -0.8116
   51MOL   C12736227   5.912   7.874   5.242  0.0846 -0.2027  0.0536
   51MOL   H12836228   5.648   7.776   5.439 -0.2763 -0.0234  1.8431
   51MOL   H12936229   5.841   7.713   5.581 -0.8435  0.0876 -1.1126
   51MOL   H13036230   6.048   0.020   5.658  0.1946  1.0510 -1.3133
   51MOL   H13136231   6.190   7.814   5.846 -2.0431  2.0304  0.4380
   51MOL   H13236232   6.307   7.770   5.737 -0.9157 -1.3047  0.4011
   51MOL   H13336233   6.357   0.105   5.845 -1.6580 -0.9777  1.5696
   51MOL   H13436234   6.205   0.163   5.793 -0.5540  0.4930 -0.6505
   51MOL   H13536235   6.264   0.160   5.571 -0.8512  0.0213  0.3178
   51MOL   H13636236   6.406   0.250   5.640 -0.1423 -0.0730 -0.2158
   51MOL   H13736237   6.430   7.839   5.571 -1.5981  0.1689  2.9762
   51MOL   H13836238   6.545   0.052   5.628  1.2474 -1.6601 -0.9452
   51MOL   H13936239   6.535   0.185   5.396  0.6992 -0.2602  0.2603
   51MOL   H14036240   6.417   0.064   5.346  0.6465  1.4881 -0.4290
   51MOL   H14136241   6.611   7.880   5.253 -1.5770 -2.7514  0.5231
   51MOL   H14236242   6.714   0.036   5.391  0.7463 -1.3941  0.9371
   51MOL   H14336243   6.529   7.700   5.403  1.0252  0.3562 -2.3215
   51MOL   H14436244   6.117   7.874   5.291 -0.5054  2.3041  1.8858
   51MOL   H14536245   5.940   0.025   5.145  1.5216  0.0420  0.5533
   51MOL   C14636246   6.709   7.679   5.489 -0.4063  0.3560  0.0493
   51MOL   O14736247   6.827   7.719   5.504  0.1938  0.2866  0.0560
   51MOL   C14836248   6.660   7.554   5.553  1.0035 -0.2783  0.2707
   51MOL   C14936249   6.524   7.522   5.550 -0.4574  0.0418 -0.1534
   51MOL   C15036250   6.480   7.402   5.606 -1.0076  0.1727 -0.5309
   51MOL   C15136251   6.571   7.305   5.659 -0.0164 -0.2453  0.5735
   51MOL   C15236252   6.523   7.172   5.720 -0.5907 -0.1702  0.4421
   51MOL   O15336253   6.405   7.166   5.758 -0.2173 -0.1917 -0.0423
   51MOL   N15436254   6.616   7.073   5.740  0.5943  0.1595  0.0335
   51MOL   C15536255   6.596   6.946   5.803  0.7275 -0.1455  0.0265
   51MOL   C15636256   6.582   6.972   5.954 -0.3883 -1.0193 -0.2746
   51MOL   C15736257   6.692   7.059   6.016  0.5676 -0.5310  0.4283
   51MOL   C15836258   6.829   6.980   6.025 -0.0706 -0.1922 -0.2987
   51MOL   C15936259   6.900   7.018   6.156 -0.0053  0.5158  0.0884
   51MOL   C16036260   7.033   6.954   6.171 -0.3386  0.4132  0.5074
   51MOL   N16136261   7.102   6.987   6.294  0.1990  0.2739  0.9433
   51MOL   C16236262   6.714   7.331   5.650  0.4083 -0.0948  0.8413
   51MOL   C16336263   6.757   7.456   5.593  0.4551  0.3462 -0.2436
   51MOL   H16436264   6.454   7.601   5.529  0.0498  0.8761  1.2521
   51MOL   H16536265   6.375   7.382   5.623 -0.4984 -2.0196  0.1251
   51MOL   H16636266   6.705   7.079   5.692 -0.0190 -1.8870 -1.4351
   51MOL   H16736267   6.507   6.898   5.762  0.9987 -1.0070  0.4495
   51MOL   H16836268   6.687   6.891   5.782  0.2260 -1.1993  0.6024
   51MOL   H16936269   6.569   6.874   6.000  1.6924 -0.9448  0.5404
   51MOL   H17036270   6.484   7.012   5.981 -0.5890 -1.1248 -0.8335
   51MOL   H17136271   6.695   7.158   5.970  1.6405 -0.6169  0.2973
   51MOL   H17236272   6.660   7.092   6.115  2.1257  1.2827  0.3637
   51MOL   H17336273   6.888   7.001   5.935 -0.9567  3.4971 -0.1329
   51MOL   H17436274   6.804   6.874   6.028 -0.2813 -0.1554 -0.6442
   51MOL   H17536275   6.839   6.990   6.242 -0.2268 -1.9451 -0.8232
   51MOL   H17636276   6.903   7.127   6.160 -2.1266  0.5842  0.6065
   51MOL   H17736277   7.040   6.848   6.150 -0.7788  0.2642  1.1040
   51MOL   H17836278   7.102   7.004   6.103 -0.3241 -1.1464 -0.6407
   51MOL   H17936279   7.134   7.083   6.299 -1.1661  0.8891 -1.5591
   51MOL   H18036280   6.779   7.257   5.694  0.1662 -0.1633  1.0799
   51MOL   H18136281   6.861   7.486   5.602  1.0876 -1.0331 -2.6789
   51MOL   C18236282   7.103   6.902   6.396 -0.2886 -0.2669 -0.6158
   51MOL   O18336283   7.063   6.787   6.386  0.1066  0.1145 -0.3503
   51MOL   C18436284   7.136   6.959   6.534  0.2361 -0.3918 -0.2382
   51MOL   C18536285   7.192   7.089   6.555  0.1225  0.1909  0.3662
   51MOL   C18636286   7.213   7.137   6.684  0.1093  0.0285 -0.4339
   51MOL   C18736287   7.168   7.069   6.798  0.4560 -0.2942 -0.6721
   51MOL   C18836288   7.189   7.114   6.936 -0.9054 -0.1855  0.3366
   51MOL   O18936289   7.289   7.180   6.969 -0.6530  0.8700 -0.1930
   51MOL   N19036290   7.090   7.078   7.016  0.2255 -0.2657 -0.8985
   51MOL   C19136291   7.072   7.125   7.149  0.0333 -0.3558  0.8890
   51MOL   C19236292   6.932   7.079   7.202 -0.6707 -0.8174  0.0604
   51MOL   C19336293   6.939   6.954   7.286  0.4775  0.1196 -0.1913
   51MOL   C19436294   6.977   6.827   7.216 -0.6463 -0.1602  0.5464
   51MOL   C19536295   6.986   6.704   7.312  0.7384  0.2699  0.4592
   51MOL   C19636296   6.854   6.625   7.332  0.5526 -0.1775  0.1265
   51MOL   N19736297   6.878   6.507   7.406 -0.3880  0.1124 -0.2466
   51MOL   C19836298   7.103   6.946   6.776  0.1142 -0.0465 -0.0764
   51MOL   C19936299   7.096   6.885   6.651 -0.0596 -0.1849  0.0303
   51MOL   H20036300   7.218   7.146   6.466 -0.5502 -0.2905 -0.1405
   51MOL   H20136301   7.250   7.238   6.695  0.1121  0.1074 -1.1247
   51MOL   H20236302   7.014   7.028   6.973  2.0502 -2.2640 -1.9167
   51MOL   H20336303   7.154   7.077   7.202  2.2001  1.5230 -0.7001
   51MOL   H20436304   7.079   7.233   7.142  3.1645 -0.3990  2.6192
   51MOL   H20536305   6.867   7.051   7.119  0.1906 -2.4312 -0.0801
   51MOL   H20636306   6.889   7.156   7.267  3.0874  1.3763  0.0883
   51MOL   H20736307   7.002   6.971   7.373 -0.2225 -0.7497  0.4904
   51MOL   H20836308   6.840   6.934   7.327  1.0349  1.1458  1.6873
   51MOL   H20936309   7.080   6.835   7.181 -0.7545 -1.3625 -0.0690
   51MOL   H21036310   6.913   6.808   7.130 -0.4003  1.2671  0.0335
   51MOL   H21136311   7.034   6.744   7.401 -0.6114  2.8445  0.0710
   51MOL   H21236312   7.057   6.635   7.267  1.2041  1.2363 -0.2886
   51MOL   H21336313   6.770   6.687   7.364  1.0230  0.3408  0.3567
   51MOL   H21436314   6.816   6.591   7.235  0.8067  2.4822 -0.9392
   51MOL   H21536315   6.970   6.488   7.443 -0.1710  1.2381 -0.2036
   51MOL   H21636316   7.064   6.894   6.862 -0.9480  1.2281  0.2296
   51MOL   H21736317   7.036   6.796   6.637  1.0898 -1.2352  1.6100
   51MOL   C21836318   6.781   6.417   7.431 -0.9786 -0.1284 -0.0163
   51MOL   O21936319   6.669   6.422   7.387 -0.1551 -0.0830 -0.2368
   51MOL   C22036320   6.820   6.304   7.517 -0.5825 -0.4215  0.7803
   51MOL   C22136321   6.760   6.175   7.498 -0.3894  0.3932  0.1576
   51MOL   C22236322   6.796   6.067   7.580 -0.5928 -0.3229 -0.6290
   51MOL   C22336323   6.899   6.085   7.676 -0.1784 -0.0315  0.9876
   51MOL   C22436324   6.944   5.967   7.756 -0.0154  0.6617  0.8938
   51MOL   O22536325   6.962   5.982   7.878 -0.0909 -0.5968 -0.0506
   51MOL   N22636326   6.973   5.847   7.700  0.0204 -0.1473 -0.1406
   51MOL   C22736327   7.048   5.737   7.771 -0.7511 -0.2064 -0.1215
   51MOL   C22836328   7.045   5.605   7.692 -0.0234 -1.5546 -0.1677
   51MOL   C22936329   7.131   5.494   7.759 -0.5676 -0.1077 -0.2906
   51MOL   C23036330   7.105   5.365   7.678  0.0624  0.0999  0.0702
   51MOL   C23136331   7.198   5.242   7.697 -0.6800 -0.1801  0.3306
   51MOL   C23236332   7.131   5.124   7.641  0.4928  0.1695  0.5743
   51MOL   N23336333   7.189   4.996   7.677  0.2051 -0.4178  0.5932
   51MOL   C23436334   6.951   6.209   7.704 -0.0065 -0.5293 -0.0184
   51MOL   C23536335   6.916   6.317   7.620  0.4713  0.0874 -0.9135
   51MOL   H23636336   6.694   6.155   7.415 -2.8705  2.7070  1.4955
   51MOL   H23736337   6.744   5.976   7.553 -1.0548  0.2494 -1.6874
   51MOL   H23836338   6.960   5.834   7.601  0.0888  2.5412 -0.5323
   51MOL   H23936339   7.150   5.776   7.770 -1.6059  2.1837  1.0724
   51MOL   H24036340   7.012   5.725   7.873  1.2477  0.8807  0.7506
   51MOL   H24136341   7.071   5.631   7.589 -1.7684  0.6838 -0.0899
   51MOL   H24236342   6.945   5.563   7.681  0.3355 -2.4332 -0.0498
   51MOL   H24336343   7.234   5.529   7.763  0.0208 -1.9918  2.0843
   51MOL   H24436344   7.102   5.491   7.864 -1.0187  0.3132 -0.3998
   51MOL   H24536345   7.090   5.381   7.571 -2.4378  0.8025  0.4980
   51MOL   H24636346   7.008   5.336   7.716 -0.2815  1.1148 -0.0337
   51MOL   H24736347   7.231   5.227   7.800 -1.4323 -0.1460  0.5875
   51MOL   H24836348   7.293   5.256   7.646 -0.9783 -0.4675 -0.3078
   51MOL   H24936349   7.028   5.126   7.676 -0.1902  1.2721 -1.4506
   51MOL   H25036350   7.128   5.145   7.534 -0.4301  0.3624  0.6393
   51MOL   H25136351   7.127   4.943   7.736 -1.6688  0.8937 -0.1374
   51MOL   H25236352   7.023   6.232   7.781  0.2965 -1.4757 -0.0173
   51MOL   H25336353   6.957   6.416   7.632 -1.4951  0.9485 -1.0003
   51MOL   C25436354   7.303   4.950   7.631 -0.1565  0.4062  0.0874
   51MOL   O25536355   7.370   5.012   7.551  0.0707 -0.3507 -1.0482
   51MOL   C25636356   7.350   4.816   7.692 -0.6664 -0.2039  0.2145
   51MOL   C25736357   7.267   4.740   7.775  0.0157 -0.3983 -0.3154
   51MOL   C25836358   7.323   4.630   7.843 -0.0239  0.1899  0.0019
   51MOL   C25936359   7.459   4.601   7.823 -0.4360  0.4134  0.5103
   51MOL   C26036360   7.518   4.473   7.875 -0.0391  0.1454 -0.3161
   51MOL   O26136361   7.627   4.472   0.042 -0.6785  0.0025 -0.2483
   51MOL   N26236362   7.437   4.369   7.878  0.1916 -0.5163  0.8937
   51MOL   C26336363   7.486   4.237   0.027  0.3748 -0.1433  0.6985
   51MOL   C26436364   7.365   4.136   0.041 -0.0958 -0.6274  0.1406
   51MOL   C26536365   7.410   4.017   0.124 -0.4555 -0.2400 -0.0404
   51MOL   C26636366   7.428   4.040   0.278  0.3918  0.0311 -0.3193
   51MOL   C26736367   7.441   3.916   0.359 -0.3291  0.2923  0.6850
   51MOL   C26836368   7.476   3.950   0.505 -0.2217 -0.3981  0.3321
   51MOL   N26936369   7.586   4.045   0.519 -0.2495  0.4051  0.3634
   51MOL   C27036370   7.544   4.690   7.747  0.3669  0.0295 -0.3273
   51MOL   C27136371   7.487   4.796   7.677 -0.0466 -0.5517  0.0141
   51MOL   H27236372   7.161   4.764   7.775  0.4789  1.7226 -0.0466
   51MOL   H27336373   7.265   4.559   0.013 -0.2900  0.4160  0.0132
   51MOL   H27436374   7.341   4.376   7.850  0.5326 -2.0992 -0.8599
   51MOL   H27536375   7.563   4.201   7.845 -0.4669 -1.4270  0.4002
   51MOL   H27636376   7.525   4.232   0.129 -0.6000 -0.6433  1.0508
   51MOL   H27736377   7.347   4.112   7.822 -2.2179 -1.3613  0.6472
   51MOL   H27836378   7.278   4.187   0.083 -0.1591 -0.8470  0.2739
   51MOL   H27936379   7.337   3.937   0.114 -1.0312  0.3623 -0.6037
   51MOL   H28036380   7.496   3.963   0.084  0.5340  0.5587  0.9748
   51MOL   H28136381   7.333   4.081   0.311  0.5080  0.0593 -0.0153
   51MOL   H28236382   7.507   4.113   0.295  0.1857  0.3694 -0.8169
   51MOL   H28336383   7.517   3.851   0.317 -1.5203  1.1717 -3.0108
   51MOL   H28436384   7.345   3.864   0.362  1.0290 -2.3963 -1.0822
   51MOL   H28536385   7.384   3.995   0.543  0.5431  1.6452 -0.1706
   51MOL   H28636386   7.506   3.868   0.571  0.1333 -0.4006  0.1720
   51MOL   H28736387   7.661   4.026   0.455  1.7682  1.8547  2.2552
   51MOL   H28836388   7.648   4.664   7.744  0.1675 -0.6261 -1.7217
   51MOL   H28936389   7.544   4.859   7.611  0.9307 -1.2538  0.1710
   51MOL   C29036390   7.602   4.126   0.625  0.1102 -0.1514  0.3249
   51MOL   O29136391   7.523   4.133   0.716  0.1011  0.3099  0.2018
   51MOL   C29236392   7.732   4.194   0.636 -0.9514 -0.3399 -0.0673
   51MOL   C29336393   7.805   4.242   0.525 -0.4801 -0.6962 -0.1173
   51MOL   C29436394   0.044   4.310   0.536  0.1651 -0.8810  0.0851
   51MOL   C29536395   0.089   4.342   0.662  0.1748  0.1530 -0.0953
   51MOL   C29636396   0.203   4.439   0.686  0.3464  0.2450  0.0103
   51MOL   O29736397   0.291   4.412   0.769 -0.0435  0.4943 -0.1551
   51MOL   N29836398   0.193   4.555   0.620 -0.4321 -0.3111 -0.7151
   51MOL   C29936399   0.266   4.677   0.642 -0.1874 -0.5809 -0.5076
   51MOL   C30036400   0.403   4.667   0.576 -0.3698 -0.4406  0.2414
   51MOL   C30136401   0.501   4.782   0.583  0.1794  0.6131 -0.7220
   51MOL   C30236402   0.642   4.735   0.531 -0.2056 -0.2047 -0.0333
   51MOL   C30336403   0.751   4.842   0.522 -0.3691  0.1323  0.4591
   51MOL   C30436404   0.741   4.933   0.397  0.2467 -0.0510  0.9830
   51MOL   N30536405   0.746   4.845   0.277  0.0769 -0.2635  0.4799
   51MOL   C30636406   0.029   4.282   0.776  0.5701 -0.4226  0.7777
   51MOL   C30736407   7.787   4.222   0.762 -0.1327  0.0236  1.3352
   51MOL   H30836408   7.763   4.220   0.428 -0.6010 -1.5238  0.1181
   51MOL   H30936409   0.095   4.345   0.447 -0.7283  0.4599  0.0711
   51MOL   H31036410   0.127   4.554   0.543  2.2005  2.3689 -3.1268
   51MOL   H31136411   0.213   4.763   0.600 -0.6081 -0.0740  1.0027
   51MOL   H31236412   0.292   4.709   0.743 -0.0649  1.7693 -1.2538
   51MOL   H31336413   0.385   4.635   0.474  1.0254 -1.5745  0.3332
   51MOL   H31436414   0.456   4.574   0.599  0.3408  0.4386  2.2935
   51MOL   H31536415   0.472   4.869   0.525 -0.0074  1.1170  0.1116
   51MOL   H31636416   0.514   4.821   0.684 -0.6491 -0.3289 -0.2419
   51MOL   H31736417   0.623   4.699   0.430 -2.7025  2.7879 -0.7179
   51MOL   H31836418   0.673   4.650   0.591  0.9865 -0.4167 -0.9429
   51MOL   H31936419   0.852   4.801   0.531 -0.4092 -0.4701 -1.4469
   51MOL   H32036420   0.741   4.901   0.612  0.7744  0.4758  0.3651
   51MOL   H32136421   0.645   4.984   0.402  0.9459  1.3063  0.5684
   51MOL   H32236422   0.825   5.000   0.411  0.7745 -0.6761  0.8244
   51MOL   H32336423   0.743   4.745   0.291  1.1923 -0.0882  2.1630
   51MOL   H32436424   0.077   4.295   0.873  0.9506 -0.3821  0.5853
   51MOL   H32536425   7.735   4.185   0.850 -1.4370 -1.4804 -0.0295
   51MOL   C32636426   0.767   4.892   0.152  0.3149  0.3092  0.7368
   51MOL   O32736427   0.779   5.012   0.124  0.8448 -0.1912 -0.1509
   51MOL   C32836428   0.789   4.784   0.047 -0.2057 -0.2266  0.7720
   51MOL   C32936429   0.891   4.805   7.834 -0.2320 -0.3645 -0.7738
   51MOL   C33036430   0.911   4.702   7.737  0.0664  1.1294  1.1250
   51MOL   C33136431   0.843   4.574   7.741 -0.0538 -0.2146 -0.7983
   51MOL   C33236432   0.886   4.464   7.656 -0.2516 -0.2988 -0.2760
   51MOL   O33336433   0.822   4.363   7.648 -0.2756  0.4689  0.1931
   51MOL   N33436434   1.003   4.480   7.590 -0.4033  0.0846 -0.2034
   51MOL   C33536435   1.076   4.371   7.538 -0.1446  0.0850 -0.3424
   51MOL   C33636436   1.020   4.309   7.413  0.1769 -0.5142  0.3072
   51MOL   C33736437   1.086   4.170   7.372  0.1107 -0.1956 -0.4586
   51MOL   C33836438   1.030   4.115   7.246 -0.2931 -0.2896 -0.4413
   51MOL   C33936439   1.040   3.969   7.233  0.2778  0.5780 -0.6276
   51MOL   C34036440   0.971   3.918   7.110  0.6396  0.0154  0.4188
   51MOL   N34136441   1.030   3.971   6.985  0.2426  0.3776 -0.0898
   51MOL   C34236442   0.741   4.558   7.842 -0.4224  0.2497  0.4378
   51MOL   C34336443   0.712   4.662   0.048 -0.1035 -0.7676 -0.2270
   51MOL   H34436444   0.949   4.896   7.833 -0.6611 -0.0441  1.3061
   51MOL   H34536445   0.986   4.723   7.663 -0.3713 -1.6466 -0.1772
   51MOL   H34636446   1.053   4.567   7.602 -0.9355  0.2788  0.6561
   51MOL   H34736447   1.181   4.400   7.526 -0.8675  2.3214 -1.7114
   51MOL   H34836448   1.077   4.303   7.623 -0.6819 -0.9721 -1.1657
   51MOL   H34936449   1.034   4.383   7.334  1.1281  0.2619  1.1967
   51MOL   H35036450   0.913   4.291   7.423  0.0919 -0.0176  0.2866
   51MOL   H35136451   1.195   4.170   7.378  0.1492 -0.8647 -1.1282
   51MOL   H35236452   1.065   4.098   7.451  0.1625  0.6645  0.3474
   51MOL   H35336453   1.078   4.160   7.159  1.0463 -0.1638  0.3541
   51MOL   H35436454   0.924   4.140   7.251 -0.3352 -0.5937  0.2269
   51MOL   H35536455   0.992   3.931   7.324 -0.3857  3.6949  0.3896
   51MOL   H35636456   1.143   3.941   7.253 -0.5781 -2.0971  0.2836
   51MOL   H35736457   0.969   3.809   7.105 -0.0365  0.0029  0.8479
   51MOL   H35836458   0.864   3.937   7.105  0.9557  1.7584 -0.0246
   51MOL   H35936459   1.131   3.979   6.982  0.1080  2.7672  0.7363
   51MOL   H36036460   0.691   4.463   7.853 -0.4333  0.2735  0.6019
   51MOL   H36136461   0.645   4.652   0.132  0.6055 -0.5173  0.3727
   51MOL   C36236462   0.965   3.989   6.871  0.6968 -0.2649 -0.0040
   51MOL   O36336463   0.847   3.955   6.852  0.7435 -0.1104 -0.4903
   51MOL   C36436464   1.047   4.046   6.759 -0.2175 -0.5448  0.4798
   51MOL   C36536465   1.057   3.971   6.641 -0.3357  0.3497 -0.3744
   51MOL   C36636466   1.142   4.028   6.537  1.2197  0.5796  0.1486
   51MOL   C36736467   1.207   4.152   6.552  0.3701  0.5945  0.5094
   51MOL   C36836468   1.294   4.198   6.442  0.3227  0.3975 -0.0905
   51MOL   O36936469   1.364   4.117   6.373  0.5345  0.4281 -0.2416
   51MOL   N37036470   1.286   4.332   6.418 -0.1781  0.4590  0.2504
   51MOL   C37136471   1.358   4.410   6.319  0.2009  0.0805  0.2178
   51MOL   C37236472   1.456   4.514   6.386 -0.7784 -0.2161  1.4862
   51MOL   C37336473   1.556   4.572   6.278 -0.2049 -0.1177 -0.3991
   51MOL   C37436474   1.649   4.679   6.333  0.4380 -0.5076  0.5389
   51MOL   C37536475   1.769   4.707   6.233  0.9902  0.4097 -0.2019
   51MOL   C37636476   1.862   4.805   6.293  0.5996  0.1595 -0.5325
   51MOL   N37736477   1.957   4.860   6.195  0.3009  0.0202 -0.0355
   51MOL   C37836478   1.189   4.225   6.674 -0.1504 -0.0894  0.5150
   51MOL   C37936479   1.114   4.167   6.778  0.0083 -0.4485 -0.4199
   51MOL   H38036480   1.008   3.875   6.631  0.3789 -0.3266  2.0365
   51MOL   H38136481   1.144   3.971   6.445  0.3990  1.1476 -0.2387
   51MOL   H38236482   1.226   4.390   6.474  0.2187  1.3263 -0.2161
   51MOL   H38336483   1.406   4.347   6.244 -0.7451 -0.3473 -0.0320
   51MOL   H38436484   1.284   4.467   6.262 -0.3274 -1.8056 -1.0126
   51MOL   H38536485   1.523   4.475   6.462  2.3349  0.6067 -0.7639
   51MOL   H38636486   1.393   4.590   6.432 -1.9418 -0.5371  0.4808
   51MOL   H38736487   1.625   4.498   6.238 -2.4919 -3.1491  1.0456
   51MOL   H38836488   1.502   4.604   6.189 -3.1833 -2.2035  0.5800
   51MOL   H38936489   1.696   4.646   6.425  2.5448  0.7634 -0.0390
   51MOL   H39036490   1.604   4.774   6.365  1.4534 -0.1365  0.8740
   51MOL   H39136491   1.718   4.734   6.140 -0.6746 -1.1125  0.2451
   51MOL   H39236492   1.827   4.617   6.217  2.2600  1.2128 -0.1939
   51MOL   H39336493   1.810   4.894   6.330  0.3903  0.1786 -0.8721
   51MOL   H39436494   1.914   4.766   6.381 -1.1098 -0.2708  0.2988
   51MOL   H39536495   2.015   4.796   6.143  0.4607  0.7639 -0.7854
   51MOL   H39636496   1.241   4.319   6.683  2.1338 -1.2098 -0.5370
   51MOL   H39736497   1.119   4.223   6.870 -0.3252 -1.3390  0.1455
   51MOL   C39836498   2.009   4.983   6.203 -0.0952 -0.0198 -0.3213
   51MOL   O39936499   1.957   5.077   6.272 -0.1146  0.8199  0.2327
   51MOL   C40036500   2.130   4.996   6.119  0.1609  0.5119  0.8209
   51MOL   C40136501   2.160   5.118   6.058 -0.4367  0.1839  0.1003
   51MOL   C40236502   2.270   5.130   5.979 -0.3203 -0.0933  0.4731
   51MOL   C40336503   2.362   5.030   5.964 -0.1271 -0.1045  0.4777
   51MOL   C40436504   2.494   5.053   5.890  0.2245  0.8093  0.1458
   51MOL   O40536505   2.605   5.023   5.936  0.0182 -0.2683  0.0234
   51MOL   N40636506   2.468   5.104   5.767  0.2112 -0.3032  0.4184
   51MOL   C40736507   2.560   5.155   5.666  0.3217  0.2555 -0.3507
   51MOL   C40836508   2.643   5.055   5.593 -0.2532  0.4523  0.1708
   51MOL   C40936509   2.713   5.122   5.469 -0.4826 -0.1138 -0.6715
   51MOL   C41036510   2.777   5.023   5.381  0.3284  0.5467 -0.1002
   51MOL   C41136511   2.853   5.103   5.269 -0.4657 -0.3221 -0.3695
   51MOL   C41236512   2.904   5.022   5.149 -0.2294  0.5937 -0.0267
   51MOL   N41336513   3.005   4.931   5.194  0.0553  0.5118 -0.6635
   51MOL   C41436514   2.341   4.904   6.026  0.1494 -0.0369  0.0035
   51MOL   C41536515   2.226   4.894   6.104 -0.3209  0.3692 -0.5915
   51MOL   H41636516   2.091   5.201   6.067 -1.9718 -0.9724 -0.6794
   51MOL   H41736517   2.299   5.225   5.935  0.6990 -0.4509  0.3617
   51MOL   H41836518   2.370   5.112   5.743  0.3323  2.7144  0.7670
   51MOL   H41936519   2.496   5.205   5.592 -0.1849 -1.6061 -1.2047
   51MOL   H42036520   2.627   5.229   5.708 -0.0118  0.2728  0.1563
   51MOL   H42136521   2.578   4.973   5.560 -0.8637  1.2458 -0.6051
   51MOL   H42236522   2.725   5.009   5.648  0.0119  2.0017  1.0970
   51MOL   H42336523   2.630   5.160   5.409  0.2007  2.7463  0.0724
   51MOL   H42436524   2.772   5.208   5.499 -4.2093  1.2068  3.5516
   51MOL   H42536525   2.707   4.946   5.347 -0.4813  1.3512 -0.2708
   51MOL   H42636526   2.848   4.965   5.440  0.0716 -0.9005 -1.1595
   51MOL   H42736527   2.928   5.174   5.303 -2.0005  0.4340  1.5327
   51MOL   H42836528   2.785   5.173   5.221  0.2871 -0.6134 -1.9133
   51MOL   H42936529   2.826   4.954   5.115 -0.2580  0.3422  0.5419
   51MOL   H43036530   2.927   5.080   5.059 -0.6538  1.4152  0.3871
   51MOL   H43136531   2.970   4.856   5.252 -0.3880 -0.5300 -2.2375
   51MOL   H43236532   2.414   4.824   6.028 -1.7283 -1.8085 -0.0776
   51MOL   H43336533   2.202   4.805   6.160  0.4875 -0.8174 -2.1195
   51MOL   C43436534   3.127   4.918   5.137  0.0706 -0.3577  0.1403
   51MOL   O43536535   3.170   5.006   5.058 -0.0317  0.2901 -0.0915
   51MOL   C43636536   3.193   4.793   5.170 -0.0495  0.6485  0.6092
   51MOL   C43736537   3.168   4.677   5.089  0.1544  0.8732 -0.5846
   51MOL   C43836538   3.227   4.556   5.118  0.2790 -0.3805 -0.1119
   51MOL   C43936539   3.301   4.543   5.236  0.1177 -0.6705  0.2930
   51MOL   C44036540   3.341   4.409   5.279 -0.3529  0.1593  0.9235
   51MOL   O44136541   3.429   4.354   5.218 -0.0799  0.1203 -0.0339
   51MOL   N44236542   3.270   4.362   5.376  0.0528 -0.3950  0.1717
   51MOL   C44336543   3.286   4.236   5.442  0.2897  0.7053  0.5150
   51MOL   C44436544   3.366   4.253   5.571 -0.4103 -0.9294  0.6601
   51MOL   C44536545   3.364   4.131   5.659  0.0298  0.1471 -0.4887
   51MOL   C44636546   3.442   4.130   5.796 -0.3646 -0.0012  0.8822
   51MOL   C44736547   3.431   4.008   5.882 -0.1006 -0.1962  0.4437
   51MOL   C44836548   3.486   3.886   5.808  0.4469 -0.2950  0.5415
   51MOL   N44936549   3.449   3.769   5.886 -0.3346  0.1444  0.1372
   51MOL   C45036550   3.328   4.653   5.321 -0.1745  0.0390 -0.2187
   51MOL   C45136551   3.282   4.776   5.281 -0.4254 -0.4474 -0.6771
   51MOL   H45236552   3.103   4.690   5.004 -1.7911  1.2962  0.9449
   51MOL   H45336553   3.202   4.472   5.056 -0.4694 -0.2671  0.0384
   51MOL   H45436554   3.192   4.414   5.416  0.4097 -1.0976  1.8018
   51MOL   H45536555   3.185   4.197   5.458  1.6870 -2.3579  2.2199
   51MOL   H45636556   3.345   4.173   5.376  0.0910 -2.3493  3.0913
   51MOL   H45736557   3.332   4.337   5.631  0.0225 -0.2835 -0.0034
   51MOL   H45836558   3.471   4.275   5.555 -0.6305 -2.0565 -2.6184
   51MOL   H45936559   3.260   4.113   5.688  0.1086  2.4994  1.4379
   51MOL   H46036560   3.384   4.052   5.587 -0.6594 -0.2549 -0.2497
   51MOL   H46136561   3.413   4.222   5.847  0.0250 -1.9332  4.7223
   51MOL   H46236562   3.543   4.157   5.765 -0.9104  0.0193 -0.9820
   51MOL   H46336563   3.325   3.994   5.899 -0.8447  5.4947  1.2696
   51MOL   H46436564   3.491   4.016   5.973  2.2065 -1.4695 -0.9130
   51MOL   H46536565   3.441   3.882   5.708  1.1655 -0.2072  0.2105
   51MOL   H46636566   3.594   3.879   5.794  0.2931  0.2238 -1.0962
   51MOL   H46736567   3.433   3.780   5.985  1.3545 -0.5649  0.5011
   51MOL   H46836568   3.393   4.641   5.406  1.4431 -0.5850 -1.5140
   51MOL   H46936569   3.314   4.868   5.326 -0.4365 -0.6106 -0.3326
   51MOL   C47036570   3.434   3.645   5.834 -0.5224  0.2563  1.0676
   51MOL   O47136571   3.473   3.615   5.716 -0.5107 -0.0450 -0.7461
   51MOL   C47236572   3.362   3.548   5.925 -0.1842 -0.2235  0.2072
   51MOL   C47336573   3.328   3.412   5.884  0.4379 -0.0583 -0.4148
   51MOL   C47436574   3.259   3.328   5.972  0.2961  0.1729 -0.8608
   51MOL   C47536575   3.223   3.371   6.102  0.0997  0.0307  0.6029
   51MOL   C47636576   3.141   3.277   6.188  0.2307  0.1027 -0.0327
   51MOL   O47736577   3.057   3.318   6.269  0.1136  0.2715 -0.3652
   51MOL   N47836578   3.166   3.143   6.169  0.4138 -0.1642 -0.8493
   51MOL   C47936579   3.094   3.033   6.229  0.4275  0.2533  0.3412
   51MOL   C48036580   3.167   2.990   6.357 -0.3573 -0.2319  0.5422
   51MOL   C48136581   3.203   3.095   6.462  0.0271 -0.2633 -0.7464
   51MOL   C48236582   3.310   3.043   6.563  0.1575  1.4047  0.0652
   51MOL   C48336583   3.357   3.154   6.664 -0.3961 -0.8862 -0.0700
   51MOL   C48436584   3.462   3.106   6.764 -0.6134 -0.1385  0.4397
   51MOL   N48536585   3.567   3.028   6.699 -0.3641  0.1257  0.2999
   51MOL   C48636586   3.252   3.500   6.140  0.7251  0.0021 -0.5667
   51MOL   C48736587   3.324   3.585   6.054 -0.5263 -0.0835  0.3521
   51MOL   H48836588   3.355   3.393   5.781  1.5191  1.3882 -0.4162
   51MOL   H48936589   3.256   3.225   5.941  3.2804 -0.0559 -0.5049
   51MOL   H49036590   3.251   3.120   6.121 -0.3862  2.8863 -3.9123
   51MOL   H49136591   2.988   3.055   6.245  0.1590 -0.9444  0.2446
   51MOL   H49236592   3.100   2.951   6.157 -1.2764  0.4284 -0.0413
   51MOL   H49336593   3.255   2.936   6.324  1.2615  1.2634  2.3063
   51MOL   H49436594   3.117   2.906   6.406  0.3377 -0.4225  0.9336
   51MOL   H49536595   3.246   3.179   6.407 -0.4691  0.6292  0.2213
   51MOL   H49636596   3.115   3.127   6.517 -0.1782 -1.2794 -0.4872
   51MOL   H49736597   3.396   3.013   6.504  1.3634  4.0859  0.3991
   51MOL   H49836598   3.261   2.963   6.620  2.3718  0.8544  1.2696
   51MOL   H49936599   3.274   3.201   6.718  0.9594  2.6055 -0.9133
   51MOL   H50036600   3.402   3.228   6.598 -2.1817  0.6856  0.3963
   51MOL   H50136601   3.506   3.192   6.815 -1.4080 -0.0262  0.9444
   51MOL   H50236602   3.407   3.053   6.842 -1.1209  0.5566  0.5584
   51MOL   H50336603   3.623   3.065   6.623  0.0472 -1.4915 -0.2012
   51MOL   H50436604   3.227   3.538   6.238  2.4319 -0.1043 -0.0668
   51MOL   H50536605   3.337   3.686   6.089 -0.6477  0.3672 -0.8501
   51MOL   C50636606   3.579   2.896   6.721  0.4498 -0.3276  0.2256
   51MOL   O50736607   3.500   2.833   6.786 -0.1439  0.1019 -0.3903
   51MOL   C50836608   3.683   2.826   6.634 -0.0692 -0.5138  0.0166
   51MOL   C50936609   3.806   2.891   6.615 -0.3055  0.8190  0.7282
   51MOL   C51036610   3.910   2.817   6.555 -0.1227  0.2299  0.3509
   51MOL   C51136611   3.889   2.687   6.512 -0.8040  0.8522  0.9074
   51MOL   C51236612   3.998   2.607   6.442 -0.5281 -0.0169  0.3412
   51MOL   O51336613   3.976   2.502   6.381  0.1370 -0.4027  0.5164
   51MOL   N51436614   4.118   2.668   6.433 -0.0458  0.6599  0.9109
   51MOL   C51536615   4.233   2.615   6.364 -1.2159 -0.1570  0.2274
   51MOL   C51636616   4.209   2.612   6.211 -0.3196  0.3288 -0.1366
   51MOL   C51736617   4.341   2.628   6.130 -0.1683  0.4518  0.2711
   51MOL   C51836618   4.308   2.655   5.983  0.4606  0.7398  0.5183
   51MOL   C51936619   4.437   2.672   5.902 -0.3969 -0.1716  0.1115
   51MOL   C52036620   4.412   2.699   5.748 -0.0827  0.3238  0.5129
   51MOL   N52136621   4.310   2.804   5.725  0.0710 -0.5285  0.4379
   51MOL   C52236622   3.768   2.619   6.533 -0.2959 -0.0171  0.4026
   51MOL   C52336623   3.667   2.689   6.603 -1.0057 -0.5852  0.1342
   51MOL   H52436624   3.816   2.993   6.649 -1.8827  0.8700  1.0847
   51MOL   H52536625   4.001   2.875   6.544 -1.2948  1.9906 -0.1683
   51MOL   H52636626   4.130   2.760   6.472  1.9464  0.3824  0.9963
   51MOL   H52736627   4.321   2.675   6.390  0.7182 -3.2023  0.9337
   51MOL   H52836628   4.261   2.515   6.395 -0.2988  0.3701  1.1579
   51MOL   H52936629   4.149   2.701   6.194 -1.2071 -0.1900  0.2495
   51MOL   H53036630   4.151   2.521   6.193  0.4744  0.0514 -1.3343
   51MOL   H53136631   4.407   2.705   6.170  0.7061 -0.7335  1.1392
   51MOL   H53236632   4.404   2.539   6.128  0.7072  1.0728 -1.7001
   51MOL   H53336633   4.237   2.738   5.986 -0.4192  0.0331 -0.5839
   51MOL   H53436634   4.256   2.569   5.941 -0.9833  0.4849  2.7794
   51MOL   H53536635   4.498   2.584   5.922 -0.4696  0.2078  2.2138
   51MOL   H53636636   4.487   2.754   5.955  1.0094 -0.6460 -0.4651
   51MOL   H53736637   4.512   2.723   5.712 -0.7093 -1.5660 -2.6816
   51MOL   H53836638   4.391   2.606   5.696 -1.2956  1.2763 -0.7480
   51MOL   H53936639   4.214   2.776   5.739 -0.2867  0.8184  0.7317
   51MOL   H54036640   3.775   2.511   6.524  1.8912  0.0447  0.9865
   51MOL   H54136641   3.584   2.636   6.647 -0.5436 -1.0799  0.4181
   51MOL   C54236642   4.338   2.933   5.717 -0.5029  0.1740 -0.2456
   51MOL   O54336643   4.453   2.974   5.687 -0.6158 -0.1819  0.2815
   51MOL   C54436644   4.226   3.026   5.748  0.5225  0.1691  1.0508
   51MOL   C54536645   4.118   2.979   5.823  0.7571 -0.6215 -0.2347
   51MOL   C54636646   4.021   3.071   5.869  0.1203 -0.1322 -0.4242
   51MOL   C54736647   4.032   3.210   5.838 -0.4341  0.1387 -0.3984
   51MOL   C54836648   3.942   3.315   5.907 -0.6598  0.1297  0.3475
   51MOL   O54936649   3.873   3.285   6.002  0.0581  0.1517 -0.3578
   51MOL   N55036650   3.933   3.434   5.840 -0.0735 -0.0812 -0.0701
   51MOL   C55136651   3.846   3.544   5.874  0.0332  0.6777 -0.0154
   51MOL   C55236652   3.931   3.673   5.869 -0.3229 -0.5506 -0.1530
   51MOL   C55336653   3.846   3.799   5.888  0.4122 -0.0256  0.1172
   51MOL   C55436654   3.920   3.935   5.896  0.3813 -0.8843 -0.4616
   51MOL   C55536655   3.827   4.053   5.875 -0.0662 -0.3424  0.6313
   51MOL   C55636656   3.905   4.178   5.895 -1.4299 -0.3190 -0.2262
   51MOL   N55736657   3.828   4.293   5.867 -0.3706 -0.3341 -0.5001
   51MOL   C55836658   4.141   3.250   5.758  1.0051  0.3402  0.0141
   51MOL   C55936659   4.243   3.164   5.714  0.4043  0.6300 -0.7411
   51MOL   H56036660   4.103   2.874   5.844 -0.9538 -0.6589 -1.4919
   51MOL   H56136661   3.940   3.045   5.936  0.3603  1.1529  0.3979
   51MOL   H56236662   3.988   3.443   5.755  0.8424  0.8950  0.6145
   51MOL   H56336663   3.773   3.547   5.793  1.3250 -2.3650 -1.3719
   51MOL   H56436664   3.804   3.527   5.973 -2.9333  0.0207 -1.3343
   51MOL   H56536665   3.988   3.687   5.777  1.2134 -1.2687  0.6631
   51MOL   H56636666   3.992   3.675   5.959  0.8032 -1.3484 -0.8773
   51MOL   H56736667   3.780   3.795   5.801  0.1649  1.1110  0.2496
   51MOL   H56836668   3.790   3.797   5.981 -2.8351 -0.2658 -1.7832
   51MOL   H56936669   4.004   3.943   5.828  0.1281  1.3560 -0.5287
   51MOL   H57036670   3.966   3.933   5.994  0.6183 -1.7101 -0.5823
   51MOL   H57136671   3.744   4.049   5.945 -1.4473  0.9878 -0.8926
   51MOL   H57236672   3.783   4.044   5.776  0.0789  0.3538  0.4975
   51MOL   H57336673   3.959   4.176   5.989 -0.6977  0.2209 -0.6328
   51MOL   H57436674   3.991   4.181   5.829  0.1356  2.2045  1.8747
   51MOL   H57536675   3.827   4.324   5.771  1.8761 -0.0492 -0.4611
   51MOL   H57636676   4.147   3.349   5.717 -0.5141 -0.5859 -2.5732
   51MOL   H57736677   4.328   3.198   5.657 -0.5680  0.1795 -2.5294
   51MOL   C57836678   3.769   4.367   5.958 -0.0301 -0.5359 -0.5590
   51MOL   O57936679   3.789   4.348   6.083 -0.2780  0.3304 -0.0147
   51MOL   C58036680   3.683   4.477   5.902 -1.3514 -0.2857 -0.2800
   51MOL   C58136681   3.661   4.600   5.975  0.0787  0.0158  0.0317
   51MOL   C58236682   3.566   4.695   5.930  0.0735  0.2006  0.9300
   51MOL   C58336683   3.490   4.673   5.816 -0.0996  0.4473 -0.1667
   51MOL   C58436684   3.387   4.767   5.764 -0.2339 -0.0001 -0.1426
   51MOL   O58536685   3.343   4.756   5.647  0.2338  0.0176 -0.4002
   51MOL   N58636686   3.340   4.851   5.852 -0.2346 -0.3308  0.2645
   51MOL   C58736687   3.224   4.933   5.836 -0.7042 -0.7247 -0.5592
   51MOL   C58836688   3.237   5.046   5.731  0.2167 -0.8547  0.2357
   51MOL   C58936689   3.106   5.129   5.711  0.8322  0.3060 -0.1446
   51MOL   C59036690   3.104   5.248   5.605  0.2775  0.3157 -0.3767
   51MOL   C59136691   3.164   5.370   5.662  0.4547  0.4361  0.3637
   51MOL   C59236692   3.152   5.477   5.560 -0.0288  0.2111 -0.1774
   51MOL   N59336693   3.260   5.474   5.461  0.3538  0.1668  0.4123
   51MOL   C59436694   3.515   4.555   5.740  0.5382  0.7436  0.6448
   51MOL   C59536695   3.609   4.459   5.783 -0.7366 -0.7472  0.0007
   51MOL   H59636696   3.714   4.609   6.069 -1.1444  0.0325  0.7299
   51MOL   H59736697   3.555   4.788   5.984  0.0786 -0.0590  1.3751
   51MOL   H59836698   3.371   4.835   5.946  0.9658 -0.0652 -0.0769
   51MOL   H59936699   3.144   4.860   5.817 -2.4367  0.9236  0.2973
   51MOL   H60036700   3.215   4.982   5.932  1.2790 -1.1630 -0.1292
   51MOL   H60136701   3.260   5.006   5.632 -0.6323  1.1689 -0.7953
   51MOL   H60236702   3.310   5.123   5.757  0.6877 -0.6629 -1.5600
   51MOL   H60336703   3.031   5.055   5.681 -0.1999  1.2165  0.1699
   51MOL   H60436704   3.069   5.170   5.805 -3.1346 -0.3755 -1.3007
   51MOL   H60536705   3.004   5.271   5.568 -1.2222 -1.8804  2.0750
   51MOL   H60636706   3.165   5.221   5.519  0.0338 -2.1103  0.1768
   51MOL   H60736707   3.272   5.357   5.678  0.4505  1.1051  1.0070
   51MOL   H60836708   3.117   5.393   5.758  0.5179  1.6277  0.1092
   51MOL   H60936709   3.060   5.474   5.502  0.3809  2.3034 -0.9874
   51MOL   H61036710   3.151   5.569   5.619 -0.5788 -1.2821  2.2201
   51MOL   H61136711   3.327   5.398   5.455  0.2965  0.2721 -2.3709
   51MOL   H61236712   3.463   4.533   5.647 -2.2112  0.1804  2.2604
   51MOL   H61336713   3.618   4.370   5.723 -0.8345 -1.0931  0.4963
   51MOL   C61436714   3.270   5.564   5.363 -0.4648 -0.4721  0.4491
   51MOL   O61536715   3.201   5.665   5.352 -0.1906 -0.0864  0.0230
   51MOL   C61636716   3.378   5.550   5.255  0.2008  0.1462  0.4680
   51MOL   C61736717   3.424   5.423   5.210  0.3635 -0.1516 -0.2418
   51MOL   C61836718   3.515   5.413   5.099 -0.2481 -0.2705 -0.3291
   51MOL   C61936719   3.562   5.532   5.042 -0.2775 -0.0216  0.1804
   51MOL   C62036720   3.651   5.522   4.921  0.0098 -0.1837  0.3061
   51MOL   O62136721   3.632   5.432   4.836 -0.5909 -0.6028 -0.2688
   51MOL   N62236722   3.750   5.612   4.917 -0.3520  0.1271  0.5162
   51MOL   C62336723   3.829   5.645   4.800 -0.2397  0.2386 -0.2651
   51MOL   C62436724   3.957   5.555   4.804  0.4519  0.4323 -0.5109
   51MOL   C62536725   3.943   5.415   4.754 -0.0388  0.4021 -0.4554
   51MOL   C62636726   4.062   5.319   4.792  0.0443 -0.5772 -0.0913
   51MOL   C62736727   4.037   5.168   4.770  0.2120 -0.5720 -0.0983
   51MOL   C62836728   4.165   5.090   4.760  0.3704 -0.0172  0.0084
   51MOL   N62936729   4.128   4.957   4.699 -0.2986  0.2395 -1.3473
   51MOL   C63036730   3.511   5.658   5.084 -0.1020 -0.5356 -0.1020
   51MOL   C63136731   3.420   5.666   5.187  0.2580 -0.1326 -0.0367
   51MOL   H63236732   3.390   5.341   5.273  1.5494  0.4294  1.1988
   51MOL   H63336733   3.552   5.319   5.062  0.5879 -0.2406  0.4080
   51MOL   H63436734   3.758   5.679   4.992  0.0423  1.3554 -0.6109
   51MOL   H63536735   3.776   5.640   4.705 -0.1105  0.3277 -0.3417
   51MOL   H63636736   3.874   5.745   4.799  0.4510 -0.0547 -2.3585
   51MOL   H63736737   3.998   5.543   4.904 -1.1331  0.6767  0.1861
   51MOL   H63836738   4.024   5.605   4.735 -0.9734  1.3188 -1.2689
   51MOL   H63936739   3.851   5.370   4.790  0.5511 -0.3608  0.1314
   51MOL   H64036740   3.939   5.427   4.646 -2.0875 -0.5743 -0.5102
   51MOL   H64136741   4.103   5.333   4.892 -1.3167  0.1538  0.3704
   51MOL   H64236742   4.141   5.348   4.723 -0.0811 -0.6161 -0.2497
   51MOL   H64336743   3.987   5.165   4.673 -1.1268  2.4362  0.4436
   51MOL   H64436744   3.970   5.119   4.841 -1.1574  2.3564  0.7256
   51MOL   H64536745   4.240   5.141   4.700  0.5315  0.1140  0.3220
   51MOL   H64636746   4.204   5.086   4.861  0.3508 -1.6967 -0.0305
   51MOL   H64736747   4.033   4.933   4.676 -0.9378  1.0473  0.3249
   51MOL   H64836748   3.548   5.748   5.036  1.0522 -0.6407  0.5644
   51MOL   H64936749   3.370   5.758   5.214 -1.3289 -1.1856  0.6382
   51MOL   C65036750   4.227   4.870   4.684 -0.4194 -0.7061 -0.7507
   51MOL   O65136751   4.351   4.906   4.699  0.4529 -0.5580  0.0187
   51MOL   C65236752   4.194   4.740   4.616  0.8935 -0.6923  0.0492
   51MOL   C65336753   4.274   4.628   4.641  0.4270  0.1540 -0.2753
   51MOL   C65436754   4.251   4.503   4.582  0.1491 -0.2472  0.1254
   51MOL   C65536755   4.138   4.483   4.500  0.7706  0.3414  0.5628
   51MOL   C65636756   4.120   4.346   4.436  0.4007  0.0544  0.5150
   51MOL   O65736757   4.180   4.249   4.471 -0.0517  0.0930 -0.5834
   51MOL   N65836758   4.053   4.353   4.319  0.0298  0.5792 -0.8633
   51MOL   C65936759   4.031   4.244   4.223 -0.3713  0.5254  0.2141
   51MOL   C66036760   3.883   4.223   4.210  0.4358  0.2808 -0.4585
   51MOL   C66136761   3.839   4.144   4.082 -0.0704 -0.1790 -0.2776
   51MOL   C66236762   3.684   4.141   4.061  0.2742  0.4429 -0.1905
   51MOL   C66336763   3.620   4.264   3.990 -0.3334 -0.2426  0.3019
   51MOL   C66436764   3.470   4.254   4.031  0.3464  0.7700  0.2598
   51MOL   N66536765   3.393   4.134   3.987 -0.1960  0.1178  0.1137
   51MOL   C66636766   4.043   4.585   4.495  0.0487 -0.7247 -0.3484
   51MOL   C66736767   4.071   4.712   4.553  0.3317  0.2649 -0.0666
   51MOL   H66836768   4.365   4.630   4.698  0.5018  0.8559 -0.4160
   51MOL   H66936769   4.320   4.424   4.609 -0.5579 -0.3724  1.6071
   51MOL   H67036770   4.024   4.446   4.292 -1.9120  0.0921 -0.5174
   51MOL   H67136771   4.062   4.281   4.125 -0.6726 -0.9518 -0.4495
   51MOL   H67236772   4.090   4.159   4.257  2.2155  0.8361 -3.1971
   51MOL   H67336773   3.830   4.318   4.198 -3.0054 -1.2639  1.6897
   51MOL   H67436774   3.847   4.166   4.295 -3.0778  1.2849 -1.1736
   51MOL   H67536775   3.873   4.205   3.998  0.2730  0.1737  0.1168
   51MOL   H67636776   3.878   4.042   4.083 -2.3653 -1.0732 -0.1464
   51MOL   H67736777   3.640   4.109   4.155 -0.7224 -0.5089 -0.9698
   51MOL   H67836778   3.660   4.051   4.005  2.8456  1.4645 -3.1099
   51MOL   H67936779   3.638   4.251   3.883 -0.2280  1.2571  0.1275
   51MOL   H68036780   3.663   4.359   4.021  0.2442 -0.4090  0.0191
   51MOL   H68136781   3.464   4.278   4.137 -0.0497 -0.8805  0.6271
   51MOL   H68236782   3.415   4.334   3.982 -0.6797  0.3722  0.7478
   51MOL   H68336783   3.393   4.059   4.056 -1.1751 -1.6441 -1.7468
   51MOL   H68436784   3.946   4.562   4.452 -0.7208  0.7404  0.5928
   51MOL   H68536785   3.992   4.786   4.547 -2.2206 -2.3717 -0.2200
   51MOL   C68636786   3.302   4.120   3.887 -0.1512  0.7040  0.7811
   51MOL   O68736787   3.279   4.216   3.814 -0.4203 -0.1700  0.0339
   51MOL   C68836788   3.228   3.983   3.873 -0.2787 -0.0918 -0.0487
   51MOL   C68936789   3.097   3.978   3.812  0.1649  0.1281  0.6050
   51MOL   C69036790   3.034   3.852   3.806  0.4642  0.4688  0.5460
   51MOL   C69136791   3.095   3.732   3.855 -0.5836  0.0189  0.4278
   51MOL   C69236792   3.027   3.598   3.838  0.1579 -0.0236 -0.4176
   51MOL   O69336793   2.927   3.588   3.762  0.2732 -0.2130  0.0042
   51MOL   N69436794   3.072   3.496   3.922 -0.8765 -0.4631  0.2553
   51MOL   C69536795   3.024   3.360   3.899  0.7159  0.3458 -0.5775
   51MOL   C69636796   3.090   3.262   3.996 -0.2907  0.4569 -0.0816
   51MOL   C69736797   3.036   3.113   3.969 -0.0570 -0.3596 -0.6275
   51MOL   C69836798   3.101   2.996   4.047 -0.3957  0.9755 -0.6094
   51MOL   C69936799   3.013   2.945   4.167 -0.0597  0.0139  0.5638
   51MOL   C70036800   3.004   3.048   4.280 -0.2488  0.5567  0.1418
   51MOL   N70136801   2.935   2.986   4.402 -0.3435 -0.6634 -0.3974
   51MOL   C70236802   3.221   3.745   3.916 -0.5518  0.1484 -1.0294
   51MOL   C70336803   3.291   3.867   3.915  0.0949 -0.4471 -0.3048
   51MOL   H70436804   3.044   4.062   3.769 -0.6059 -0.2219  0.8627
   51MOL   H70536805   2.943   3.861   3.747  1.0923 -0.7064 -0.6517
   51MOL   H70636806   3.141   3.519   3.992  0.7738 -0.2924 -1.3686
   51MOL   H70736807   2.918   3.358   3.923  0.4190 -1.3558 -1.8995
   51MOL   H70836808   3.031   3.333   3.793 -0.4522 -2.5652  0.0497
   51MOL   H70936809   3.071   3.287   4.101  0.1545  1.0568 -0.1374
   51MOL   H71036810   3.196   3.274   3.973 -0.8222  2.1097 -1.8071
   51MOL   H71136811   2.929   3.125   3.988 -0.3176 -2.7393 -0.4642
   51MOL   H71236812   3.053   3.098   3.863  1.4499 -0.7856 -0.3358
   51MOL   H71336813   3.208   3.002   4.065 -0.7380  1.9423  1.1074
   51MOL   H71436814   3.102   2.913   3.975  1.6120  1.0055 -0.6490
   51MOL   H71536815   3.070   2.860   4.205  2.5122  1.4163 -0.0015
   51MOL   H71636816   2.909   2.918   4.150 -0.2280  0.7940  0.3295
   51MOL   H71736817   3.102   3.090   4.302  0.6852 -2.8969  3.2018
   51MOL   H71836818   2.940   3.132   4.254 -1.0946 -0.7116 -2.0341
   51MOL   H71936819   2.999   2.910   4.423 -1.7470 -1.5632  0.7513
   51MOL   H72036820   3.283   3.664   3.951  0.2389  0.2203 -2.2226
   51MOL   H72136821   3.391   3.864   3.957 -0.2002 -2.2647  0.3139
   51MOL   H72236822   2.939   3.051   4.479 -1.4925  0.1424 -1.0173
   52MOL     C136823   4.406   4.196   1.992 -0.3410 -0.2711  0.2005
   52MOL     O236824   4.357   4.296   1.940 -0.3223 -0.2558 -0.6717
   52MOL     C336825   4.456   4.070   1.926  0.0228 -0.2311 -0.4075
   52MOL     C436826   4.529   3.979   1.993  0.5425  0.8070 -0.2369
   52MOL     C536827   4.590   3.866   1.938  0.3997 -0.2640  0.1303
   52MOL     C636828   4.564   3.835   1.806  0.3226 -0.3038  0.5610
   52MOL     C736829   4.607   3.707   1.738  1.4319  0.6175  0.0622
   52MOL     O836830   4.606   3.601   1.802  0.4590 -0.4403  0.2179
   52MOL     N936831   4.650   3.708   1.611 -0.1973  0.0205  0.0742
   52MOL    C1036832   4.724   3.606   1.534  0.2594  0.0809 -0.4072
   52MOL    C1136833   4.864   3.604   1.589  0.7074 -0.3603 -0.2121
   52MOL    C1236834   4.959   3.513   1.510 -0.5097  0.4898 -0.3731
   52MOL    C1336835   5.096   3.494   1.571 -0.2461  0.3139  0.9607
   52MOL    C1436836   5.184   3.404   1.486  0.3194 -0.3812 -0.5820
   52MOL    C1536837   5.192   3.436   1.336  0.0497  0.0518  0.4564
   52MOL    N1636838   5.089   3.379   1.256  0.1764 -0.3860  0.1275
   52MOL    C1736839   4.488   3.930   1.734  0.3146  0.1959  0.5709
   52MOL    C1836840   4.439   4.048   1.791 -0.1453 -0.2149  0.5989
   52MOL    H1936841   4.544   3.992   2.099 -1.9487 -1.3918  0.4746
   52MOL    H2036842   4.658   3.799   1.989  0.8994  0.2742  0.1744
   52MOL    H2136843   4.663   3.800   1.573 -1.0658  0.0281 -0.1980
   52MOL    H2236844   4.662   3.517   1.536  0.8354 -0.3214  2.4350
   52MOL    H2336845   4.735   3.638   1.431 -1.4299  0.1919 -0.5665
   52MOL    H2436846   4.858   3.579   1.695 -1.2847 -0.7201 -0.3898
   52MOL    H2536847   4.914   3.701   1.586  1.7596 -0.8814  0.0029
   52MOL    H2636848   4.917   3.413   1.513  1.4605 -0.3516  0.3080
   52MOL    H2736849   4.971   3.546   1.407  0.1737 -0.6919 -0.6778
   52MOL    H2836850   5.085   3.446   1.668 -2.9891  2.4879  1.7909
   52MOL    H2936851   5.138   3.594   1.579  1.6398 -0.2734 -0.8771
   52MOL    H3036852   5.155   3.299   1.490  2.4511 -0.9338  1.6821
   52MOL    H3136853   5.285   3.397   1.528 -0.6876 -1.3459  1.7817
   52MOL    H3236854   5.194   3.544   1.318  0.1084 -0.1093 -0.5720
   52MOL    H3336855   5.287   3.405   1.292 -1.3854 -2.1285 -1.1860
   52MOL    H3436856   5.029   3.450   1.217  0.0219 -0.2719  0.5693
   52MOL    H3536857   4.469   3.907   1.630  3.0947  0.8019 -0.1127
   52MOL    H3636858   4.387   4.118   1.727  2.0748  0.3353 -0.6746
   52MOL    H3736859   4.400   4.176   2.099 -2.5144  1.7259  0.4973
   52MOL    C3836860   5.072   3.257   1.203  0.3222 -0.5526 -0.8760
   52MOL    O3936861   5.147   3.170   1.236  0.4790 -0.2685 -0.2143
   52MOL    C4036862   4.960   3.235   1.107 -0.0983 -0.2621 -0.6064
   52MOL    C4136863   4.970   3.130   1.023  0.6027 -0.8285  0.3753
   52MOL    C4236864   4.879   3.114   0.917  0.8696  0.5868  0.0155
   52MOL    C4336865   4.767   3.203   0.897  0.0386 -0.3388 -0.1546
   52MOL    C4436866   4.664   3.194   0.789 -0.0465  0.5248 -0.2430
   52MOL    O4536867   4.617   3.284   0.728 -0.2539  0.4407 -0.4171
   52MOL    N4636868   4.625   3.068   0.754  0.6616  0.2347 -0.7733
   52MOL    C4736869   4.542   3.029   0.637 -0.3877  0.7861  0.1921
   52MOL    C4836870   4.628   3.005   0.513 -0.3368  0.7863 -0.1264
   52MOL    C4936871   4.557   2.987   0.378 -0.4015  0.3050 -0.4631
   52MOL    C5036872   4.500   3.113   0.323 -0.5694  0.3946 -0.1943
   52MOL    C5136873   4.595   3.227   0.275 -0.1006  0.7119 -0.9094
   52MOL    C5236874   4.660   3.200   0.143 -1.0930  0.4307 -0.5123
   52MOL    N5336875   4.565   3.179   0.036  0.0982 -0.0798  0.7881
   52MOL    C5436876   4.764   3.309   0.984 -0.0653 -0.5371  0.4388
   52MOL    C5536877   4.852   3.326   1.092  0.3465 -0.0863 -0.1291
   52MOL    H5636878   5.050   3.058   1.028 -0.1998 -1.6840  1.3042
   52MOL    H5736879   4.894   3.032   0.849 -0.2395 -0.6604  1.2532
   52MOL    H5836880   4.659   2.994   0.813 -1.8242 -0.5131 -0.2070
   52MOL    H5936881   4.487   2.940   0.668  1.3490 -0.4220 -0.0883
   52MOL    H6036882   4.479   3.113   0.611 -1.9528 -0.7618 -1.1619
   52MOL    H6136883   4.689   2.917   0.533  1.8410  2.1248 -0.7866
   52MOL    H6236884   4.690   3.094   0.517  0.4445  0.2884 -0.9279
   52MOL    H6336885   4.631   2.952   0.306  0.4170 -0.8816  0.9272
   52MOL    H6436886   4.480   2.910   0.382 -1.9061  1.8709  1.4858
   52MOL    H6536887   4.429   3.149   0.397  0.9533  0.0459  1.4600
   52MOL    H6636888   4.434   3.087   0.240  0.4500  0.2554 -0.9863
   52MOL    H6736889   4.677   3.243   0.346  0.4790 -1.4862 -1.0420
   52MOL    H6836890   4.545   3.323   0.270  0.3928  1.1389  1.3979
   52MOL    H6936891   4.734   3.276   0.119 -0.5766 -0.2171 -1.0092
   52MOL    H7036892   4.723   3.111   0.147 -0.8435  0.5975 -0.7427
   52MOL    H7136893   4.570   3.091   7.873 -2.7058 -0.0639  0.3881
   52MOL    H7236894   4.688   3.384   0.969  1.6647  1.0577 -0.6238
   52MOL    H7336895   4.830   3.410   1.156  1.9092 -0.0912  0.4099
   52MOL    C7436896   4.466   3.255   7.877  1.0682  0.6125  0.3441
   52MOL    O7536897   4.428   3.358   0.041  0.5853  0.7282  0.7024
   52MOL    C7636898   4.391   3.203   7.761  0.5492  0.2182  0.0050
   52MOL    C7736899   4.351   3.067   7.765  0.1979  0.0871  0.6652
   52MOL    C7836900   4.263   3.022   7.663  0.3588 -0.3867  0.1849
   52MOL    C7936901   4.236   3.103   7.546  0.0927  0.1598 -0.5402
   52MOL    C8036902   4.160   3.049   7.425  0.1245  0.0641  0.3579
   52MOL    O8136903   4.084   3.127   7.368  0.2096  0.1564  0.0677
   52MOL    N8236904   4.182   2.923   7.394 -0.3239  0.0844  0.4623
   52MOL    C8336905   4.095   2.852   7.298 -0.0281  0.3197 -0.6584
   52MOL    C8436906   4.020   2.733   7.357  0.3240  0.3956  0.7746
   52MOL    C8536907   3.979   2.630   7.252 -0.2817 -0.8350  0.0732
   52MOL    C8636908   3.933   2.504   7.334 -0.2275  0.1147 -0.2523
   52MOL    C8736909   3.849   2.406   7.256  0.7328  0.8689  0.5145
   52MOL    C8836910   3.922   2.344   7.133  0.4042  0.8440  0.2926
   52MOL    N8936911   3.837   2.263   7.045  0.1861 -0.8893  0.0773
   52MOL    C9036912   4.280   3.239   7.546  0.2055  0.2317 -0.2587
   52MOL    C9136913   4.355   3.286   7.654 -0.2786  0.1824  0.0325
   52MOL    H9236914   4.369   3.002   7.849  1.3801 -0.8888 -0.3198
   52MOL    H9336915   4.226   2.923   7.686  0.7796 -0.5678  0.0954
   52MOL    H9436916   4.232   2.870   7.464  1.1580 -0.9289 -1.3286
   52MOL    H9536917   4.018   2.920   7.263  0.7528  2.4700  1.6832
   52MOL    H9636918   4.138   2.828   7.201  1.7121  3.0475 -0.6171
   52MOL    H9736919   3.927   2.759   7.408 -1.0060 -1.7420 -0.4979
   52MOL    H9836920   4.061   2.686   7.446  0.3079 -2.8587 -0.8845
   52MOL    H9936921   3.904   2.672   7.186  1.0472 -0.3295 -1.1384
   52MOL   H10036922   4.065   2.605   7.190 -0.8162 -0.6678 -0.7427
   52MOL   H10136923   3.874   2.534   7.420  1.0309 -0.1086  0.7094
   52MOL   H10236924   4.024   2.452   7.366 -0.2020  1.1302  1.3803
   52MOL   H10336925   3.759   2.459   7.224  0.5901 -0.0724 -0.6898
   52MOL   H10436926   3.825   2.327   7.328 -1.9238 -1.3239 -2.6142
   52MOL   H10536927   3.968   2.423   7.074  1.8762  0.7378  1.2667
   52MOL   H10636928   4.009   2.289   7.169 -0.4406 -0.9398 -0.3150
   52MOL   H10736929   3.800   2.308   6.962 -0.6071 -1.7873 -0.0557
   52MOL   H10836930   4.268   3.301   7.458 -2.3809  0.7387  0.4228
   52MOL   H10936931   4.394   3.386   7.658  0.6931 -0.1996  0.4391
   52MOL   C11036932   3.836   2.135   7.018  0.4218 -0.3212  0.1854
   52MOL   O11136933   3.904   2.058   7.087 -0.9170  0.3660  0.1954
   52MOL   C11236934   3.738   2.082   6.916  0.2623  0.6305  0.6983
   52MOL   C11336935   3.766   2.053   6.778  0.3306  0.6642  0.6188
   52MOL   C11436936   3.661   1.998   6.691  0.0176  0.3659  0.0356
   52MOL   C11536937   3.533   1.970   6.735  0.3875 -0.2040 -0.8829
   52MOL   C11636938   3.425   1.907   6.652  0.3878  0.0231  0.2048
   52MOL   O11736939   3.331   1.846   6.699 -0.4777 -0.6901  0.1219
   52MOL   N11836940   3.434   1.946   6.525  0.5081 -0.2035  1.1750
   52MOL   C11936941   3.372   1.879   6.413 -0.0034 -0.0765 -0.4807
   52MOL   C12036942   3.434   1.740   6.389  0.4031  0.1993 -0.1085
   52MOL   C12136943   3.578   1.736   6.336 -0.2758  0.0934  0.3310
   52MOL   C12236944   3.631   1.596   6.368  0.6919  0.3564  0.1166
   52MOL   C12336945   3.676   1.591   6.515 -0.1982  0.4874  0.1328
   52MOL   C12436946   3.812   1.652   6.541  0.6346 -0.2818 -0.2031
   52MOL   N12536947   3.821   1.660   6.685  0.0214  0.0058 -0.4636
   52MOL   C12636948   3.509   2.001   6.871  0.3374  0.8998 -0.3086
   52MOL   C12736949   3.609   2.046   6.964 -0.8615  0.0571 -0.6577
   52MOL   H12836950   3.866   2.073   6.742 -0.5328  3.6960 -0.2548
   52MOL   H12936951   3.678   1.985   6.585 -2.7292  0.8175 -0.4949
   52MOL   H13036952   3.499   2.021   6.505 -1.2338  0.4147 -2.4743
   52MOL   H13136953   3.264   1.880   6.430 -0.1375  2.2052 -1.2719
   52MOL   H13236954   3.394   1.934   6.321 -1.6088  1.1711 -0.1600
   52MOL   H13336955   3.382   1.688   6.308 -0.4372  1.5028 -0.4247
   52MOL   H13436956   3.411   1.669   6.468  0.3165  1.5046  1.0515
   52MOL   H13536957   3.588   1.755   6.229  1.9301  0.2382  0.5451
   52MOL   H13636958   3.639   1.814   6.381  1.1714 -0.5536 -0.4836
   52MOL   H13736959   3.712   1.560   6.304  0.7737 -0.3367  0.5971
   52MOL   H13836960   3.553   1.525   6.345 -0.6186  2.4219 -1.9944
   52MOL   H13936961   3.675   1.483   6.531  1.9713  0.6351  1.5516
   52MOL   H14036962   3.600   1.624   6.586 -1.6827 -1.3169 -0.5740
   52MOL   H14136963   3.897   1.593   6.508  2.3092  1.3130  1.1725
   52MOL   H14236964   3.816   1.753   6.499  2.4773 -0.2878 -0.0573
   52MOL   H14336965   3.775   1.737   6.731  1.1691 -0.3793  1.4256
   52MOL   H14436966   3.406   1.996   6.904 -0.1163  0.7616 -1.7242
   52MOL   H14536967   3.585   2.085   7.062 -0.1035 -0.8959 -0.0849
   52MOL   C14636968   3.889   1.583   6.767 -0.0575  0.9008 -0.0923
   52MOL   O14736969   3.936   1.480   6.729  0.3445  0.2943  0.0502
   52MOL   C14836970   3.895   1.629   6.910 -0.0501  0.5616  0.0605
   52MOL   C14936971   3.812   1.730   6.957  0.7701 -0.2285 -0.2500
   52MOL   C15036972   3.818   1.779   7.090 -0.3058  0.7784 -0.2515
   52MOL   C15136973   3.894   1.708   7.184  0.2103 -0.4078  0.1633
   52MOL   C15236974   3.906   1.753   7.324  0.1448 -0.1824  0.3674
   52MOL   O15336975   3.981   1.692   7.404  0.0768 -0.0169 -0.0048
   52MOL   N15436976   3.844   1.868   7.347 -0.1981 -0.0307  0.2291
   52MOL   C15536977   3.845   1.935   7.474  0.2734  0.2844 -0.7859
   52MOL   C15636978   3.946   2.042   7.474 -0.1304  0.3537  0.1074
   52MOL   C15736979   3.930   2.134   7.597 -0.7827  0.6504 -0.1634
   52MOL   C15836980   4.044   2.237   7.595  0.5693 -0.2844  0.4793
   52MOL   C15936981   4.035   2.355   7.693 -0.3373  0.1365  0.4507
   52MOL   C16036982   4.137   2.468   7.669  0.1550  0.3797  0.5067
   52MOL   N16136983   4.132   2.577   7.768  0.4496 -0.2564  0.1934
   52MOL   C16236984   3.966   1.596   7.141 -0.6268  0.2408  0.0394
   52MOL   C16336985   3.980   1.566   7.003  0.5685 -0.0781 -0.0868
   52MOL   H16436986   3.745   1.784   6.893  0.0170 -0.2886  0.4741
   52MOL   H16536987   3.755   1.860   7.125  1.9750  2.0956  0.8985
   52MOL   H16636988   3.789   1.909   7.273 -0.6584 -0.7343  0.1768
   52MOL   H16736989   3.748   1.982   7.489 -1.1535 -2.4645 -1.0163
   52MOL   H16836990   3.870   1.868   7.556 -2.1218  0.7085  0.3231
   52MOL   H16936991   3.927   2.092   7.379 -1.0395 -3.0413 -1.5705
   52MOL   H17036992   4.043   1.993   7.477 -0.7453 -0.7668  2.4485
   52MOL   H17136993   3.828   2.174   7.596  0.1254  3.0889 -2.7723
   52MOL   H17236994   3.941   2.073   7.687  0.2265 -0.0382 -0.7476
   52MOL   H17336995   4.062   2.266   7.491 -0.4536 -2.9451 -0.4877
   52MOL   H17436996   4.143   2.195   7.615  1.9471  2.4437 -0.3389
   52MOL   H17536997   4.065   2.335   7.796  0.5495  1.5180  0.4787
   52MOL   H17636998   3.937   2.402   7.704 -0.5063 -0.1521  0.1809
   52MOL   H17736999   4.241   2.433   7.678 -0.3545 -1.3828 -0.1505
   52MOL   H17837000   4.127   2.511   7.569 -0.2920 -0.1187  0.3373
   52MOL   H17937001   4.214   2.587   7.826  0.7619  1.7316 -0.5428
   52MOL   H18037002   4.033   1.539   7.204  0.7509  0.4158 -1.2135
   52MOL   H18137003   4.051   1.496   6.961  1.0343  1.5664 -2.1663
   52MOL   C18237004   4.027   2.663   7.782 -0.3680  0.0088 -0.3018
   52MOL   O18337005   3.932   2.665   7.707  0.1799  1.1633 -0.3954
   52MOL   C18437006   4.044   2.762   0.000 -0.1457 -1.1071 -0.2110
   52MOL   C18537007   3.948   2.869   0.008 -0.1289  0.5265 -0.6379
   52MOL   C18637008   3.958   2.968   0.101  1.0415 -0.0579 -0.3694
   52MOL   C18737009   4.072   2.980   0.187 -0.7012  0.2185 -0.2703
   52MOL   C18837010   4.076   3.080   0.297  0.5651  0.1706 -0.4414
   52MOL   O18937011   4.103   3.048   0.410  0.0656  0.8631  0.0471
   52MOL   N19037012   4.052   3.205   0.253  0.1926  0.3286 -0.1836
   52MOL   C19137013   4.086   3.329   0.318 -0.2650 -1.1479  0.1756
   52MOL   C19237014   3.984   3.440   0.302  0.2492 -0.5358  0.2650
   52MOL   C19337015   3.841   3.401   0.350 -0.0242 -0.0867  0.3011
   52MOL   C19437016   3.741   3.514   0.317 -0.5117  0.4695 -1.0999
   52MOL   C19537017   3.616   3.537   0.398  0.6211 -0.0651  0.5727
   52MOL   C19637018   3.508   3.421   0.385 -0.0856 -0.0888 -0.4610
   52MOL   N19737019   3.383   3.454   0.457  0.7414 -0.3344  0.5323
   52MOL   C19837020   4.171   2.872   0.180 -0.6373  0.1162  0.3134
   52MOL   C19937021   4.156   2.762   0.093  0.0228  0.0474  0.4030
   52MOL   H20037022   3.863   2.868   7.828 -1.0970  3.3416  0.5137
   52MOL   H20137023   3.883   3.045   0.108 -0.0304 -1.2439  1.5659
   52MOL   H20237024   4.025   3.221   0.157  1.4281 -1.1620 -0.7883
   52MOL   H20337025   4.099   3.311   0.425  1.2801 -0.5660  0.1034
   52MOL   H20437026   4.184   3.366   0.287  0.1932 -2.9175 -0.5274
   52MOL   H20537027   3.984   3.479   0.200  1.0337 -3.5291 -0.9202
   52MOL   H20637028   4.015   3.523   0.365 -0.1251 -0.3947  0.2640
   52MOL   H20737029   3.813   3.304   0.306  2.3015 -0.1349 -1.1497
   52MOL   H20837030   3.839   3.384   0.458 -2.7831 -0.3201  0.2622
   52MOL   H20937031   3.713   3.511   0.211 -0.7674  0.2012 -1.0254
   52MOL   H21037032   3.804   3.603   0.321 -1.5043  1.1163  0.8270
   52MOL   H21137033   3.562   3.627   0.368  2.1733  1.8071  3.1172
   52MOL   H21237034   3.639   3.558   0.503 -1.1167  0.1165  0.9265
   52MOL   H21337035   3.490   3.396   0.280  0.4391  1.1701 -0.8614
   52MOL   H21437036   3.552   3.329   0.422  1.2965  0.5473 -0.4865
   52MOL   H21537037   3.370   3.418   0.551  0.1477 -2.1594 -0.2240
   52MOL   H21637038   4.253   2.859   0.249 -2.1147 -0.5349  1.9968
   52MOL   H21737039   4.222   2.677   0.098  1.6028  1.3054  1.4903
   52MOL   C21837040   3.280   3.520   0.409 -0.5930 -0.4496 -0.6569
   52MOL   O21937041   3.282   3.548   0.288 -1.1465 -0.1463  0.3426
   52MOL   C22037042   3.184   3.572   0.513 -0.4536  0.0379 -0.7156
   52MOL   C22137043   3.198   3.536   0.649  0.2085 -0.9221  0.4373
   52MOL   C22237044   3.124   3.601   0.748  0.9199 -0.2954  0.9573
   52MOL   C22337045   3.030   3.701   0.714 -0.6029  0.0535  0.7737
   52MOL   C22437046   2.940   3.757   0.813 -0.0943 -0.8341  0.4159
   52MOL   O22537047   2.887   3.692   0.907  0.4717 -0.2998  0.1089
   52MOL   N22637048   2.918   3.889   0.786  0.2524  0.0569  0.2537
   52MOL   C22737049   2.821   3.970   0.849  0.6762 -0.0494 -0.1409
   52MOL   C22837050   2.843   4.123   0.833 -0.2448  0.6157 -0.2608
   52MOL   C22937051   2.872   4.171   0.691  0.7733  0.0195 -0.1667
   52MOL   C23037052   2.906   4.325   0.679  0.9425 -0.0062 -0.1508
   52MOL   C23137053   2.797   4.411   0.745 -0.1028 -0.0185 -0.3811
   52MOL   C23237054   2.831   4.556   0.725 -0.3877  0.3151  0.0224
   52MOL   N23337055   2.836   4.599   0.585  0.0358 -0.4082 -0.2811
   52MOL   C23437056   3.011   3.730   0.575 -0.1953 -0.3183 -0.0941
   52MOL   C23537057   3.082   3.663   0.474  0.9615  0.0258  0.0194
   52MOL   H23637058   3.278   3.474   0.688  0.4965 -0.7232  0.1664
   52MOL   H23737059   3.137   3.570   0.851  1.3028 -0.0313  0.9894
   52MOL   H23837060   2.992   3.933   0.735  1.0583 -2.5943 -0.9569
   52MOL   H23937061   2.721   3.948   0.811  0.4925 -0.9669  0.8599
   52MOL   H24037062   2.808   3.944   0.954  1.7119 -0.9453 -0.2281
   52MOL   H24137063   2.920   4.154   0.904  1.0891  0.0689 -1.4487
   52MOL   H24237064   2.750   4.168   0.868 -1.6875 -2.1558 -0.4729
   52MOL   H24337065   2.962   4.122   0.655  0.2820 -0.5334 -0.6452
   52MOL   H24437066   2.790   4.149   0.623 -0.0993 -0.2707  0.9647
   52MOL   H24537067   2.904   4.344   0.572  1.0893 -2.6443 -0.6613
   52MOL   H24637068   3.007   4.350   0.711  1.3769 -2.2091  0.2991
   52MOL   H24737069   2.790   4.400   0.853 -0.0680 -0.8070 -0.4581
   52MOL   H24837070   2.699   4.386   0.705  0.7454 -1.3096 -1.7076
   52MOL   H24937071   2.751   4.620   0.763  0.2102  1.6979 -1.0000
   52MOL   H25037072   2.923   4.583   0.776 -0.2981  0.3318 -0.1466
   52MOL   H25137073   2.930   4.597   0.548 -0.1175  1.7278 -0.8235
   52MOL   H25237074   2.932   3.800   0.552 -0.5026  0.1126  2.1155
   52MOL   H25337075   3.063   3.701   0.374  2.2888  0.6549 -0.0093
   52MOL   C25437076   2.731   4.604   0.500  0.3466 -0.0984 -0.0042
   52MOL   O25537077   2.611   4.596   0.531 -0.2548  0.0930  0.8832
   52MOL   C25637078   2.765   4.629   0.360  0.5271 -0.4301  0.1776
   52MOL   C25737079   2.656   4.630   0.262  0.4769  0.3789 -0.1107
   52MOL   C25837080   2.680   4.665   0.134  0.4495 -0.1367  0.4957
   52MOL   C25937081   2.808   4.700   0.092  0.4099 -0.0547 -0.3580
   52MOL   C26037082   2.834   4.731   7.832 -0.0352  0.3558 -0.6084
   52MOL   O26137083   2.744   4.712   7.749 -0.2020 -0.1293 -0.6996
   52MOL   N26237084   2.945   4.791   7.810 -0.3150 -0.4276  0.5278
   52MOL   C26337085   2.987   4.818   7.669 -0.5398 -0.4117  0.2191
   52MOL   C26437086   3.146   4.855   7.671  0.5140  0.2222 -0.0795
   52MOL   C26537087   3.230   4.749   7.740 -0.5297  0.1429 -0.4069
   52MOL   C26637088   3.378   4.779   7.712 -0.0921 -0.1218 -0.0046
   52MOL   C26737089   3.438   4.892   7.808 -0.1989  0.1750 -0.0462
   52MOL   C26837090   3.573   4.941   7.749 -0.2228 -0.5980  0.6027
   52MOL   N26937091   3.632   5.041   7.834  0.4916  0.0689 -0.2085
   52MOL   C27037092   2.914   4.699   0.182 -0.3005 -0.1400 -0.2751
   52MOL   C27137093   2.898   4.667   0.318 -0.6965 -0.0253 -0.9159
   52MOL   H27237094   2.555   4.600   0.285 -0.6627  1.9748 -2.7812
   52MOL   H27337095   2.598   4.671   0.064  0.0961 -0.5372  0.8720
   52MOL   H27437096   3.010   4.818   7.882  0.7382  0.6500 -0.7918
   52MOL   H27537097   2.964   4.720   7.627  0.7257 -1.0634  1.0508
   52MOL   H27637098   2.930   4.894   7.615 -1.5167  0.1518  2.0161
   52MOL   H27737099   3.172   4.947   7.722 -0.5916  0.7483 -0.4460
   52MOL   H27837100   3.178   4.859   7.567  0.8418  1.4551  0.0643
   52MOL   H27937101   3.211   4.754   7.847  1.1927 -0.4458 -0.0522
   52MOL   H28037102   3.220   4.648   7.702  3.4040  0.4248 -2.4757
   52MOL   H28137103   3.394   4.815   7.610  0.4126  0.1980  0.1884
   52MOL   H28237104   3.440   4.691   7.729 -1.9405 -1.7528 -1.4634
   52MOL   H28337105   3.465   4.846   0.017  1.8242 -0.6957 -1.0227
   52MOL   H28437106   3.366   4.968   7.837 -1.2659 -1.8966  3.0764
   52MOL   H28537107   3.643   4.858   7.742 -0.6642 -0.8462 -1.0821
   52MOL   H28637108   3.557   4.990   7.653  0.6960 -1.3996  0.0268
   52MOL   H28737109   3.584   5.097   0.017 -0.6547 -0.2222 -0.7521
   52MOL   H28837110   3.016   4.720   0.152 -1.0980  1.5602 -1.8783
   52MOL   H28937111   2.966   4.699   0.396 -1.1146 -0.7233 -0.2585
   52MOL   C29037112   3.758   5.083   7.820 -0.4927  0.2035 -0.2923
   52MOL   O29137113   3.828   5.033   7.737  0.7910  0.5349 -0.3068
   52MOL   C29237114   3.795   5.199   0.018 -0.7220  0.2964 -0.0824
   52MOL   C29337115   3.927   5.215   0.058  0.3631  0.1276  0.8763
   52MOL   C29437116   3.980   5.336   0.106  0.1584 -0.1104 -0.8291
   52MOL   C29537117   3.888   5.443   0.125 -0.5826  0.3718 -1.3211
   52MOL   C29637118   3.932   5.583   0.160 -0.4908 -0.3437 -0.0256
   52MOL   O29737119   3.893   5.683   0.105 -0.6322 -0.4193  0.7405
   52MOL   N29837120   4.016   5.586   0.267  0.5386 -0.6251  0.4455
   52MOL   C29937121   4.088   5.703   0.310 -0.0076  0.2266  0.3054
   52MOL   C30037122   4.031   5.776   0.431 -0.2602 -0.0716 -0.4414
   52MOL   C30137123   3.934   5.882   0.389 -0.8026 -0.4051  0.1893
   52MOL   C30237124   3.876   5.955   0.511 -0.0467 -0.1235 -0.1196
   52MOL   C30337125   3.969   6.043   0.590 -0.7920 -0.9586  0.6789
   52MOL   C30437126   3.888   6.135   0.677  0.0794 -0.1674  0.6069
   52MOL   N30537127   3.826   6.074   0.790 -0.0763  0.3423  0.0308
   52MOL   C30637128   3.755   5.429   0.084 -0.1184 -0.6434  1.3885
   52MOL   C30737129   3.705   5.307   0.031  0.5752 -0.6827  0.7687
   52MOL   H30837130   3.999   5.135   0.046 -0.8330 -0.6984 -1.0015
   52MOL   H30937131   4.084   5.357   0.123 -0.0216  1.6022 -1.7268
   52MOL   H31037132   4.051   5.495   0.293 -0.5134 -1.2669 -0.3583
   52MOL   H31137133   4.185   5.663   0.339 -0.2904 -0.7972 -0.1219
   52MOL   H31237134   4.105   5.773   0.227  1.0409 -0.5970 -0.1905
   52MOL   H31337135   4.113   5.818   0.489 -1.5509  0.2897  1.1826
   52MOL   H31437136   3.980   5.708   0.500 -0.9939  3.3220  2.5188
   52MOL   H31537137   3.982   5.947   0.316  0.6036 -2.4721 -0.7715
   52MOL   H31637138   3.847   5.843   0.337 -0.7211 -1.2717  0.6912
   52MOL   H31737139   3.836   5.878   0.576  0.5320  0.5407  1.0306
   52MOL   H31837140   3.792   6.012   0.472 -0.6480 -0.3265  0.8855
   52MOL   H31937141   4.018   6.104   0.515  2.5275 -0.4240  3.1838
   52MOL   H32037142   4.052   5.997   0.644 -1.6574 -1.7206  1.3888
   52MOL   H32137143   3.955   6.206   0.725  0.7309 -0.6411  0.3932
   52MOL   H32237144   3.812   6.186   0.618 -0.7627 -1.1610  0.8018
   52MOL   H32337145   3.816   5.974   0.781 -0.3538  0.4246 -0.5534
   52MOL   H32437146   3.689   5.514   0.073  1.3176  0.3871  0.6200
   52MOL   H32537147   3.606   5.295   7.874  0.6908 -0.0315  0.3247
   52MOL   C32637148   3.770   6.142   0.892 -0.1084 -0.2672 -0.5562
   52MOL   O32737149   3.748   6.262   0.883 -0.4966  0.7173  0.1834
   52MOL   C32837150   3.728   6.071   1.016  0.0350  0.1665 -0.3016
   52MOL   C32937151   3.672   6.150   1.122 -0.0164  0.7862 -0.6484
   52MOL   C33037152   3.638   6.094   1.246 -0.4757 -0.1638  0.4567
   52MOL   C33137153   3.663   5.955   1.270  0.5429  0.4944 -0.4145
   52MOL   C33237154   3.637   5.893   1.406  0.0418  0.4403 -0.2288
   52MOL   O33337155   3.708   5.799   1.444  0.2318 -0.1965 -0.6258
   52MOL   N33437156   3.542   5.946   1.485  0.5138  0.1232 -0.1855
   52MOL   C33537157   3.507   5.901   1.623 -0.0930 -0.0808 -0.0949
   52MOL   C33637158   3.576   5.981   1.738  0.5681 -0.4319  0.8899
   52MOL   C33737159   3.530   5.959   1.880 -0.1165 -0.5610 -0.5121
   52MOL   C33837160   3.607   6.049   1.981 -0.4632 -0.1834 -0.1395
   52MOL   C33937161   3.749   5.990   2.021 -0.0789 -0.2492 -0.9400
   52MOL   C34037162   3.741   5.848   2.087 -0.6079  0.0043  0.3428
   52MOL   N34137163   3.642   5.852   2.197 -0.3831 -0.1307 -0.5222
   52MOL   C34237164   3.706   5.875   1.163  0.0396  0.3430 -0.0651
   52MOL   C34337165   3.746   5.934   1.038  0.5615 -0.4245 -0.3950
   52MOL   H34437166   3.659   6.257   1.113  0.4656  0.7699 -1.5601
   52MOL   H34537167   3.599   6.152   1.328 -1.1751  0.3066 -0.2102
   52MOL   H34637168   3.492   6.026   1.450  1.5154  1.5840  1.6404
   52MOL   H34737169   3.401   5.925   1.630  0.4787  1.9255  2.1147
   52MOL   H34837170   3.511   5.794   1.646 -0.7141  0.1850  1.2502
   52MOL   H34937171   3.565   6.083   1.702  0.7132 -1.1171 -1.1908
   52MOL   H35037172   3.683   5.960   1.746  0.6368  0.5020  2.5826
   52MOL   H35137173   3.426   5.990   1.880 -0.2733 -1.0740 -1.4314
   52MOL   H35237174   3.526   5.853   1.904 -1.2776 -0.4184 -0.0465
   52MOL   H35337175   3.548   6.052   2.073  2.2822  1.9644  1.6291
   52MOL   H35437176   3.625   6.149   1.940  0.3219 -0.9860 -1.8217
   52MOL   H35537177   3.805   6.063   2.078 -1.0354 -0.6166  0.4798
   52MOL   H35637178   3.808   5.970   1.931 -2.2671 -1.9888 -2.0435
   52MOL   H35737179   3.715   5.771   2.015  0.3952  0.8575 -0.9522
   52MOL   H35837180   3.837   5.823   2.130 -0.1882 -0.0410 -0.6105
   52MOL   H35937181   3.606   5.937   2.237 -1.0637 -0.9655  0.6850
   52MOL   H36037182   3.723   5.769   1.175 -0.2748  0.3901  0.8277
   52MOL   H36137183   3.775   5.875   0.952 -3.9145  2.1277 -3.8621
   52MOL   C36237184   3.609   5.741   2.259  0.3547  0.3302  1.0698
   52MOL   O36337185   3.619   5.630   2.205 -0.4655  0.3143 -0.7410
   52MOL   C36437186   3.554   5.761   2.399 -0.4936  0.7994 -0.1704
   52MOL   C36537187   3.608   5.855   2.486 -0.9025  0.1301  0.3113
   52MOL   C36637188   3.558   5.874   2.617  0.5317  0.5917 -0.5423
   52MOL   C36737189   3.456   5.783   2.665 -0.5324 -0.2245  0.0942
   52MOL   C36837190   3.406   5.801   2.808 -0.0050 -0.2090 -0.5771
   52MOL   O36937191   3.464   5.870   2.892 -0.1629  0.4549  0.4152
   52MOL   N37037192   3.300   5.722   2.838  0.0758 -0.1759 -0.2971
   52MOL   C37137193   3.246   5.710   2.972 -0.3486 -0.2190  0.0043
   52MOL   C37237194   3.113   5.787   2.992  0.5063 -0.1447  0.2037
   52MOL   C37337195   3.010   5.751   2.883  0.2335 -0.7336 -0.2459
   52MOL   C37437196   2.872   5.823   2.881  0.9526 -0.7119 -0.3753
   52MOL   C37537197   2.765   5.746   2.814 -0.0143 -0.0209  0.1035
   52MOL   C37637198   2.784   5.726   2.661  0.1294 -0.1936 -0.2825
   52MOL   N37737199   2.898   5.643   2.622  0.2662  0.2553  0.7829
   52MOL   C37837200   3.410   5.680   2.580  0.0644  0.1945 -0.4342
   52MOL   C37937201   3.457   5.672   2.450  0.3306  0.1775  0.0975
   52MOL   H38037202   3.686   5.918   2.448 -0.0979 -0.3007  1.2159
   52MOL   H38137203   3.592   5.963   2.668  1.0352 -0.3232  0.7310
   52MOL   H38237204   3.259   5.663   2.768 -0.0572 -0.4511  0.0152
   52MOL   H38337205   3.233   5.602   2.983 -0.5725 -0.1902  0.0139
   52MOL   H38437206   3.312   5.752   3.047 -0.2582  1.9179 -1.2069
   52MOL   H38537207   3.150   5.888   2.976 -0.8562 -0.0178 -2.3320
   52MOL   H38637208   3.066   5.767   3.088 -0.5312 -1.1176 -0.4935
   52MOL   H38737209   3.054   5.765   2.784 -0.2795 -1.3186 -0.5629
   52MOL   H38837210   2.988   5.645   2.900 -1.9911 -0.3352 -0.5342
   52MOL   H38937211   2.887   5.919   2.832 -0.5345 -1.1386 -1.7222
   52MOL   H39037212   2.846   5.845   2.985 -1.7228 -2.8173 -0.5221
   52MOL   H39137213   2.668   5.792   2.829 -1.2918 -2.7544  0.4743
   52MOL   H39237214   2.760   5.654   2.872  0.5182 -0.8560 -1.1668
   52MOL   H39337215   2.696   5.670   2.629  1.3406 -0.6412 -2.9685
   52MOL   H39437216   2.779   5.818   2.603 -0.9130 -0.6856 -0.9862
   52MOL   H39537217   2.907   5.545   2.641 -1.0480  0.2236  1.2990
   52MOL   H39637218   3.344   5.604   2.622 -0.5963  1.0788  0.1493
   52MOL   H39737219   3.423   5.588   2.392 -2.5242  0.2979  1.5181
   52MOL   C39837220   2.987   5.675   2.523 -0.1077 -0.0590  0.4128
   52MOL   O39937221   3.006   5.784   2.466 -0.9036 -1.1554 -0.5950
   52MOL   C40037222   3.077   5.562   2.483 -0.3156  0.1263  0.2840
   52MOL   C40137223   3.132   5.469   2.570  0.1661 -0.9887 -0.5833
   52MOL   C40237224   3.219   5.365   2.536  0.4146 -0.4120  0.1054
   52MOL   C40337225   3.245   5.341   2.401 -0.6267 -0.6811  0.5505
   52MOL   C40437226   3.344   5.234   2.374  0.5649  0.1981  0.3095
   52MOL   O40537227   3.421   5.189   2.457  0.4828 -0.3359  0.0500
   52MOL   N40637228   3.336   5.180   2.256  0.1922 -0.4981 -0.4013
   52MOL   C40737229   3.428   5.080   2.214 -0.4821  0.0511  0.5830
   52MOL   C40837230   3.357   4.950   2.213  0.5571  0.0401 -0.1217
   52MOL   C40937231   3.437   4.831   2.153  0.0600 -0.5758 -0.9355
   52MOL   C41037232   3.565   4.798   2.227 -0.1264  0.5358  0.2537
   52MOL   C41137233   3.628   4.659   2.198 -0.1153  0.4847 -0.0632
   52MOL   C41237234   3.749   4.647   2.288 -0.4183 -0.8339  0.0218
   52MOL   N41337235   3.793   4.506   2.275 -0.1551 -0.3989  0.1213
   52MOL   C41437236   3.194   5.431   2.306  0.0986  0.8743  0.2031
   52MOL   C41537237   3.109   5.534   2.350  0.4712 -0.3525 -0.6084
   52MOL   H41637238   3.112   5.480   2.676 -2.7034 -0.0115 -1.1633
   52MOL   H41737239   3.261   5.310   2.619  0.5254 -0.7774 -0.1924
   52MOL   H41837240   3.264   5.208   2.190 -1.0462  1.1044  1.5755
   52MOL   H41937241   3.457   5.089   2.110  1.7932 -0.4934  1.1474
   52MOL   H42037242   3.521   5.062   2.268  0.1038 -1.5410 -0.9116
   52MOL   H42137243   3.264   4.964   2.158  1.1443  2.0283 -0.6623
   52MOL   H42237244   3.330   4.926   2.316  0.8870  0.5220  0.0806
   52MOL   H42337245   3.371   4.745   2.144  0.7441 -1.1512 -0.5050
   52MOL   H42437246   3.461   4.848   2.048  1.8771 -1.3334 -0.6549
   52MOL   H42537247   3.543   4.786   2.333 -0.1836 -0.6793  0.1202
   52MOL   H42637248   3.634   4.878   2.201 -1.5387  1.0469 -2.1266
   52MOL   H42737249   3.654   4.655   2.092  0.4641  0.4818  0.0748
   52MOL   H42837250   3.554   4.583   2.223  0.0962  0.0529 -0.7134
   52MOL   H42937251   3.827   4.717   2.259 -1.2683  0.4523  0.7957
   52MOL   H43037252   3.733   4.650   2.395  0.6671  1.5134  0.1431
   52MOL   H43137253   3.746   4.439   2.334 -1.1244  2.1607  2.3172
   52MOL   H43237254   3.206   5.420   2.200  0.3648 -0.2063  0.3339
   52MOL   H43337255   3.072   5.589   2.265  0.4210 -2.9157 -2.3047
   52MOL   C43437256   3.913   4.467   2.218  0.0439  0.5493 -0.0655
   52MOL   O43537257   3.998   4.540   2.183 -0.5724  0.2248 -0.2712
   52MOL   C43637258   3.942   4.320   2.219 -0.0496 -0.3972 -0.0227
   52MOL   C43737259   3.833   4.227   2.187  0.1254  0.0219  0.3208
   52MOL   C43837260   3.864   4.088   2.166  0.2568 -0.2908  0.1605
   52MOL   C43937261   3.999   4.047   2.166 -0.8636  0.0110  0.7284
   52MOL   C44037262   4.040   3.907   2.121 -0.0315  0.0600  0.6503
   52MOL   O44137263   3.950   3.824   2.130  0.4960  0.0258 -0.0897
   52MOL   N44237264   4.162   3.876   2.082 -0.3051  0.5152 -0.1350
   52MOL   C44337265   4.209   3.749   2.032  0.5031 -0.0540  0.3024
   52MOL   C44437266   4.191   3.739   1.886  0.3827 -0.6091  0.2510
   52MOL   C44537267   4.227   3.599   1.829  0.1336  0.6316 -0.6568
   52MOL   C44637268   4.202   3.587   1.675  0.5531 -0.0012  0.3771
   52MOL   C44737269   4.256   3.451   1.624 -0.6496  0.8496  0.1201
   52MOL   C44837270   4.232   3.430   1.469  0.2596 -0.1104  0.1679
   52MOL   N44937271   4.312   3.532   1.393 -0.3037 -0.0603  0.3053
   52MOL   C45037272   4.101   4.136   2.215  0.6740 -0.1824  0.2321
   52MOL   C45137273   4.074   4.273   2.238 -0.5141  0.1282 -0.1155
   52MOL   H45237274   3.735   4.264   2.162 -0.6876 -0.4409  2.6730
   52MOL   H45337275   3.788   4.022   2.128  1.1536 -2.3588  1.8047
   52MOL   H45437276   4.230   3.948   2.100 -0.3156  0.4707  0.0826
   52MOL   H45537277   4.315   3.743   2.058  0.6095  0.1224 -0.0942
   52MOL   H45637278   4.165   3.668   2.090  0.2888  1.0401  1.6928
   52MOL   H45737279   4.240   3.822   1.834  1.6474 -0.1177  2.1823
   52MOL   H45837280   4.088   3.745   1.852  0.9207  1.8258 -1.1263
   52MOL   H45937281   4.333   3.581   1.850  0.5224  2.4573 -0.9906
   52MOL   H46037282   4.163   3.523   1.874 -1.4045  1.3264 -1.6246
   52MOL   H46137283   4.241   3.672   1.619  1.4983 -1.6443 -1.4999
   52MOL   H46237284   4.095   3.594   1.652  1.2473  1.6586 -2.6099
   52MOL   H46337285   4.214   3.372   1.687 -2.0314  1.3302 -0.1949
   52MOL   H46437286   4.362   3.456   1.648 -0.3705  1.2038 -1.1295
   52MOL   H46537287   4.257   3.333   1.426 -0.4588 -0.1357 -0.2073
   52MOL   H46637288   4.127   3.448   1.444 -0.1626  0.4181  2.2008
   52MOL   H46737289   4.291   3.631   1.396  1.7785  0.4023  0.3365
   52MOL   H46837290   4.203   4.103   2.218  1.3929  1.7613 -1.4954
   52MOL   H46937291   4.156   4.336   2.268  0.8099 -1.1999 -0.8954
   52MOL   C47037292   4.419   3.500   1.320 -0.1421 -0.7539 -0.3647
   52MOL   O47137293   4.457   3.387   1.302 -0.1504 -0.0244  0.2946
   52MOL   C47237294   4.498   3.622   1.273  0.5210 -0.0850  0.2784
   52MOL   C47337295   4.465   3.758   1.311  0.3484 -0.0406 -0.2578
   52MOL   C47437296   4.541   3.860   1.253  0.9197 -0.2366  0.2688
   52MOL   C47537297   4.652   3.830   1.161  0.1786  0.4334  0.0503
   52MOL   C47637298   4.723   3.947   1.106  0.1426  0.3271  0.2940
   52MOL   O47737299   4.760   3.958   0.989 -0.4410 -0.4830 -0.0072
   52MOL   N47837300   4.755   4.039   1.197 -0.2378  0.1566  0.3017
   52MOL   C47937301   4.808   4.168   1.156 -0.1635  0.4572  0.6539
   52MOL   C48037302   4.870   4.257   1.263  0.7361  0.0658  0.4267
   52MOL   C48137303   4.996   4.192   1.321 -0.2748 -0.3309 -0.0568
   52MOL   C48237304   5.057   4.256   1.450  0.1480 -0.2391  0.1113
   52MOL   C48337305   5.132   4.386   1.422  0.3934  0.3000 -0.0664
   52MOL   C48437306   5.133   4.490   1.538  0.2137 -0.6041  0.2755
   52MOL   N48537307   5.003   4.523   1.592 -0.3589  0.0303 -0.0845
   52MOL   C48637308   4.677   3.698   1.116 -0.1497  0.0453 -0.7887
   52MOL   C48737309   4.607   3.597   1.188 -0.5995 -0.8875 -0.0637
   52MOL   H48837310   4.380   3.776   1.375  1.0205 -1.4768  1.0760
   52MOL   H48937311   4.523   3.964   1.278 -1.6144  0.2008 -3.0045
   52MOL   H49037312   4.733   4.018   1.293 -0.2082  0.0681  0.2885
   52MOL   H49137313   4.879   4.158   1.074 -1.7646  1.7097 -0.9059
   52MOL   H49237314   4.723   4.216   1.108  1.5259  1.7624 -1.0865
   52MOL   H49337315   4.798   4.284   1.340  0.4777 -1.2305  0.6560
   52MOL   H49437316   4.904   4.350   1.217  2.8369 -0.5216  0.7241
   52MOL   H49537317   4.972   4.089   1.350 -0.0096 -0.4748 -0.3471
   52MOL   H49637318   5.071   4.182   1.243 -1.0288  0.2721 -0.8758
   52MOL   H49737319   5.118   4.187   1.509 -0.1959 -0.2409  0.4644
   52MOL   H49837320   4.967   4.269   1.510 -0.2541  1.2581 -0.7914
   52MOL   H49937321   5.086   4.432   1.335 -0.1185  0.4743  0.2936
   52MOL   H50037322   5.238   4.382   1.395  0.7493  1.0956  1.1853
   52MOL   H50137323   5.201   4.452   1.614  0.5680  0.3321  0.4375
   52MOL   H50237324   5.174   4.582   1.496 -1.4426 -1.1120 -2.6081
   52MOL   H50337325   4.947   4.583   1.533  0.7510 -0.4077 -1.6240
   52MOL   H50437326   4.762   3.676   1.053  0.1414 -3.0737  0.5673
   52MOL   H50537327   4.634   3.494   1.169  1.0637 -0.4544 -0.1554
   52MOL   C50637328   4.966   4.483   1.713 -0.1278 -0.1913 -0.4151
   52MOL   O50737329   5.037   4.410   1.788  0.2212 -0.7764  0.7513
   52MOL   C50837330   4.836   4.535   1.770  0.3516 -0.0077  0.2026
   52MOL   C50937331   4.760   4.634   1.703 -1.2537 -0.1864  0.1778
   52MOL   C51037332   4.644   4.688   1.762  0.4348  0.7058  0.0076
   52MOL   C51137333   4.589   4.630   1.879 -0.6137 -0.4390  0.2724
   52MOL   C51237334   4.459   4.688   1.927 -0.2163  0.1908  0.1966
   52MOL   O51337335   4.387   4.756   1.854  0.3073 -0.2360  0.3337
   52MOL   N51437336   4.425   4.658   2.053  0.0787 -0.0499 -0.4993
   52MOL   C51537337   4.305   4.696   2.119 -0.0214 -0.0303  0.0399
   52MOL   C51637338   4.317   4.805   2.228 -0.2754  0.2710 -0.2977
   52MOL   C51737339   4.175   4.827   2.277 -0.3755  0.4303  0.0639
   52MOL   C51837340   4.166   4.935   2.381  0.0590 -0.9639  0.1854
   52MOL   C51937341   4.186   5.084   2.332  0.1659  1.0189  0.4111
   52MOL   C52037342   4.130   5.172   2.456  0.1918 -0.1653 -0.1629
   52MOL   N52137343   4.152   5.317   2.438 -0.2132 -0.4175  0.0927
   52MOL   C52237344   4.664   4.532   1.948  0.3952  0.0451  0.9595
   52MOL   C52337345   4.787   4.489   1.891 -0.1486  0.5757 -0.2950
   52MOL   H52437346   4.804   4.668   1.611  0.4381 -3.8771 -0.4933
   52MOL   H52537347   4.585   4.760   1.708 -1.2968 -1.1899 -0.6666
   52MOL   H52637348   4.487   4.602   2.110  1.3345 -0.2163 -2.0097
   52MOL   H52737349   4.225   4.719   2.049 -0.6980 -1.2461  0.3833
   52MOL   H52837350   4.264   4.605   2.164 -3.7612  1.9890  0.9361
   52MOL   H52937351   4.369   4.892   2.186  1.3655  0.7507  2.6036
   52MOL   H53037352   4.388   4.767   2.302  0.2083 -1.2784 -1.5196
   52MOL   H53137353   4.108   4.850   2.195 -1.9113 -1.1601  0.8426
   52MOL   H53237354   4.142   4.733   2.322 -0.2867  0.3816  0.0267
   52MOL   H53337355   4.234   4.913   2.464  1.2154  0.4894 -0.3512
   52MOL   H53437356   4.070   4.954   2.428  1.2593  1.3608  1.7962
   52MOL   H53537357   4.122   5.092   2.244  0.4913  0.0540  0.0817
   52MOL   H53637358   4.288   5.112   2.305  1.0224 -3.6410 -1.6194
   52MOL   H53737359   4.025   5.152   2.478 -0.4711  1.5125 -1.6924
   52MOL   H53837360   4.187   5.126   2.537 -2.2183  0.3388  1.8987
   52MOL   H53937361   4.145   5.358   2.346  0.9329  1.0246  0.6224
   52MOL   H54037362   4.631   4.496   2.045 -2.2325  0.6999  0.3359
   52MOL   H54137363   4.830   4.407   1.947 -1.6163  1.8352  2.7918
   52MOL   C54237364   4.179   5.405   2.538  0.0788  0.2903 -0.4905
   52MOL   O54337365   4.233   5.376   2.640 -0.8228  0.2418 -0.8281
   52MOL   C54437366   4.151   5.547   2.513  0.1018 -0.5003 -0.3189
   52MOL   C54537367   4.255   5.641   2.516 -0.1133 -0.0042  0.2555
   52MOL   C54637368   4.229   5.782   2.501 -0.3865  0.0622 -0.1975
   52MOL   C54737369   4.090   5.824   2.479  0.3526 -0.1916  0.6079
   52MOL   C54837370   4.060   5.970   2.461  0.1179  0.0487  0.1255
   52MOL   O54937371   4.148   6.056   2.439 -0.2211 -0.0540 -0.0719
   52MOL   N55037372   3.934   5.999   2.485 -0.5210  0.1023  0.6055
   52MOL   C55137373   3.875   6.129   2.492 -0.1464  0.1152  0.5551
   52MOL   C55237374   3.835   6.178   2.351  0.4500 -0.1436 -0.1563
   52MOL   C55337375   3.773   6.310   2.351 -0.0565 -0.0405  0.7092
   52MOL   C55437376   3.732   6.359   2.208 -0.2676 -0.5639  0.5096
   52MOL   C55537377   3.648   6.496   2.217  0.4997 -0.5422  0.4079
   52MOL   C55637378   3.520   6.485   2.300 -0.2251 -0.5226 -0.2556
   52MOL   N55737379   3.447   6.609   2.283  0.0588  0.2070 -0.9003
   52MOL   C55837380   3.986   5.724   2.480 -0.8119  0.5056  0.0742
   52MOL   C55937381   4.019   5.588   2.491 -0.2287  0.4295 -0.5436
   52MOL   H56037382   4.357   5.605   2.517 -0.4437 -1.0301 -1.5082
   52MOL   H56137383   4.307   5.855   2.493 -1.4074  1.1481 -0.3683
   52MOL   H56237384   3.874   5.926   2.518  0.5891 -1.4613 -0.7405
   52MOL   H56337385   3.790   6.110   2.557  1.0731 -0.5648  1.9688
   52MOL   H56437386   3.939   6.205   2.537 -0.9225  1.3894 -0.4457
   52MOL   H56537387   3.763   6.109   2.308 -2.1283  2.0214  0.5893
   52MOL   H56637388   3.913   6.159   2.278  0.2145 -1.8518  0.0141
   52MOL   H56737389   3.683   6.300   2.411 -0.8343  0.1812 -0.4040
   52MOL   H56837390   3.842   6.368   2.412  0.5523 -1.3320  1.2715
   52MOL   H56937391   3.670   6.285   2.158 -0.8180 -0.1473  0.5729
   52MOL   H57037392   3.816   6.361   2.138 -1.9304  1.6089 -1.4910
   52MOL   H57137393   3.621   6.516   2.114 -1.7659 -1.6756  0.7598
   52MOL   H57237394   3.720   6.572   2.249  0.8044  0.1364 -1.8193
   52MOL   H57337395   3.459   6.400   2.270 -1.4129  0.3922 -0.5028
   52MOL   H57437396   3.542   6.473   2.406  0.8342  0.2185 -0.3866
   52MOL   H57537397   3.461   6.675   2.358 -0.5560  0.8388 -1.3308
   52MOL   H57637398   3.881   5.736   2.460 -0.5932  0.9605 -0.8169
   52MOL   H57737399   3.942   5.513   2.496  0.7939 -0.6510 -0.7067
   52MOL   C57837400   3.384   6.660   2.179  0.3588  0.2700  0.3092
   52MOL   O57937401   3.356   6.588   2.085  0.6751  0.6142 -0.3386
   52MOL   C58037402   3.347   6.809   2.179 -0.4830  0.1209 -0.2453
   52MOL   C58137403   3.220   6.854   2.134  0.3777 -0.1805  0.1118
   52MOL   C58237404   3.189   6.987   2.147  0.5890  0.1436  0.4802
   52MOL   C58337405   3.279   7.080   2.195 -0.3666 -0.0540  0.0822
   52MOL   C58437406   3.251   7.227   2.204 -0.3839 -0.3590 -1.1870
   52MOL   O58537407   3.141   7.269   2.251 -0.8328 -0.2157  0.6282
   52MOL   N58637408   3.350   7.308   2.159 -0.2871 -0.1037 -1.1130
   52MOL   C58737409   3.349   7.448   2.180 -0.0730 -0.4446 -0.3349
   52MOL   C58837410   3.486   7.485   2.233 -0.1129  0.3182 -0.6158
   52MOL   C58937411   3.491   7.622   2.310  0.4302 -0.6609 -0.3738
   52MOL   C59037412   3.454   7.751   2.235  0.0573  0.0059  0.1363
   52MOL   C59137413   3.541   7.791   2.109  0.3964  0.7712 -0.0681
   52MOL   C59237414   3.504   0.046   2.044  0.3196  0.1242  0.1505
   52MOL   N59337415   3.630   0.124   2.006  0.1861 -0.1022 -0.1413
   52MOL   C59437416   3.414   7.042   2.223  0.3852  0.4295  0.2348
   52MOL   C59537417   3.444   6.903   2.217 -0.1916 -0.9775 -0.4490
   52MOL   H59637418   3.142   6.785   2.106 -1.0986  2.2171 -1.9081
   52MOL   H59737419   3.091   7.018   2.112  0.1751  0.9255  2.2363
   52MOL   H59837420   3.433   7.271   2.116 -0.7395 -2.7477  0.1813
   52MOL   H59937421   3.330   7.495   2.084  0.0182  1.4512  0.5313
   52MOL   H60037422   3.264   7.486   2.238  0.8087  0.3998  0.4295
   52MOL   H60137423   3.569   7.476   2.163  2.5738  0.1871  2.4810
   52MOL   H60237424   3.514   7.404   2.301 -1.8872 -0.3242 -0.6260
   52MOL   H60337425   3.420   7.611   2.391 -1.9906  1.8339 -2.0679
   52MOL   H60437426   3.585   7.635   2.364 -1.4749 -0.5919  3.0156
   52MOL   H60537427   3.466   7.829   2.310  0.4023  0.0947 -0.0095
   52MOL   H60637428   3.355   7.740   2.192  0.5494 -0.5506 -0.9036
   52MOL   H60737429   3.532   7.712   2.034 -0.7671 -0.4346  1.3086
   52MOL   H60837430   3.646   7.798   2.139 -0.2812  3.2730  1.9055
   52MOL   H60937431   3.433   0.036   1.962 -0.0048  0.0267  0.4406
   52MOL   H61037432   3.451   0.101   2.122  0.5264 -0.9880  1.0918
   52MOL   H61137433   3.714   0.119   2.063  0.0008 -1.2376  0.0452
   52MOL   H61237434   3.491   7.109   2.260  1.3156  0.3047 -1.4284
   52MOL   H61337435   3.543   6.872   2.248 -0.4474 -0.2964  1.0688
   52MOL   C61437436   3.658   0.178   1.882 -0.6647  0.5778  0.7097
   52MOL   O61537437   3.574   0.190   1.796  0.0660  0.6345 -1.4623
   52MOL   C61637438   3.803   0.211   1.846  0.1432 -0.3798  0.0987
   52MOL   C61737439   3.833   0.324   1.774 -0.2375 -0.3764 -0.0734
   52MOL   C61837440   3.964   0.342   1.727 -0.5856 -0.5220  0.1934
   52MOL   C61937441   4.067   0.251   1.756  0.0517 -0.5455  0.1769
   52MOL   C62037442   4.207   0.287   1.705  0.0993 -0.3187 -0.4953
   52MOL   O62137443   4.228   0.400   1.664  0.3509 -0.3690 -0.0358
   52MOL   N62237444   4.300   0.190   1.717 -0.1653  0.2728 -0.0812
   52MOL   C62337445   4.434   0.191   1.655 -0.0741 -0.4425 -0.2272
   52MOL   C62437446   4.503   0.065   1.692  0.1944  0.0686 -0.1458
   52MOL   C62537447   4.439   7.820   1.641 -0.3138 -0.5623 -0.4254
   52MOL   C62637448   4.510   7.691   1.681 -0.0213 -0.9004 -0.0808
   52MOL   C62737449   4.423   7.572   1.637  0.3069 -0.2224  1.1452
   52MOL   C62837450   4.490   7.436   1.674 -0.0394  0.4161  0.1921
   52MOL   N62937451   4.405   7.320   1.653 -0.7208  0.1890 -0.3561
   52MOL   C63037452   4.039   0.138   1.836  0.5075 -0.3090  0.3638
   52MOL   C63137453   3.907   0.119   1.878  0.1268  0.4049  0.5588
   52MOL   H63237454   3.751   0.392   1.760  1.3366  1.3719 -0.9084
   52MOL   H63337455   3.993   0.432   1.674  0.5479 -1.4008 -0.6982
   52MOL   H63437456   4.277   0.106   1.768 -2.5915  0.8575 -0.1596
   52MOL   H63537457   4.432   0.218   1.550  2.7644 -0.7212 -0.4088
   52MOL   H63637458   4.492   0.274   1.694 -0.6757 -0.0395 -0.2008
   52MOL   H63737459   4.522   0.051   1.798 -0.1996 -0.9911 -0.2114
   52MOL   H63837460   4.608   0.073   1.663  0.4152 -1.4104  0.1748
   52MOL   H63937461   4.335   7.809   1.673 -0.4569  4.2701  1.1212
   52MOL   H64037462   4.436   7.822   1.532  0.4680 -0.0896 -0.4411
   52MOL   H64137463   4.516   7.696   1.790  1.2347  1.6126 -0.2352
   52MOL   H64237464   4.612   7.681   1.645  0.7352  0.4261  1.6391
   52MOL   H64337465   4.408   7.570   1.529  1.2551 -0.1056  1.0046
   52MOL   H64437466   4.325   7.575   1.684 -0.0516  0.4472  0.3620
   52MOL   H64537467   4.577   7.415   1.612 -1.5301 -2.3758 -1.0456
   52MOL   H64637468   4.520   7.446   1.779 -0.2253 -0.2457  0.3090
   52MOL   H64737469   4.329   7.341   1.590 -1.4582  0.2955  0.5682
   52MOL   H64837470   4.120   0.072   1.864  0.1917 -0.4129  1.0214
   52MOL   H64937471   3.900   0.029   1.938  1.1723  0.7263  1.1573
   52MOL   C65037472   4.416   7.206   1.714  1.1414 -0.2684  0.7279
   52MOL   O65137473   4.499   7.180   1.800 -0.5485 -0.1234  0.2241
   52MOL   C65237474   4.320   7.095   1.679 -0.1079  0.4660  0.2007
   52MOL   C65337475   4.288   6.995   1.773  0.2345 -0.3498  0.0462
   52MOL   C65437476   4.206   6.888   1.742  0.2249 -0.1107  0.3954
   52MOL   C65537477   4.141   6.878   1.610 -0.4552 -0.5973 -0.2962
   52MOL   C65637478   4.031   6.783   1.588 -0.3043  0.3026 -0.0331
   52MOL   O65737479   4.011   6.689   1.667 -0.0713 -0.1295 -0.6795
   52MOL   N65837480   3.952   6.806   1.485 -0.1604  0.4497 -0.0740
   52MOL   C65937481   3.855   6.723   1.420  0.8348 -0.3784  0.2686
   52MOL   C66037482   3.922   6.621   1.333  0.5437 -0.1654  0.0433
   52MOL   C66137483   3.832   6.548   1.230  0.7166  0.3089 -0.6642
   52MOL   C66237484   3.910   6.481   1.116 -0.1415 -0.4573  0.1230
   52MOL   C66337485   3.999   6.568   1.027 -0.0223  0.0532 -1.0608
   52MOL   C66437486   3.926   6.689   0.977 -0.3313  0.1226 -0.3741
   52MOL   N66537487   4.026   6.791   0.950  0.3960 -0.1314  0.1775
   52MOL   C66637488   4.161   6.982   1.519 -0.1211  0.6025 -0.7535
   52MOL   C66737489   4.249   7.091   1.553 -0.1575 -0.0415 -0.3496
   52MOL   H66837490   4.328   7.010   1.872  1.7861  1.4115 -0.8134
   52MOL   H66937491   4.180   6.815   1.817 -2.8914 -1.4862 -1.8786
   52MOL   H67037492   3.995   6.867   1.417 -0.3884  0.4381 -0.2267
   52MOL   H67137493   3.785   6.681   1.492 -0.1932 -1.5863 -1.3983
   52MOL   H67237494   3.797   6.794   1.360  0.5032 -1.0422 -0.2000
   52MOL   H67337495   3.969   6.549   1.401  1.4324  2.1277  1.9029
   52MOL   H67437496   4.016   6.657   1.291 -0.7836  2.3637 -0.8460
   52MOL   H67537497   3.793   6.464   1.288  2.2850  0.3995  0.5755
   52MOL   H67637498   3.744   6.601   1.195 -0.4951 -0.8689  0.5043
   52MOL   H67737499   3.835   6.434   1.053  0.0983 -1.3921  0.5250
   52MOL   H67837500   3.967   6.395   1.150 -2.4231 -2.4469 -0.9362
   52MOL   H67937501   4.035   6.504   0.946 -0.0909  1.3780 -2.1650
   52MOL   H68037502   4.084   6.582   1.093 -1.4766 -3.5020  1.7152
   52MOL   H68137503   3.883   6.662   0.880  2.9146  0.4638 -1.9897
   52MOL   H68237504   3.851   6.733   1.042 -0.9252  0.2061 -1.1039
   52MOL   H68337505   4.067   6.788   0.858 -0.6985  0.9676 -0.3452
   52MOL   H68437506   4.125   6.983   1.417 -0.2711 -0.0344 -0.7072
   52MOL   H68537507   4.259   7.173   1.484  1.6592  0.6184  0.6517
   52MOL   C68637508   4.053   6.894   1.035 -0.4820 -0.0298 -0.5069
   52MOL   O68737509   4.009   6.906   1.153  0.4220  0.1966  0.5720
   52MOL   C68837510   4.163   6.988   0.994 -0.1594 -0.3666  0.5426
   52MOL   C68937511   4.264   6.958   0.901  0.2369  0.7453 -0.1668
   52MOL   C69037512   4.357   7.051   0.866  0.4807  0.0959 -0.1635
   52MOL   C69137513   4.373   7.176   0.929  0.1308  0.1502 -0.5175
   52MOL   C69237514   4.482   7.276   0.891 -0.4501 -0.1317 -0.2297
   52MOL   O69337515   4.577   7.234   0.832  0.0416  0.0666 -0.3326
   52MOL   N69437516   4.468   7.401   0.930  0.5573 -0.6517 -0.2282
   52MOL   C69537517   4.570   7.506   0.916  0.2952 -0.1719  0.6059
   52MOL   C69637518   4.694   7.483   0.999  0.0864 -0.2078  0.4993
   52MOL   C69737519   4.652   7.463   1.140 -0.6230  0.5535 -0.4508
   52MOL   C69837520   4.750   7.394   1.235 -0.3987  0.5365 -0.3275
   52MOL   C69937521   4.685   7.362   1.369 -0.6496  0.4721  0.5446
   52MOL   C70037522   4.772   7.276   1.457  0.5137  0.3730  0.6096
   52MOL   N70137523   4.881   7.350   1.519  0.5317  0.5523  0.3986
   52MOL   C70237524   4.271   7.198   1.026 -0.1787  0.0588 -0.6536
   52MOL   C70337525   4.160   7.114   1.051  0.9492  0.3735 -0.5657
   52MOL   H70437526   4.271   6.855   0.870 -1.7297  0.4328  0.3487
   52MOL   H70537527   4.430   7.028   0.790  0.8096 -0.5383  0.3410
   52MOL   H70637528   4.387   7.418   0.988  1.1396  0.8113  0.1602
   52MOL   H70737529   4.583   7.519   0.809  0.3083  2.3679  0.8724
   52MOL   H70837530   4.525   7.597   0.958 -0.6921 -0.7400  0.8051
   52MOL   H70937531   4.763   7.567   0.989 -0.3999  0.3889  1.9353
   52MOL   H71037532   4.748   7.401   0.951  1.1649 -0.0354  1.3945
   52MOL   H71137533   4.614   7.556   1.182 -1.1996  0.0880  0.0622
   52MOL   H71237534   4.574   7.387   1.146 -1.4359  1.3827 -0.4016
   52MOL   H71337535   4.829   7.466   1.254 -1.5765  1.9018 -0.5045
   52MOL   H71437536   4.801   7.309   1.191  1.5009  0.6142  1.6738
   52MOL   H71537537   4.580   7.332   1.365 -0.8156  0.9559  1.1773
   52MOL   H71637538   4.670   7.460   1.412 -0.6097  0.1275  1.3532
   52MOL   H71737539   4.718   7.250   1.548  1.7160  1.5953  1.6977
   52MOL   H71837540   4.789   7.176   1.417 -0.8438  0.9809 -1.5824
   52MOL   H71937541   4.948   7.286   1.560 -0.3972 -0.5656  0.2283
   52MOL   H72037542   4.284   7.274   1.102 -1.8459  0.2223 -0.5246
   52MOL   H72137543   4.082   7.146   1.118  1.9389  1.2927  0.1743
   52MOL   H72237544   4.829   7.401   1.589 -0.5984  0.4899 -0.3777
   53MOL     C137545   5.143   7.427   0.597  0.1286 -0.0206 -0.1078
   53MOL     O237546   5.054   7.356   0.549  0.1744 -0.4851  0.0278
   53MOL     C337547   5.157   7.462   0.738 -0.4468 -0.9723 -0.1852
   53MOL     C437548   5.270   7.541   0.784 -0.1055 -0.1506  0.1809
   53MOL     C537549   5.291   7.567   0.920 -0.7750  0.0062 -0.2144
   53MOL     C637550   5.214   7.511   1.018 -0.6651  1.7243 -0.4896
   53MOL     C737551   5.236   7.537   1.164  0.3584  0.1773  0.1646
   53MOL     O837552   5.256   7.649   1.219 -0.2929  0.4199  0.2434
   53MOL     N937553   5.238   7.426   1.229 -0.1036 -0.2600 -0.1077
   53MOL    C1037554   5.226   7.412   1.371 -0.2193  0.1158  0.9390
   53MOL    C1137555   5.252   7.272   1.410  0.9039 -0.1793 -0.9317
   53MOL    C1237556   5.140   7.179   1.366 -0.3413  0.0625  0.1479
   53MOL    C1337557   5.190   7.038   1.363  0.0355 -0.0283  0.1769
   53MOL    C1437558   5.103   6.931   1.286  0.1220 -0.0833 -0.0691
   53MOL    C1537559   5.155   6.792   1.282  0.5301  0.7152 -0.2498
   53MOL    N1637560   5.058   6.695   1.221 -0.3100 -0.4541 -0.2310
   53MOL    C1737561   5.103   7.430   0.977 -0.3348  0.0249 -0.3751
   53MOL    C1837562   5.077   7.403   0.840  0.7209 -0.0083  0.0909
   53MOL    H1937563   5.345   7.582   0.718  0.6877 -2.0084 -0.0873
   53MOL    H2037564   5.375   7.629   0.946 -1.3116  1.7072 -2.3464
   53MOL    H2137565   5.200   7.352   1.172 -1.7981  0.6689 -0.2006
   53MOL    H2237566   5.304   7.467   1.423  0.0732 -0.5299  1.1841
   53MOL    H2337567   5.130   7.449   1.407 -0.9847 -0.4099 -0.5006
   53MOL    H2437568   5.265   7.261   1.518  1.0847  0.2467 -0.9106
   53MOL    H2537569   5.349   7.236   1.374  1.6214 -0.0975  0.8732
   53MOL    H2637570   5.069   7.175   1.449 -0.4367 -2.7778 -0.0047
   53MOL    H2737571   5.086   7.219   1.281  0.3069  1.4157  0.3571
   53MOL    H2837572   5.205   7.000   1.464 -1.0175 -1.5802 -0.2378
   53MOL    H2937573   5.284   7.035   1.306  0.3538  0.8337  0.6482
   53MOL    H3037574   5.084   6.975   1.189 -1.6670 -0.6415 -0.0064
   53MOL    H3137575   5.009   6.929   1.342  1.8074 -1.4861  2.8907
   53MOL    H3237576   5.246   6.791   1.221  0.8846  1.5217  0.2498
   53MOL    H3337577   5.183   6.754   1.380 -1.2131  1.2348  0.4540
   53MOL    H3437578   4.986   6.741   1.166 -0.7228  0.4583  1.0484
   53MOL    H3537579   5.035   7.389   1.051  0.5689 -0.2157  0.3363
   53MOL    H3637580   4.986   7.349   0.817  0.8947  0.2285 -1.2013
   53MOL    H3737581   5.220   7.466   0.531  0.8629 -0.3562  0.5426
   53MOL    C3837582   5.071   6.565   1.227 -0.3171  0.7608 -0.6496
   53MOL    O3937583   5.149   6.503   1.306 -0.0221  0.1140  0.3248
   53MOL    C4037584   4.985   6.493   1.127 -0.5867  0.1772 -0.1083
   53MOL    C4137585   4.923   6.372   1.157 -0.1250 -0.5781 -0.0663
   53MOL    C4237586   4.851   6.301   1.058 -0.3856 -0.7240 -0.8488
   53MOL    C4337587   4.839   6.349   0.925  0.3426 -0.4986 -0.5931
   53MOL    C4437588   4.744   6.285   0.832 -0.1713  0.6754  0.9436
   53MOL    O4537589   4.638   6.240   0.875  0.0596 -0.5355  0.4589
   53MOL    N4637590   4.794   6.264   0.712 -0.0920  0.5162 -0.1259
   53MOL    C4737591   4.751   6.177   0.611  0.1176  0.1748  0.2194
   53MOL    C4837592   4.801   6.231   0.469  0.4562  0.2877 -0.1058
   53MOL    C4937593   4.772   6.135   0.348  0.3150  0.3144  0.1626
   53MOL    C5037594   4.882   6.032   0.316 -0.1673 -0.4863  0.0606
   53MOL    C5137595   4.844   5.940   0.203  0.0153 -1.0314 -0.7164
   53MOL    C5237596   4.741   5.830   0.240  0.4492  0.4850  0.0922
   53MOL    N5337597   4.634   5.815   0.141  0.4973  0.0753  0.2477
   53MOL    C5437598   4.911   6.473   0.896 -0.0138  0.6179 -0.3539
   53MOL    C5537599   4.985   6.536   0.998  0.3109  0.1901 -1.2454
   53MOL    H5637600   4.926   6.327   1.255  0.4163 -1.5118 -0.5047
   53MOL    H5737601   4.808   6.203   1.075  1.9327 -1.3517  1.6860
   53MOL    H5837602   4.878   6.320   0.703  0.7829 -0.8758 -0.8719
   53MOL    H5937603   4.794   6.079   0.632  2.0507  1.1633  1.1134
   53MOL    H6037604   4.643   6.178   0.624  0.3950  0.9570  2.8299
   53MOL    H6137605   4.906   6.255   0.487  0.5925  2.4861 -3.2274
   53MOL    H6237606   4.743   6.321   0.446 -1.1686 -0.5860  0.5243
   53MOL    H6337607   4.678   6.079   0.356  0.5660 -0.3269 -1.1355
   53MOL    H6437608   4.766   6.195   0.257  1.6145 -0.4192 -0.4243
   53MOL    H6537609   4.905   5.955   0.390 -2.0532 -1.5212 -0.4033
   53MOL    H6637610   4.978   6.081   0.299  0.3182 -1.7819 -1.1081
   53MOL    H6737611   4.928   5.888   0.156  0.9105 -0.3164  0.0835
   53MOL    H6837612   4.818   5.999   0.115 -0.3300 -0.3440 -0.1481
   53MOL    H6937613   4.795   5.737   0.258 -0.5192 -0.1892 -0.4452
   53MOL    H7037614   4.694   5.841   0.337 -1.8015 -0.9290 -0.7982
   53MOL    H7137615   4.546   5.853   0.173 -0.7019 -2.9649  0.6571
   53MOL    H7237616   4.903   6.514   0.796 -2.2719  1.7810  0.2725
   53MOL    H7337617   5.029   6.633   0.983 -0.5315  0.6023 -1.1172
   53MOL    C7437618   4.636   5.742   0.031 -0.3407  0.6178  0.7236
   53MOL    O7537619   4.736   5.680   0.005 -0.4705  0.0718  0.4333
   53MOL    C7637620   4.505   5.708   7.854 -0.0777 -0.2191 -0.0091
   53MOL    C7737621   4.513   5.678   7.721 -0.1287 -0.1949  0.3164
   53MOL    C7837622   4.398   5.630   7.654 -0.2257  0.4669  0.4844
   53MOL    C7937623   4.272   5.612   7.716  0.0035 -0.3290 -0.2750
   53MOL    C8037624   4.156   5.559   7.641  0.2113 -0.2065  0.0250
   53MOL    O8137625   4.163   5.524   7.524  0.6144  0.4424 -0.3657
   53MOL    N8237626   4.038   5.539   7.703  0.1620 -0.1400  0.3663
   53MOL    C8337627   3.930   5.459   7.650  0.5636  0.3477  0.1100
   53MOL    C8437628   3.833   5.545   7.575  0.3958  0.0807  0.0669
   53MOL    C8537629   3.715   5.466   7.507 -0.1844  0.7311 -0.1832
   53MOL    C8637630   3.757   5.365   7.404  0.3070  0.8739 -0.6348
   53MOL    C8737631   3.644   5.316   7.304 -0.5374  0.4935  0.0548
   53MOL    C8837632   3.554   5.203   7.357 -0.3963 -0.2192 -0.4092
   53MOL    N8937633   3.449   5.253   7.440  0.0330 -0.2771  0.1420
   53MOL    C9037634   4.264   5.658   7.848 -0.2032  0.4087 -0.3532
   53MOL    C9137635   4.383   5.695   0.034  0.5270 -0.6684  0.0524
   53MOL    H9237636   4.603   5.686   7.662  0.4965 -0.7359  1.1842
   53MOL    H9337637   4.411   5.603   7.550  1.3485  0.7251  0.6055
   53MOL    H9437638   4.020   5.572   7.797  0.4809  1.0133  0.0356
   53MOL    H9537639   3.966   5.368   7.603  1.0631  1.7727 -2.3152
   53MOL    H9637640   3.891   5.405   7.736 -2.9381  0.6285 -1.2574
   53MOL    H9737641   3.890   5.615   7.513  0.3996  0.3016  0.3218
   53MOL    H9837642   3.786   5.607   7.651  1.5696 -2.0046  2.5591
   53MOL    H9937643   3.642   5.421   7.575  0.5054  0.3545  0.3122
   53MOL   H10037644   3.657   5.541   7.453 -1.7722  1.2004  2.0479
   53MOL   H10137645   3.780   5.270   7.452  0.2396 -0.0066 -2.3225
   53MOL   H10237646   3.848   5.386   7.347  0.1410  1.4638 -0.6839
   53MOL   H10337647   3.687   5.282   7.210 -0.2241  3.3386 -0.9073
   53MOL   H10437648   3.596   5.409   7.273 -0.2319  0.8284  0.5584
   53MOL   H10537649   3.523   5.150   7.267 -1.2005 -0.4901  0.0246
   53MOL   H10637650   3.623   5.130   7.401  2.5326  1.8866 -1.3479
   53MOL   H10737651   3.446   5.353   7.457  2.1654 -0.0781 -0.5712
   53MOL   H10837652   4.169   5.643   0.012 -0.6904  0.5217 -1.2285
   53MOL   H10937653   4.370   5.709   0.140  2.1658  1.4826 -0.0165
   53MOL   C11037654   3.342   5.175   7.467 -0.0422 -0.3127 -0.6566
   53MOL   O11137655   3.328   5.059   7.425  0.2059  0.1513  0.1573
   53MOL   C11237656   3.232   5.237   7.553  0.1797  0.2016  0.4095
   53MOL   C11337657   3.256   5.347   7.629 -0.7911 -0.4413 -0.0547
   53MOL   C11437658   3.155   5.402   7.718  0.5759  0.4859 -0.2615
   53MOL   C11537659   3.029   5.344   7.733  0.0778  1.1375 -0.1263
   53MOL   C11637660   2.924   5.406   7.827  0.6392 -0.1421  0.7426
   53MOL   O11737661   2.811   5.357   7.831  0.2043  0.3891  0.1603
   53MOL   N11837662   2.957   5.517   0.005 -0.0122 -0.4425  0.9590
   53MOL   C11937663   2.867   5.594   0.090 -0.0817 -0.0754 -0.2253
   53MOL   C12037664   2.776   5.691   0.009  0.3951  0.3911  0.3534
   53MOL   C12137665   2.675   5.760   0.098  0.0437 -0.2721  0.5798
   53MOL   C12237666   2.734   5.866   0.196 -0.2345 -0.4176  0.1402
   53MOL   C12337667   2.825   5.963   0.124 -0.2074 -0.8835 -0.2021
   53MOL   C12437668   2.862   6.090   0.199 -0.4207 -0.6930 -0.1138
   53MOL   N12537669   2.985   6.144   0.143  0.2274 -0.3416 -0.1078
   53MOL   C12637670   3.001   5.227   7.657  0.6298 -0.3350 -0.4514
   53MOL   C12737671   3.100   5.181   7.570 -0.2303  0.0976  0.5332
   53MOL   H12837672   3.355   5.389   7.623 -1.6727  1.3900 -3.4732
   53MOL   H12937673   3.171   5.486   7.785  0.3354 -0.6717  1.2658
   53MOL   H13037674   3.049   5.557   7.883 -0.0946 -0.3273  0.6107
   53MOL   H13137675   2.806   5.522   0.144  0.0088  1.3861  1.8799
   53MOL   H13237676   2.912   5.652   0.171  1.6488 -2.8044  0.8505
   53MOL   H13337677   2.732   5.646   7.806  1.9187  2.6929 -1.6261
   53MOL   H13437678   2.841   5.767   7.850 -0.6321  0.6353 -0.7561
   53MOL   H13537679   2.605   5.811   0.032 -0.1963  0.0486  1.0818
   53MOL   H13637680   2.621   5.682   0.152  0.5320  0.1838  1.7490
   53MOL   H13737681   2.798   5.822   0.273  0.6773 -1.1468 -1.0309
   53MOL   H13837682   2.667   5.938   0.243 -1.0005  0.1698 -1.8309
   53MOL   H13937683   2.778   5.983   0.028 -0.3484  1.4735  0.3335
   53MOL   H14037684   2.923   5.923   0.097  0.0063  0.4833 -1.5115
   53MOL   H14137685   2.782   6.163   0.187  0.0668 -0.1212  0.0749
   53MOL   H14237686   2.881   6.078   0.306  3.4168  1.1324 -0.4899
   53MOL   H14337687   3.012   6.093   0.060  1.0518 -0.3166  0.1422
   53MOL   H14437688   2.908   5.175   7.667 -0.8995  2.3684 -0.0876
   53MOL   H14537689   3.079   5.085   7.526 -1.5097  0.7959 -0.4297
   53MOL   C14637690   3.060   6.256   0.170  0.0586 -0.2504 -0.4825
   53MOL   O14737691   3.023   6.337   0.249 -0.7337 -0.1939 -0.7167
   53MOL   C14837692   3.183   6.287   0.083 -0.6847  0.5453 -0.1390
   53MOL   C14937693   3.176   6.270   7.828  0.5994 -0.3924 -0.4424
   53MOL   C15037694   3.289   6.308   7.747 -0.6241  0.1962 -0.2671
   53MOL   C15137695   3.404   6.368   7.811  0.6336 -0.0318 -0.2427
   53MOL   C15237696   3.523   6.413   7.729  0.1215 -0.3019 -0.2218
   53MOL   O15337697   3.609   6.482   7.778 -0.1255 -0.2462 -0.2032
   53MOL   N15437698   3.527   6.366   7.601 -0.1081 -0.5375 -0.1583
   53MOL   C15537699   3.646   6.378   7.521  0.3232 -0.1287  0.1977
   53MOL   C15637700   3.632   6.297   7.387  0.2975 -0.1474 -0.3984
   53MOL   C15737701   3.764   6.285   7.322 -0.7474 -0.2728 -0.7026
   53MOL   C15837702   3.768   6.205   7.194 -0.5327  0.9117  0.0120
   53MOL   C15937703   3.902   6.215   7.119  0.1223 -0.0557 -0.8138
   53MOL   C16037704   3.898   6.146   6.982 -0.9089 -0.6210  0.0260
   53MOL   N16137705   4.029   6.135   6.920  0.7018  0.3805  0.1743
   53MOL   C16237706   3.401   6.386   0.066 -0.1361 -1.0198 -0.3233
   53MOL   C16337707   3.295   6.343   0.145  0.4043 -0.0305 -0.4392
   53MOL   H16437708   3.085   6.236   7.781  0.0215 -0.8365  0.9955
   53MOL   H16537709   3.287   6.295   7.640 -1.1968  1.6849 -0.4504
   53MOL   H16637710   3.451   6.304   7.575 -2.9170  1.7045  2.3776
   53MOL   H16737711   3.652   6.484   7.498 -2.3129 -0.2918 -1.4484
   53MOL   H16837712   3.734   6.353   7.581 -1.2382 -2.8713  1.4268
   53MOL   H16937713   3.556   6.334   7.318 -1.2171 -1.1426  0.7076
   53MOL   H17037714   3.595   6.197   7.411  0.2181 -0.6143 -2.3625
   53MOL   H17137715   3.808   6.380   7.291  0.2768 -1.3324 -2.5838
   53MOL   H17237716   3.841   6.263   7.396  0.8410 -1.5851 -2.6801
   53MOL   H17337717   3.694   6.232   7.118  0.9917 -0.3621 -1.9880
   53MOL   H17437718   3.751   6.102   7.226  0.8196  0.4384 -0.7644
   53MOL   H17537719   3.983   6.177   7.182 -0.4023 -1.2070 -0.8401
   53MOL   H17637720   3.930   6.318   7.094  1.5704 -0.4939 -1.0853
   53MOL   H17737721   3.864   6.045   7.006 -1.3210 -0.1866  1.3344
   53MOL   H17837722   3.819   6.188   6.920  0.2801  0.4463 -0.7944
   53MOL   H17937723   4.041   6.188   6.835 -0.3794  0.9320  0.3563
   53MOL   H18037724   3.491   6.410   0.121 -0.6305 -1.6728  0.7769
   53MOL   H18137725   3.301   6.357   0.252 -0.1767  0.3047 -0.4478
   53MOL   C18237726   4.109   6.029   6.932 -0.4401  0.0728 -0.0614
   53MOL   O18337727   4.091   5.937   7.012  0.0160 -0.3876 -0.1545
   53MOL   C18437728   4.226   6.014   6.834  0.0672 -0.2745  0.5168
   53MOL   C18537729   4.340   5.936   6.876  0.1307 -0.4041  0.0230
   53MOL   C18637730   4.437   5.915   6.780  0.2431  0.4153 -0.4336
   53MOL   C18737731   4.430   5.962   6.647 -0.8040  0.0873  1.3511
   53MOL   C18837732   4.528   5.919   6.547 -0.3381 -0.0806  0.3965
   53MOL   O18937733   4.514   5.800   6.522  0.4444 -0.2003 -0.2170
   53MOL   N19037734   4.608   6.009   6.492 -0.0288 -0.2598 -0.2563
   53MOL   C19137735   4.692   5.989   6.377 -0.1413 -0.6027 -0.3388
   53MOL   C19237736   4.656   6.076   6.259  0.5001  0.0967 -0.4130
   53MOL   C19337737   4.507   6.078   6.227  0.0792 -0.5804  0.5351
   53MOL   C19437738   4.458   5.940   6.178 -0.5838  0.5421 -0.1152
   53MOL   C19537739   4.305   5.934   6.159 -0.1992  0.3846  0.0087
   53MOL   C19637740   4.251   5.795   6.156  0.3751 -0.2356  0.4022
   53MOL   N19737741   4.235   5.743   6.290 -0.0741 -0.2429  0.0532
   53MOL   C19837742   4.328   6.055   6.614 -0.0730 -0.0884 -0.8226
   53MOL   C19937743   4.220   6.078   6.706 -0.8630  0.8498 -0.9063
   53MOL   H20037744   4.345   5.892   6.974 -0.1840  1.2382  0.7997
   53MOL   H20137745   4.513   5.841   6.800  0.5570  0.8895  0.1513
   53MOL   H20237746   4.594   6.105   6.519  0.2804 -0.0276 -0.8918
   53MOL   H20337747   4.794   6.019   6.401 -0.4988 -0.7277  1.3925
   53MOL   H20437748   4.684   5.888   6.336  1.1509 -0.7040 -0.3710
   53MOL   H20537749   4.713   6.040   6.173  0.9293 -0.6884  0.1865
   53MOL   H20637750   4.697   6.172   6.290  0.6440 -0.2048  0.3511
   53MOL   H20737751   4.440   6.114   6.305 -0.2924 -0.5848  0.2218
   53MOL   H20837752   4.496   6.149   6.144  1.0553  0.2246  1.0805
   53MOL   H20937753   4.481   5.869   6.258 -1.9435 -1.0950 -1.1584
   53MOL   H21037754   4.502   5.907   6.084 -1.2606  0.8340 -0.5354
   53MOL   H21137755   4.276   5.984   6.066  0.7328  0.1622 -0.4117
   53MOL   H21237756   4.245   5.984   6.234  1.3568  2.3934 -0.0338
   53MOL   H21337757   4.150   5.793   6.115  0.9151  1.4155 -1.0767
   53MOL   H21437758   4.319   5.735   6.096 -2.0207 -2.2549 -0.3633
   53MOL   H21537759   4.313   5.682   6.313 -1.0496 -2.7100 -2.7823
   53MOL   H21637760   4.329   6.078   6.509 -0.6121  1.8690 -0.4079
   53MOL   H21737761   4.145   6.150   6.675 -0.9627  0.6204 -1.1953
   53MOL   C21837762   4.139   5.766   6.384 -0.0080 -0.3666  1.1794
   53MOL   O21937763   4.031   5.825   6.370  0.7647 -0.1415  0.5707
   53MOL   C22037764   4.160   5.703   6.521  0.2989 -0.2446  0.3984
   53MOL   C22137765   4.240   5.589   6.544 -0.2286  0.0085 -0.2534
   53MOL   C22237766   4.253   5.532   6.672 -0.7364 -0.4786  0.8033
   53MOL   C22337767   4.184   5.585   6.780 -0.0926 -0.2257  0.5815
   53MOL   C22437768   4.204   5.522   6.914  0.3355 -0.0496 -0.2463
   53MOL   O22537769   4.235   5.409   6.931  0.2206 -0.1449  0.3607
   53MOL   N22637770   4.162   5.598   7.018  0.2529 -0.1815  0.3971
   53MOL   C22737771   4.141   5.572   7.162 -0.1132 -0.1865  0.3909
   53MOL   C22837772   3.991   5.577   7.194  0.5755  0.1898 -0.2764
   53MOL   C22937773   3.909   5.696   7.141 -0.2082 -0.8324  0.1287
   53MOL   C23037774   3.774   5.699   7.216 -0.8094  0.0575 -0.2154
   53MOL   C23137775   3.729   5.836   7.234  0.4295 -0.1350  0.2863
   53MOL   C23237776   3.583   5.848   7.294  0.7548 -0.1322  0.1948
   53MOL   N23337777   3.565   5.802   7.431  0.2833  0.8395  0.5845
   53MOL   C23437778   4.107   5.701   6.763  0.3046  0.2403  0.2946
   53MOL   C23537779   4.090   5.760   6.634 -0.1581  0.1100 -0.2778
   53MOL   H23637780   4.303   5.544   6.469  1.0192  0.5035  0.4840
   53MOL   H23737781   4.332   5.460   6.685 -0.3710 -0.8214 -2.8822
   53MOL   H23837782   4.151   5.697   7.000  1.5966  0.3926  2.5454
   53MOL   H23937783   4.182   5.474   7.185 -0.5847 -0.5335 -0.2321
   53MOL   H24037784   4.199   5.647   7.216  1.9063 -0.1984 -1.6498
   53MOL   H24137785   3.980   5.579   7.302  2.0649  0.3076 -0.1195
   53MOL   H24237786   3.952   5.480   7.162 -0.1145  0.5951 -0.6837
   53MOL   H24337787   3.973   5.782   7.162  0.1494 -1.3268  1.1270
   53MOL   H24437788   3.907   5.696   7.032  1.6167 -1.7734  0.0685
   53MOL   H24537789   3.781   5.662   7.318 -1.3840 -1.6334 -0.7760
   53MOL   H24637790   3.707   5.629   7.166 -0.2352 -1.6297  1.3302
   53MOL   H24737791   3.725   5.882   7.135 -0.2245 -0.6171  0.0843
   53MOL   H24837792   3.806   5.893   7.285  0.5941  0.0402 -0.1517
   53MOL   H24937793   3.539   5.947   7.286 -0.1762 -0.7288 -2.6711
   53MOL   H25037794   3.513   5.780   7.246  0.7458  0.1832 -0.2418
   53MOL   H25137795   3.491   5.735   7.446  0.3436  0.8164  0.7821
   53MOL   H25237796   4.054   5.743   6.848 -0.5996 -2.0628  0.8993
   53MOL   H25337797   4.018   5.840   6.635  0.5211  0.7268  2.6448
   53MOL   C25437798   3.599   5.866   7.541  0.1699  0.5773  0.1192
   53MOL   O25537799   3.688   5.953   7.545  0.2299  0.5350  0.0002
   53MOL   C25637800   3.532   5.834   7.671  1.1300  0.0435  0.5143
   53MOL   C25737801   3.503   5.944   7.751 -0.7892 -0.5038  0.2778
   53MOL   C25837802   3.420   5.932   7.868 -0.3593  0.6788  0.2755
   53MOL   C25937803   3.363   5.801   0.012  0.1385 -0.4462  0.8373
   53MOL   C26037804   3.254   5.791   0.116  0.3104 -0.3506  0.7362
   53MOL   O26137805   3.163   5.713   0.094 -0.1335 -0.0119  0.6707
   53MOL   N26237806   3.248   5.877   0.218 -0.3727  0.1640 -0.4154
   53MOL   C26337807   3.150   5.871   0.323 -0.2532  0.2028 -0.6251
   53MOL   C26437808   3.168   5.973   0.440 -0.0434  0.8694 -0.1782
   53MOL   C26537809   3.070   5.944   0.551  0.0136  0.4731  0.2217
   53MOL   C26637810   3.104   6.028   0.680  0.2749  0.5786 -0.2135
   53MOL   C26737811   3.017   5.976   0.802  0.5490 -0.0238 -0.7008
   53MOL   C26837812   3.067   5.846   0.855  0.3100 -0.5855 -0.4215
   53MOL   N26937813   3.001   5.815   0.976  0.1132 -0.4820  0.3613
   53MOL   C27037814   3.389   5.690   7.812 -0.9572  0.3034  1.4145
   53MOL   C27137815   3.470   5.703   7.697 -0.1184  0.0999  0.7240
   53MOL   H27237816   3.553   6.035   7.721 -1.9396  0.0736  0.0750
   53MOL   H27337817   3.385   6.017   0.038  0.7561  1.4451 -0.1779
   53MOL   H27437818   3.337   5.921   0.232  0.2753 -1.3131  0.2503
   53MOL   H27537819   3.046   5.872   0.289 -1.3151  0.9001  2.5362
   53MOL   H27637820   3.143   5.773   0.371  0.2858  0.3952 -0.1507
   53MOL   H27737821   3.144   6.073   0.404  0.1432  1.0524  0.2029
   53MOL   H27837822   3.274   5.957   0.464 -0.1526  0.0698 -0.2265
   53MOL   H27937823   2.964   5.937   0.525 -1.0133  2.9868  3.3334
   53MOL   H28037824   3.088   5.839   0.575 -0.1901  0.3151 -0.3128
   53MOL   H28137825   3.085   6.134   0.666 -0.7872  0.5133  0.6677
   53MOL   H28237826   3.210   6.011   0.701  0.5664 -1.1564 -2.9271
   53MOL   H28337827   2.911   5.975   0.776  0.7895  1.4591 -1.8111
   53MOL   H28437828   3.027   6.058   0.874  0.8062  0.4103 -1.2307
   53MOL   H28537829   3.051   5.764   0.785  4.0020 -1.0846 -0.8084
   53MOL   H28637830   3.174   5.850   0.875 -0.0907 -1.3643  1.9360
   53MOL   H28737831   2.983   5.879   1.051  1.9993 -1.2692  1.5328
   53MOL   H28837832   3.331   5.602   7.835 -0.8871 -0.3838 -0.8156
   53MOL   H28937833   3.501   5.624   7.629  0.2184  1.9622 -1.3561
   53MOL   C29037834   2.999   5.692   1.022 -0.2643 -0.3173 -0.2668
   53MOL   O29137835   3.028   5.597   0.957 -0.5160 -0.4721  0.2852
   53MOL   C29237836   2.954   5.671   1.159  0.0903  0.0611 -0.6949
   53MOL   C29337837   2.967   5.543   1.226  0.3576 -0.6876  0.4742
   53MOL   C29437838   2.929   5.524   1.361 -0.3191  0.1890 -0.0222
   53MOL   C29537839   2.872   5.625   1.432 -0.0222 -0.0797  0.3703
   53MOL   C29637840   2.813   5.602   1.568 -0.0719  0.0780  0.2073
   53MOL   O29737841   2.711   5.665   1.604  0.6266  0.0126  0.4624
   53MOL   N29837842   2.873   5.521   1.653  0.1933 -0.3492  0.5962
   53MOL   C29937843   2.840   5.509   1.794 -0.0853  0.5164 -0.2921
   53MOL   C30037844   2.955   5.440   1.870 -0.8294  0.4832 -0.5132
   53MOL   C30137845   2.941   5.444   2.022 -0.4824 -0.6614 -0.0535
   53MOL   C30237846   2.860   5.328   2.078  0.7801 -0.2225  0.6105
   53MOL   C30337847   2.822   5.346   2.223  0.1442 -0.3021 -0.3139
   53MOL   C30437848   2.740   5.231   2.275 -0.8510 -0.3955 -0.3696
   53MOL   N30537849   2.661   5.267   2.394  0.0504  0.0959  0.0234
   53MOL   C30637850   2.851   5.750   1.369 -0.4964 -0.9929  0.5392
   53MOL   C30737851   2.899   5.776   1.237 -0.3748 -0.2461  0.6267
   53MOL   H30837852   3.007   5.455   1.177 -1.9933 -1.3209 -0.3601
   53MOL   H30937853   2.928   5.420   1.389  0.1552 -0.0668 -0.9464
   53MOL   H31037854   2.954   5.472   1.617  0.1377  1.3946 -2.0617
   53MOL   H31137855   2.816   5.609   1.832  0.8994  0.3503  0.7586
   53MOL   H31237856   2.748   5.451   1.796 -1.0910  2.0569 -0.3249
   53MOL   H31337857   3.040   5.502   1.841 -1.4746  2.5802  1.8603
   53MOL   H31437858   2.985   5.341   1.836 -0.5932  0.2251  0.4129
   53MOL   H31537859   3.026   5.475   2.084 -2.3819 -0.7601  2.6770
   53MOL   H31637860   2.874   5.527   2.043 -0.2066 -0.1026 -1.3530
   53MOL   H31737861   2.919   5.237   2.074  1.0678 -0.2127  3.4587
   53MOL   H31837862   2.775   5.301   2.015  0.9017 -0.0173  0.3627
   53MOL   H31937863   2.764   5.438   2.227  1.3419  0.4300  0.4665
   53MOL   H32037864   2.911   5.354   2.285 -0.5416 -1.2393  0.8181
   53MOL   H32137865   2.677   5.189   2.196  0.2049 -0.5576 -1.1480
   53MOL   H32237866   2.796   5.140   2.298  1.5217  1.1579  0.1766
   53MOL   H32337867   2.561   5.267   2.379 -0.0279  1.4194  0.4534
   53MOL   H32437868   2.817   5.833   1.429  2.4701  0.2321  0.6168
   53MOL   H32537869   2.887   5.877   1.203 -1.2054 -1.2394 -2.1728
   53MOL   C32637870   2.707   5.323   2.513 -0.0313 -0.2541 -0.2490
   53MOL   O32737871   2.825   5.328   2.553 -0.2407 -0.7261 -0.9456
   53MOL   C32837872   2.604   5.382   2.599 -0.0579  0.1681 -0.2777
   53MOL   C32937873   2.628   5.389   2.737 -0.6710 -0.0526  0.2268
   53MOL   C33037874   2.528   5.451   2.818  1.0431  0.4310 -0.1582
   53MOL   C33137875   2.410   5.498   2.769  0.0867 -0.3610 -0.8782
   53MOL   C33237876   2.315   5.568   2.862  0.6396 -0.5254  0.1947
   53MOL   O33337877   2.360   5.659   2.933  0.0154  0.1652 -0.0552
   53MOL   N33437878   2.187   5.525   2.876 -0.3957 -0.1207 -0.2349
   53MOL   C33537879   2.086   5.590   2.963  0.0593 -0.1627 -0.4356
   53MOL   C33637880   1.944   5.539   2.956 -0.3211  0.0578  0.1928
   53MOL   C33737881   1.932   5.396   3.020 -1.5422 -0.1632  0.4892
   53MOL   C33837882   1.812   5.298   2.998  0.0297  1.0394  0.9328
   53MOL   C33937883   1.691   5.351   3.064  0.3035 -0.4712 -0.0511
   53MOL   C34037884   1.552   5.283   3.049  0.1354 -0.3002 -0.5292
   53MOL   N34137885   1.551   5.132   3.075 -0.4098  0.1485 -0.0386
   53MOL   C34237886   2.375   5.471   2.636  0.1361 -0.0082 -0.2987
   53MOL   C34337887   2.477   5.421   2.548  0.3879  0.1950  0.1701
   53MOL   H34437888   2.725   5.353   2.770 -0.0966  1.5602  0.3141
   53MOL   H34537889   2.552   5.458   2.923 -1.3133  0.8564  0.3788
   53MOL   H34637890   2.165   5.437   2.831  0.0549  0.6708 -2.0837
   53MOL   H34737891   2.130   5.600   3.062  0.0122 -2.4600 -0.1552
   53MOL   H34837892   2.078   5.692   2.927  1.5015  1.0094  2.4862
   53MOL   H34937893   1.894   5.535   2.860 -0.5055 -1.2594  0.3354
   53MOL   H35037894   1.885   5.613   3.010  0.3887  0.1905  0.8086
   53MOL   H35137895   2.019   5.338   2.987 -0.7042  0.5054  1.4949
   53MOL   H35237896   1.946   5.417   3.126 -0.8083  4.4157 -0.4093
   53MOL   H35337897   1.840   5.201   3.038 -1.7629  0.8065  1.6489
   53MOL   H35437898   1.799   5.278   2.891  0.8782  0.3863  0.9501
   53MOL   H35537899   1.680   5.449   3.017 -1.5126 -1.4289 -1.6760
   53MOL   H35637900   1.720   5.361   3.169  1.4877  0.8048 -0.4874
   53MOL   H35737901   1.485   5.335   3.118  3.0426  2.8466  0.0754
   53MOL   H35837902   1.512   5.306   2.950 -0.0920 -2.3080 -0.9278
   53MOL   H35937903   1.607   5.096   3.151 -1.2927  1.1148  1.0838
   53MOL   H36037904   2.278   5.500   2.597 -0.3367  1.1323  1.6983
   53MOL   H36137905   2.448   5.425   2.444  1.0930  3.8913  0.0287
   53MOL   C36237906   1.493   5.042   2.999  0.9001 -0.1320 -0.6150
   53MOL   O36337907   1.456   5.064   2.881 -0.0069  0.4005  0.0853
   53MOL   C36437908   1.466   4.909   3.063  0.2309  0.8200 -0.3532
   53MOL   C36537909   1.574   4.836   3.119  0.4431 -0.2102 -0.2362
   53MOL   C36637910   1.567   4.704   3.174  0.8159 -0.2372 -0.1304
   53MOL   C36737911   1.441   4.641   3.165 -0.4129 -0.2592  0.7956
   53MOL   C36837912   1.412   4.503   3.207  0.7626 -0.3857 -0.0955
   53MOL   O36937913   1.295   4.468   3.223 -0.4213  0.0113 -0.6458
   53MOL   N37037914   1.514   4.415   3.204 -0.3427  0.6586  0.3152
   53MOL   C37137915   1.515   4.278   3.232 -0.6971 -0.0320  0.5055
   53MOL   C37237916   1.643   4.228   3.283  0.0102  0.1607  0.1988
   53MOL   C37337917   1.685   4.287   3.422 -0.5863  0.1540  0.0943
   53MOL   C37437918   1.824   4.348   3.434  0.0932 -0.1405 -0.4351
   53MOL   C37537919   1.865   4.454   3.333 -0.1925  0.2535  0.9789
   53MOL   C37637920   2.001   4.507   3.350  0.4641 -0.2360  0.2177
   53MOL   N37737921   2.025   4.631   3.271 -1.3395 -0.0044  0.0383
   53MOL   C37837922   1.334   4.710   3.103  0.4134  0.7501  0.2864
   53MOL   C37937923   1.346   4.840   3.053 -0.5902  0.0015  0.9540
   53MOL   H38037924   1.671   4.884   3.123  0.3469 -0.0785  0.6537
   53MOL   H38137925   1.649   4.651   3.217 -0.4291 -1.0065  1.3348
   53MOL   H38237926   1.602   4.459   3.179 -1.1691  1.1102 -1.8992
   53MOL   H38337927   1.443   4.247   3.308 -0.5233  0.5702  0.9145
   53MOL   H38437928   1.504   4.218   3.141 -0.0192 -0.6567  0.8298
   53MOL   H38537929   1.721   4.237   3.207 -1.4461 -0.5678 -1.4040
   53MOL   H38637930   1.627   4.122   3.297 -2.5105  0.1819 -2.1535
   53MOL   H38737931   1.612   4.363   3.448  0.6628  1.7260 -0.9099
   53MOL   H38837932   1.672   4.209   3.497  1.2053 -0.4145 -0.1672
   53MOL   H38937933   1.899   4.269   3.417  1.4407  1.0890 -0.2823
   53MOL   H39037934   1.837   4.393   3.532  1.2048 -0.6288 -0.3423
   53MOL   H39137935   1.791   4.533   3.348  0.3338  0.8454  0.4870
   53MOL   H39237936   1.851   4.412   3.233  0.5723 -0.5368  1.1954
   53MOL   H39337937   2.032   4.517   3.454 -0.6309 -0.0336  0.5219
   53MOL   H39437938   2.072   4.431   3.317  1.0971 -0.2045  1.4492
   53MOL   H39537939   1.968   4.644   3.189  0.8875 -3.9785 -2.2942
   53MOL   H39637940   1.235   4.666   3.101  1.1932 -1.4256  3.9531
   53MOL   H39737941   1.256   4.878   3.007  0.2323  0.4470 -0.3075
   53MOL   C39837942   2.131   4.712   3.295  0.5230 -0.0991 -0.4143
   53MOL   O39937943   2.216   4.683   3.377 -0.4362 -0.2349  0.3680
   53MOL   C40037944   2.152   4.832   3.211 -0.9442  0.2559  0.0108
   53MOL   C40137945   2.045   4.889   3.131 -0.5016  0.6989 -0.5739
   53MOL   C40237946   2.066   4.990   3.032 -0.2615 -0.3033  0.3244
   53MOL   C40337947   2.203   5.032   3.010  0.7321 -0.4755 -0.1543
   53MOL   C40437948   2.240   5.113   2.889 -0.7610  0.0489 -0.4488
   53MOL   O40537949   2.305   5.217   2.900 -0.0420  0.6798 -0.1842
   53MOL   N40637950   2.204   5.069   2.769  0.7942  0.0972 -0.5603
   53MOL   C40737951   2.221   5.144   2.645  0.1157 -0.2866  0.0133
   53MOL   C40837952   2.096   5.240   2.628  0.1130  0.1540 -0.4216
   53MOL   C40937953   1.961   5.176   2.662  0.1667  0.5483  0.1596
   53MOL   C41037954   1.845   5.261   2.618  0.2621  0.0836  0.1904
   53MOL   C41137955   1.706   5.188   2.633 -0.4757  0.3876 -0.4430
   53MOL   C41237956   1.591   5.241   2.556 -0.3402  0.0100 -0.7632
   53MOL   N41337957   1.570   5.386   2.582  0.3828  0.1443 -0.1991
   53MOL   C41437958   2.306   4.993   3.107  0.6058  0.4404 -0.1878
   53MOL   C41537959   2.280   4.896   3.203 -0.8062  0.6573 -0.5456
   53MOL   H41637960   1.950   4.844   3.156 -0.9547  0.0549 -3.2683
   53MOL   H41737961   1.980   5.022   2.975  0.1720  2.0698  0.9471
   53MOL   H41837962   2.174   4.973   2.758 -1.2635  0.5898  0.6579
   53MOL   H41937963   2.315   5.197   2.632  0.2050 -0.3477  0.4002
   53MOL   H42037964   2.232   5.069   2.567  2.2728 -1.7088  1.6169
   53MOL   H42137965   2.090   5.280   2.527 -1.1418  1.1288  0.0350
   53MOL   H42237966   2.120   5.326   2.689  0.7394  0.7920 -1.5461
   53MOL   H42337967   1.954   5.073   2.625 -2.2264  1.8021 -3.0982
   53MOL   H42437968   1.961   5.164   2.770  0.3043 -1.4787 -0.0320
   53MOL   H42537969   1.856   5.291   2.514  1.4952 -0.2520  0.2189
   53MOL   H42637970   1.859   5.352   2.677 -0.0654  0.7357 -0.7335
   53MOL   H42737971   1.680   5.193   2.739  0.6083  0.7485 -0.1892
   53MOL   H42837972   1.720   5.082   2.612  0.8965  0.4003  0.3307
   53MOL   H42937973   1.597   5.229   2.448  0.4934  1.2654 -0.8676
   53MOL   H43037974   1.503   5.185   2.588 -1.6865  1.3917 -1.9286
   53MOL   H43137975   1.654   5.436   2.608 -1.0915  3.4876 -1.6581
   53MOL   H43237976   2.403   5.038   3.097  0.8314 -0.1093 -0.4929
   53MOL   H43337977   2.360   4.858   3.264 -1.1358 -1.0801 -1.1324
   53MOL   C43437978   1.478   5.453   2.510  0.3804  0.1941 -0.6581
   53MOL   O43537979   1.405   5.388   2.437 -0.2780 -0.1839 -0.3261
   53MOL   C43637980   1.450   5.592   2.548  0.4120  0.1888  0.8944
   53MOL   C43737981   1.319   5.644   2.568  0.0547 -0.6432  0.0059
   53MOL   C43837982   1.295   5.784   2.587 -0.9444  0.2732  0.2017
   53MOL   C43937983   1.407   5.875   2.587  0.7786  0.1479  0.7219
   53MOL   C44037984   1.391   6.025   2.604 -0.0165  0.1114  0.1923
   53MOL   O44137985   1.306   6.071   2.682 -0.0512  0.5161 -0.1810
   53MOL   N44237986   1.472   6.105   2.536  0.1538 -0.1076 -0.2202
   53MOL   C44337987   1.476   6.250   2.544 -0.1951 -0.7681  0.1518
   53MOL   C44437988   1.609   6.300   2.485  0.0987  0.2421  0.1803
   53MOL   C44537989   1.610   6.451   2.475  0.2921 -0.5811 -0.2844
   53MOL   C44637990   1.733   6.499   2.398  0.0240  0.5017  0.4283
   53MOL   C44737991   1.729   6.466   2.248 -0.0545  0.4089 -0.0418
   53MOL   C44837992   1.615   6.543   2.179 -0.1104 -0.5064  0.9528
   53MOL   N44937993   1.503   6.454   2.188 -0.0009 -0.2547  0.5502
   53MOL   C45037994   1.539   5.820   2.574 -0.0262 -0.4991 -0.3571
   53MOL   C45137995   1.559   5.684   2.550  0.0259  0.2844 -0.5507
   53MOL   H45237996   1.237   5.574   2.559 -0.6656  0.0537  0.9690
   53MOL   H45337997   1.195   5.815   2.615 -0.3971  1.3834  1.0056
   53MOL   H45437998   1.542   6.063   2.477  1.1547  2.3348 -0.8363
   53MOL   H45537999   1.404   6.299   2.479  0.7017 -1.6513 -1.5302
   53MOL   H45638000   1.464   6.283   2.647  1.2690 -1.0252  0.4166
   53MOL   H45738001   1.615   6.251   2.388 -1.7182 -0.5401  0.4383
   53MOL   H45838002   1.697   6.267   2.540 -0.2411 -0.1531  0.4934
   53MOL   H45938003   1.525   6.501   2.430 -0.4072 -0.3084  1.3151
   53MOL   H46038004   1.612   6.503   2.571  2.1896 -1.3499  0.1189
   53MOL   H46138005   1.821   6.445   2.434  0.5078  1.5050  0.7660
   53MOL   H46238006   1.753   6.604   2.420  0.5052  0.0176  2.4727
   53MOL   H46338007   1.712   6.359   2.239 -1.7179  0.7873 -1.5955
   53MOL   H46438008   1.825   6.483   2.199  0.2546 -0.5034  0.2454
   53MOL   H46538009   1.597   6.638   2.229 -0.7856 -0.5836  0.8570
   53MOL   H46638010   1.645   6.548   2.075 -2.6299  1.1030  0.2658
   53MOL   H46738011   1.502   6.374   2.249  0.6701 -0.5769  0.1503
   53MOL   H46838012   1.625   5.884   2.589  0.1117 -0.8138  0.1830
   53MOL   H46938013   1.659   5.649   2.528 -0.1260  0.1981 -1.1066
   53MOL   C47038014   1.387   6.475   2.122  0.0666 -0.4951  0.3603
   53MOL   O47138015   1.379   6.549   2.019 -0.5720  0.2931 -0.1436
   53MOL   C47238016   1.279   6.375   2.154  0.2146 -0.6264  0.2668
   53MOL   C47338017   1.310   6.241   2.190 -0.4530 -0.2641  0.0415
   53MOL   C47438018   1.212   6.149   2.223 -0.4795 -0.0923 -0.1426
   53MOL   C47538019   1.074   6.197   2.227 -0.1175  0.2501  0.4156
   53MOL   C47638020   0.969   6.111   2.285 -0.2592  0.1340 -0.0827
   53MOL   O47738021   0.875   6.152   2.356  0.7694 -0.4002  0.0986
   53MOL   N47838022   0.988   5.981   2.260 -0.5067 -1.4837 -0.0544
   53MOL   C47938023   0.910   5.864   2.309 -0.7951 -0.4309 -0.2720
   53MOL   C48038024   0.996   5.774   2.404 -0.1640 -0.2730  0.3579
   53MOL   C48138025   0.916   5.680   2.485 -0.3279  0.2961 -0.5306
   53MOL   C48238026   0.820   5.749   2.584 -0.1660  0.1688 -0.1466
   53MOL   C48338027   0.728   5.652   2.654 -0.0734 -0.5149  0.1272
   53MOL   C48438028   0.631   5.719   2.756 -0.0152 -1.0005 -0.0148
   53MOL   N48538029   0.711   5.769   2.868 -0.0323 -0.0969  0.5999
   53MOL   C48638030   1.042   6.323   2.175 -0.5589 -0.2496  1.1195
   53MOL   C48738031   1.147   6.409   2.139  0.6394  0.4872 -0.2516
   53MOL   H48838032   1.411   6.217   2.219 -0.6700  0.2605  1.2406
   53MOL   H48938033   1.239   6.049   2.255 -0.0524  0.2583  0.6163
   53MOL   H49038034   1.068   5.960   2.202  1.7963  0.8187  2.1346
   53MOL   H49138035   0.814   5.897   2.350 -0.3285 -1.0612  1.3992
   53MOL   H49238036   0.878   5.802   2.225 -0.6110  0.1228 -0.7562
   53MOL   H49338037   1.058   5.840   2.465  1.3183 -0.7623 -0.5975
   53MOL   H49438038   1.074   5.730   2.342 -0.4441  1.6851 -1.4441
   53MOL   H49538039   0.851   5.621   2.420 -2.2134  1.6878  0.0389
   53MOL   H49638040   0.980   5.613   2.542 -0.5978  0.7814  0.3480
   53MOL   H49738041   0.754   5.814   2.527 -0.2386  1.5995  1.5319
   53MOL   H49838042   0.872   5.809   2.659 -1.1776 -0.7688  1.3173
   53MOL   H49938043   0.795   5.586   2.710  0.7265 -0.4066 -0.6839
   53MOL   H50038044   0.679   5.593   2.577  0.1644 -2.6345  1.5529
   53MOL   H50138045   0.579   5.806   2.717  2.0193  0.4839  0.4550
   53MOL   H50238046   0.560   5.647   2.794  0.7152 -2.2166 -0.9111
   53MOL   H50338047   0.757   5.858   2.861 -0.9333  0.6108  3.1581
   53MOL   H50438048   0.942   6.364   2.171 -0.0293  1.2836  3.1223
   53MOL   H50538049   1.120   6.507   2.101  0.4081  0.1620 -0.9273
   53MOL   C50638050   0.746   5.702   2.980  0.4378  0.7657  0.6252
   53MOL   O50738051   0.711   5.584   3.004 -0.1793 -0.2342 -0.0219
   53MOL   C50838052   0.843   5.775   3.066 -0.5625  1.1985  0.1500
   53MOL   C50938053   0.921   5.699   3.160 -0.1889 -0.4643 -0.0546
   53MOL   C51038054   1.020   5.763   3.238  0.2553  0.8771 -0.3893
   53MOL   C51138055   1.039   5.906   3.225 -0.0710 -0.3897  0.5775
   53MOL   C51238056   1.158   5.972   3.293  0.4846  0.1391  0.4730
   53MOL   O51338057   1.241   6.041   3.227  0.4289 -0.0772 -0.1854
   53MOL   N51438058   1.182   5.966   3.426  0.1366 -0.0972  0.1411
   53MOL   C51538059   1.307   5.987   3.493  0.1967 -0.3133  0.2492
   53MOL   C51638060   1.295   6.107   3.584 -0.3584  0.2633  0.3208
   53MOL   C51738061   1.184   6.120   3.681  0.0012  0.5005  0.0401
   53MOL   C51838062   1.184   6.262   3.737  0.1381  0.1385  0.4575
   53MOL   C51938063   1.092   6.291   3.845 -0.3099 -0.1311  0.3027
   53MOL   C52038064   1.107   6.215   3.973 -0.5276 -0.3818 -0.5403
   53MOL   N52138065   1.022   6.262   4.082  0.0944  0.3340  0.3515
   53MOL   C52238066   0.961   5.982   3.135 -0.0846  0.1006  0.0165
   53MOL   C52338067   0.864   5.920   3.056 -0.7279 -0.2742  0.4031
   53MOL   H52438068   0.916   5.592   3.168  1.5794 -0.4487  1.6295
   53MOL   H52538069   1.087   5.700   3.294  0.5339  1.7426  0.2714
   53MOL   H52638070   1.115   5.909   3.476  0.0180  0.6378  0.8236
   53MOL   H52738071   1.343   5.899   3.546 -0.7434 -0.0443  1.3515
   53MOL   H52838072   1.381   5.996   3.413 -0.9463  0.6895 -0.7217
   53MOL   H52938073   1.291   6.193   3.518 -0.1060  1.6305  2.0776
   53MOL   H53038074   1.393   6.111   3.631 -0.1856 -1.6991  0.1778
   53MOL   H53138075   1.092   6.104   3.624  0.4841  1.1599 -0.9395
   53MOL   H53238076   1.179   6.041   3.756 -0.5278  0.1510 -0.3518
   53MOL   H53338077   1.162   6.321   3.648 -0.4834 -0.9989 -0.1598
   53MOL   H53438078   1.286   6.279   3.772  0.8875 -2.4545 -0.3605
   53MOL   H53538079   0.996   6.253   3.810 -0.6906 -0.1499  1.3582
   53MOL   H53638080   1.087   6.398   3.860 -2.6871 -0.1178 -0.4344
   53MOL   H53738081   1.090   6.109   3.951  2.9318 -0.5339 -2.7962
   53MOL   H53838082   1.211   6.216   4.004 -0.4802 -0.6403 -0.6887
   53MOL   H53938083   1.067   6.325   4.148  2.3169 -1.0170  0.1746
   53MOL   H54038084   0.990   6.086   3.126  0.8385 -0.0911  0.6790
   53MOL   H54138085   0.795   5.980   2.998 -0.8119 -0.6859  0.0818
   53MOL   C54238086   0.917   6.196   4.129  0.0283  0.9183  0.2570
   53MOL   O54338087   0.859   6.099   4.076 -0.1410 -0.0867  0.4713
   53MOL   C54438088   0.877   6.246   4.260 -0.0848  0.0036  0.0980
   53MOL   C54538089   0.861   6.383   4.283  0.5546 -0.1863 -0.6292
   53MOL   C54638090   0.831   6.422   4.420  0.0475 -0.0675  0.2838
   53MOL   C54738091   0.810   6.331   4.522 -0.7306  0.0090 -0.0870
   53MOL   C54838092   0.773   6.369   4.663 -0.0667  0.4236 -0.6827
   53MOL   O54938093   0.828   6.460   4.730  0.0183  0.4782 -0.4811
   53MOL   N55038094   0.672   6.294   4.718 -0.2977 -0.5262  0.1428
   53MOL   C55138095   0.588   6.335   4.833  0.2621 -0.4033  0.0019
   53MOL   C55238096   0.448   6.360   4.785 -0.7309  0.2038 -0.5341
   53MOL   C55338097   0.345   6.400   4.890 -0.1210 -0.3144 -0.5478
   53MOL   C55438098   0.219   6.469   4.844 -0.0962  0.0334 -0.2407
   53MOL   C55538099   0.151   6.423   4.710 -0.5962 -0.1509  0.2102
   53MOL   C55638100   0.026   6.514   4.689 -0.4254 -0.6282  0.4412
   53MOL   N55738101   7.875   6.500   4.546 -0.1789 -0.1806  0.1288
   53MOL   C55838102   0.827   6.191   4.493 -0.5794  0.4741  0.0535
   53MOL   C55938103   0.859   6.147   4.361  0.7324  0.3947 -0.2497
   53MOL   H56038104   0.862   6.463   4.210 -1.2668  0.5850  0.1602
   53MOL   H56138105   0.836   6.523   4.457 -1.4460 -0.1154  0.6662
   53MOL   H56238106   0.633   6.233   4.648  0.6013 -1.4998  0.4817
   53MOL   H56338107   0.579   6.256   4.908 -0.0269 -1.6055 -1.2977
   53MOL   H56438108   0.632   6.427   4.873  1.5414 -1.3167  0.7588
   53MOL   H56538109   0.404   6.271   4.740  0.5394 -0.4066 -0.6028
   53MOL   H56638110   0.452   6.443   4.714  1.5405  2.4495  2.0854
   53MOL   H56738111   0.327   6.315   4.957  3.0850 -0.5019  0.1353
   53MOL   H56838112   0.406   6.466   4.951  0.2862 -1.0867 -0.1024
   53MOL   H56938113   0.248   6.573   4.831  0.2139 -0.2847 -2.2652
   53MOL   H57038114   0.143   6.451   4.920  0.1475  0.3493  0.0818
   53MOL   H57138115   0.125   6.317   4.718 -0.7078 -0.3405 -2.1830
   53MOL   H57238116   0.215   6.430   4.622  0.2309  0.4913  0.8631
   53MOL   H57338117   7.832   6.495   4.760  2.1020 -0.9565  3.3079
   53MOL   H57438118   0.044   6.620   4.709 -0.8323 -0.0563 -2.0387
   53MOL   H57538119   0.015   6.414   4.500 -0.0510 -0.1392  0.1244
   53MOL   H57638120   0.799   6.117   4.567  1.4454  1.0769  1.4415
   53MOL   H57738121   0.858   6.040   4.348 -1.7526  0.2780  0.7787
   53MOL   C57838122   7.817   6.590   4.466 -0.1508  0.8827  0.5709
   53MOL   O57938123   7.762   6.688   4.508 -0.5334 -0.0158  0.3501
   53MOL   C58038124   7.822   6.557   4.318 -0.3431  0.0321  0.0388
   53MOL   C58138125   0.034   6.475   4.262 -0.8523 -0.1752 -0.2985
   53MOL   C58238126   0.031   6.433   4.124  0.3710 -0.7215 -0.2186
   53MOL   C58338127   7.811   6.475   4.043  0.5277 -0.0669  0.5072
   53MOL   C58438128   7.797   6.435   3.891 -0.0984 -0.1124 -0.3555
   53MOL   O58538129   7.678   6.431   3.845 -0.2020  0.5364 -0.4001
   53MOL   N58638130   0.024   6.399   3.821 -0.0441  0.1916  0.3035
   53MOL   C58738131   0.012   6.330   3.693 -0.4218  0.0942 -1.1183
   53MOL   C58838132   0.153   6.319   3.638 -0.2437  0.0333  0.1384
   53MOL   C58938133   0.152   6.237   3.509  0.8075  0.1246  0.0386
   53MOL   C59038134   0.121   6.087   3.520 -0.1783 -0.0537 -0.3833
   53MOL   C59138135   0.149   6.011   3.388  0.2394  0.5933 -0.3406
   53MOL   C59238136   0.099   5.864   3.404  0.5675  0.0925 -0.1702
   53MOL   N59338137   0.134   5.774   3.286  0.7904 -0.1491  0.4914
   53MOL   C59438138   7.713   6.556   4.103  0.0823 -0.3807  0.4568
   53MOL   C59538139   7.714   6.600   4.240  0.1888  0.7127  0.1803
   53MOL   H59638140   0.101   6.425   4.330 -2.0986 -1.1666  0.2174
   53MOL   H59738141   0.103   6.359   4.092  3.0374  1.8854 -0.5498
   53MOL   H59838142   0.112   6.433   3.858  1.0820 -0.4587 -1.7352
   53MOL   H59938143   7.855   6.232   3.717  0.5887 -0.3626 -1.1455
   53MOL   H60038144   7.838   6.382   3.619 -1.3650  0.0409 -0.4083
   53MOL   H60138145   0.231   6.287   3.707  1.0778  3.0011  0.0789
   53MOL   H60238146   0.188   6.419   3.611  0.4159  0.3068  1.9394
   53MOL   H60338147   0.088   6.294   3.441 -0.3936  0.1874  1.1901
   53MOL   H60438148   0.248   6.234   3.459  0.4455 -0.8479 -0.6188
   53MOL   H60538149   0.019   6.055   3.542 -0.1855 -0.3976 -0.9229
   53MOL   H60638150   0.197   6.038   3.582 -0.2830 -0.3019 -0.4496
   53MOL   H60738151   0.252   6.028   3.357  0.0323 -1.1770 -2.1234
   53MOL   H60838152   0.083   6.053   3.313 -0.6566 -0.0779  0.0687
   53MOL   H60938153   0.123   5.817   3.500  0.5137 -0.5423 -0.4648
   53MOL   H61038154   7.876   5.867   3.400  0.4816  0.5839  1.9995
   53MOL   H61138155   0.104   5.816   3.199 -1.5266  0.5988  1.6175
   53MOL   H61238156   7.629   6.590   4.045  0.7130  1.4896  0.6026
   53MOL   H61338157   7.634   6.660   4.279 -1.0753 -0.6916 -0.1837
   53MOL   C61438158   0.203   5.662   3.300  0.4779  0.3267 -0.1385
   53MOL   O61538159   0.230   5.618   3.412  0.3067 -0.5195  0.0298
   53MOL   C61638160   0.253   5.593   3.175  0.7304  0.5751 -0.2560
   53MOL   C61738161   0.232   5.648   3.046  0.1866  1.0824 -0.4206
   53MOL   C61838162   0.276   5.573   2.933  0.3750 -0.4722  0.2497
   53MOL   C61938163   0.342   5.452   2.945  0.0383 -0.3070  0.1324
   53MOL   C62038164   0.394   5.381   2.824 -0.2962 -0.1990 -0.7098
   53MOL   O62138165   0.334   5.384   2.718 -0.2925  0.9610 -0.1750
   53MOL   N62238166   0.518   5.332   2.841  0.1796 -0.3565 -0.2953
   53MOL   C62338167   0.586   5.261   2.737 -0.2154  0.0521 -0.5302
   53MOL   C62438168   0.720   5.203   2.787 -0.5323  0.8082  0.4279
   53MOL   C62538169   0.828   5.309   2.816 -0.3557 -0.4220  0.0509
   53MOL   C62638170   0.958   5.250   2.883 -0.3419 -0.1395  0.1749
   53MOL   C62738171   1.076   5.345   2.884 -0.3719  0.0828  0.1307
   53MOL   C62838172   1.060   5.461   2.988  0.3139  0.1555 -0.4664
   53MOL   N62938173   1.184   5.541   2.981  0.0342 -0.0816 -0.0915
   53MOL   C63038174   0.374   5.407   3.074 -0.1452 -0.2980  0.0157
   53MOL   C63138175   0.328   5.473   3.187  0.0215 -0.8913  0.0489
   53MOL   H63238176   0.190   5.746   3.028 -2.6054 -0.0102 -0.1546
   53MOL   H63338177   0.266   5.619   2.836  1.0403  0.7083  0.7290
   53MOL   H63438178   0.565   5.336   2.931  0.4144  0.1390 -0.4384
   53MOL   H63538179   0.512   5.202   2.682 -0.5627 -0.4659  0.4843
   53MOL   H63638180   0.621   5.351   2.686  0.1460  0.9166  1.2039
   53MOL   H63738181   0.768   5.134   2.717  0.6692  0.3831  1.6581
   53MOL   H63838182   0.693   5.152   2.880  0.4159 -0.7153 -0.1023
   53MOL   H63938183   0.841   5.358   2.720  0.2572 -0.0496  0.3205
   53MOL   H64038184   0.792   5.382   2.888  3.7113  0.5149  1.2468
   53MOL   H64138185   0.995   5.165   2.826 -0.9305 -0.9201  0.9535
   53MOL   H64238186   0.939   5.218   2.985 -0.6424  0.9667  0.4757
   53MOL   H64338187   1.088   5.380   2.781 -2.5928 -0.7178 -0.4477
   53MOL   H64438188   1.165   5.286   2.903 -0.3186  0.7319  1.9163
   53MOL   H64538189   0.971   5.515   2.955  0.9765  2.5434  1.4842
   53MOL   H64638190   1.044   5.429   3.091 -2.5274  1.9514 -0.3194
   53MOL   H64738191   1.257   5.511   3.045  0.9239  0.3602 -0.8811
   53MOL   H64838192   0.415   5.308   3.088  0.0584 -0.2483 -0.2269
   53MOL   H64938193   0.352   5.433   3.284 -0.7615 -3.8174 -0.8959
   53MOL   C65038194   1.187   5.654   2.916  0.2694  0.5467  0.3226
   53MOL   O65138195   1.091   5.706   2.861 -0.0263  0.1847 -0.2299
   53MOL   C65238196   1.319   5.721   2.926 -0.0548  0.4876 -0.1430
   53MOL   C65338197   1.323   5.865   2.931 -0.0834  0.7888  0.3361
   53MOL   C65438198   1.446   5.934   2.930 -0.5872  0.2818  0.3751
   53MOL   C65538199   1.565   5.856   2.926 -0.3901  0.0115 -0.4390
   53MOL   C65638200   1.696   5.921   2.905 -0.8110 -0.6405  0.4050
   53MOL   O65738201   1.779   5.869   2.834 -0.7523  0.3740 -0.4032
   53MOL   N65838202   1.733   6.027   2.976 -0.4260 -0.9132 -0.7262
   53MOL   C65938203   1.832   6.123   2.934 -0.4074 -0.2391  0.2880
   53MOL   C66038204   1.778   6.266   2.907 -0.3689  0.1857  0.1999
   53MOL   C66138205   1.877   6.362   2.848  0.5392 -1.0681 -0.2675
   53MOL   C66238206   1.841   6.514   2.885 -0.4258 -0.8103  0.3433
   53MOL   C66338207   1.956   6.601   2.837 -0.3710 -0.1724  0.2348
   53MOL   C66438208   2.073   6.609   2.933  0.2307  0.7140 -0.3223
   53MOL   N66538209   2.176   6.700   2.875  0.1479 -0.6331 -0.3973
   53MOL   C66638210   1.566   5.714   2.926 -0.2696 -0.2793 -0.2115
   53MOL   C66738211   1.443   5.651   2.926  0.2932  0.0272 -0.3681
   53MOL   H66838212   1.232   5.922   2.929 -1.0242 -0.6962 -1.5082
   53MOL   H66938213   1.448   6.041   2.925  3.1836  0.2790  0.9310
   53MOL   H67038214   1.671   6.057   3.049  0.2874 -0.8475 -0.1463
   53MOL   H67138215   1.912   6.115   3.008  0.8770 -0.4504 -1.1115
   53MOL   H67238216   1.885   6.091   2.845 -0.8594 -1.5303  0.4763
   53MOL   H67338217   1.742   6.291   3.007  0.7537  2.1346  0.1399
   53MOL   H67438218   1.691   6.265   2.841  1.2537  0.6812 -2.0134
   53MOL   H67538219   1.978   6.341   2.883  0.8076  1.0991  0.3110
   53MOL   H67638220   1.883   6.345   2.740  0.6573 -0.4540 -0.3625
   53MOL   H67738221   1.815   6.521   2.990  0.5365  2.7422  0.3867
   53MOL   H67838222   1.751   6.547   2.833 -0.3547  1.4732  1.6266
   53MOL   H67938223   1.914   6.701   2.820 -1.3862 -0.3454  1.6647
   53MOL   H68038224   2.001   6.577   2.740 -0.2413 -0.4866  0.3743
   53MOL   H68138225   2.049   6.629   3.037  0.9626  1.4514 -0.2852
   53MOL   H68238226   2.124   6.512   2.933  1.5693  1.3797  2.0168
   53MOL   H68338227   2.239   6.673   2.801  0.6947  1.2501 -0.6344
   53MOL   H68438228   1.662   5.666   2.921  1.2094  2.7645 -2.6031
   53MOL   H68538229   1.447   5.546   2.899  0.6596  0.1621 -0.8310
   53MOL   C68638230   2.162   6.834   2.885 -0.0024  0.3056 -0.0073
   53MOL   O68738231   2.082   6.882   2.970  0.2515  0.5296 -0.5879
   53MOL   C68838232   2.240   6.912   2.780  0.3340 -0.3732 -0.3951
   53MOL   C68938233   2.184   7.025   2.719  0.5381 -0.1399  0.1321
   53MOL   C69038234   2.242   7.084   2.601 -0.4425 -0.3485 -0.7434
   53MOL   C69138235   2.369   7.035   2.560  0.3042  0.6595 -0.6889
   53MOL   C69238236   2.434   7.088   2.428 -0.4274 -0.2908 -0.3363
   53MOL   O69338237   2.536   7.036   2.384 -0.1375 -0.1646  0.8805
   53MOL   N69438238   2.364   7.193   2.379 -0.3153 -0.0955  0.0646
   53MOL   C69538239   2.400   7.278   2.274  0.1846 -0.8177 -0.7555
   53MOL   C69638240   2.460   7.398   2.344  0.2091 -0.4568 -0.6252
   53MOL   C69738241   2.494   7.513   2.247 -0.5846  0.7410  0.5303
   53MOL   C69838242   2.405   7.638   2.275  0.2857 -0.1392 -0.1157
   53MOL   C69938243   2.439   7.758   2.186 -0.0139 -0.1923  0.3165
   53MOL   C70038244   2.586   7.801   2.171  0.1153  0.5051  1.0908
   53MOL   N70138245   2.599   0.035   2.088  0.1508  0.3623 -0.0075
   53MOL   C70238246   2.432   6.931   2.636 -0.5161 -0.0280 -0.9197
   53MOL   C70338247   2.366   6.870   2.744  0.2539 -0.5643 -0.1627
   53MOL   H70438248   2.086   7.064   2.746  1.0055  0.9247  0.3173
   53MOL   H70538249   2.180   7.158   2.554 -0.9052 -0.0151  0.3738
   53MOL   H70638250   2.282   7.214   2.435  2.6461  1.0478  4.1340
   53MOL   H70738251   2.461   7.230   2.198  1.4989 -1.1690  0.5028
   53MOL   H70838252   2.301   7.306   2.239 -0.3969 -0.6533  0.9578
   53MOL   H70938253   2.550   7.361   2.394 -1.8282 -3.5576  0.8453
   53MOL   H71038254   2.393   7.436   2.421  1.8769 -0.2659  0.7528
   53MOL   H71138255   2.598   7.546   2.246 -0.2202 -0.2409  3.3180
   53MOL   H71238256   2.475   7.481   2.144  2.8157  1.7263 -0.4811
   53MOL   H71338257   2.416   7.659   2.381  0.8609 -0.3451 -0.1371
   53MOL   H71438258   2.298   7.618   2.266 -0.0796  1.4913  0.4071
   53MOL   H71538259   2.383   7.844   2.221  1.9386  0.6493  1.4262
   53MOL   H71638260   2.395   7.745   2.087 -0.1924 -0.4866  0.4314
   53MOL   H71738261   2.620   7.843   2.266 -1.7744  0.8673  1.6200
   53MOL   H71838262   2.643   7.721   2.124  0.5824  2.4359 -1.7153
   53MOL   H71938263   2.693   0.073   2.092  0.7611 -0.9502 -1.4209
   53MOL   H72038264   2.522   6.888   2.594  0.1757  1.1981 -0.7146
   53MOL   H72138265   2.426   6.799   2.800  4.2185  0.4939 -2.8328
   53MOL   H72238266   2.570   0.006   1.996  0.5508  2.3045 -0.7623
   54MOL     C138267   0.148   4.294   2.053 -0.6611  0.3924  0.0688
   54MOL     O238268   0.185   4.399   2.005 -0.0244 -0.3327  0.2156
   54MOL     C338269   0.235   4.198   2.142 -0.4403  0.3961 -0.3711
   54MOL     C438270   0.362   4.237   2.195  0.0044  0.4360 -0.2302
   54MOL     C538271   0.437   4.146   2.271  0.2211 -0.8326 -0.4714
   54MOL     C638272   0.383   4.024   2.307  0.2768  0.0993  1.0838
   54MOL     C738273   0.445   3.927   2.396 -0.4907  0.1390  0.1828
   54MOL     O838274   0.394   3.819   2.425 -0.0544  0.0427 -0.2902
   54MOL     N938275   0.558   3.963   2.451  0.4558 -0.3418 -0.4117
   54MOL    C1038276   0.624   3.903   2.563  0.2295  0.0284  0.6613
   54MOL    C1138277   0.747   3.824   2.508 -0.4178  0.0189  0.1865
   54MOL    C1238278   0.704   3.702   2.416 -0.0142 -0.9362 -0.4875
   54MOL    C1338279   0.830   3.621   2.382  0.2622 -1.3093 -0.5564
   54MOL    C1438280   0.815   3.498   2.297 -0.4036 -0.1284 -0.4539
   54MOL    C1538281   0.931   3.400   2.304  0.4451 -0.3477  0.0421
   54MOL    N1638282   1.066   3.457   2.286 -0.2042  0.2703 -0.1415
   54MOL    C1738283   0.257   3.984   2.251 -0.4514  0.3992 -0.0195
   54MOL    C1838284   0.180   4.072   2.174  0.3143  0.8486  0.0518
   54MOL    H1938285   0.397   4.334   2.164 -2.0443  0.7411 -1.7471
   54MOL    H2038286   0.525   4.178   2.325 -0.3002  1.2557 -0.8173
   54MOL    H2138287   0.585   4.059   2.436 -0.4323  0.7088  4.0780
   54MOL    H2238288   0.669   3.977   2.628 -0.1262 -0.9500  2.0452
   54MOL    H2338289   0.557   3.839   2.620  1.7403 -2.1445  0.0667
   54MOL    H2438290   0.806   3.774   2.586 -0.0712  0.6783  0.3439
   54MOL    H2538291   0.823   3.883   2.458  1.6059 -1.0585  1.8911
   54MOL    H2638292   0.633   3.641   2.472  1.3112 -0.6643  1.5436
   54MOL    H2738293   0.653   3.734   2.326 -1.6335  0.5810  0.9472
   54MOL    H2838294   0.872   3.577   2.472  1.0606 -2.3521 -1.4287
   54MOL    H2938295   0.909   3.688   2.348 -0.8983 -0.0229 -0.8153
   54MOL    H3038296   0.797   3.535   2.196  0.8994  1.5388 -0.0948
   54MOL    H3138297   0.718   3.458   2.325 -1.1137  0.1012 -2.5127
   54MOL    H3238298   0.926   3.371   2.409  0.3911  0.7635  0.3517
   54MOL    H3338299   0.907   3.310   2.248  0.6856 -0.0397 -0.5585
   54MOL    H3438300   1.100   3.520   2.358 -0.0351  2.1987 -1.8414
   54MOL    H3538301   0.213   3.889   2.279 -0.1343 -0.5944 -2.7576
   54MOL    H3638302   0.090   4.037   2.126  0.2309  1.4242 -0.2161
   54MOL    H3738303   0.049   4.257   2.025 -0.0333  0.8809 -3.0175
   54MOL    C3838304   1.143   3.438   2.176  0.3667  0.2594  0.2529
   54MOL    O3938305   1.120   3.357   2.089 -0.3182 -0.2558 -0.0986
   54MOL    C4038306   1.265   3.525   2.159  0.0796  0.1340 -0.4695
   54MOL    C4138307   1.367   3.489   2.069  0.1411  0.3204  0.4759
   54MOL    C4238308   1.477   3.580   2.054 -0.6806  0.0985 -0.6898
   54MOL    C4338309   1.482   3.703   2.115  0.6513 -0.6146  0.0420
   54MOL    C4438310   1.592   3.800   2.080  0.4377  0.0836  0.3297
   54MOL    O4538311   1.635   3.809   1.967  0.2109  0.4322  0.1785
   54MOL    N4638312   1.643   3.869   2.184 -0.3228 -0.2040  0.1085
   54MOL    C4738313   1.758   3.946   2.188  0.2378 -0.4075 -1.2844
   54MOL    C4838314   1.778   3.985   2.333  0.2361  0.2942 -0.1110
   54MOL    C4938315   1.904   4.062   2.350  0.2584 -0.5756  0.0180
   54MOL    C5038316   2.034   3.987   2.339 -0.6053  0.6640  0.0084
   54MOL    C5138317   2.155   4.061   2.396  0.0539  0.4903 -0.2445
   54MOL    C5238318   2.285   3.968   2.414 -0.0719  0.1410  0.2616
   54MOL    N5338319   2.299   3.867   2.315 -0.6527  0.0230  0.1258
   54MOL    C5438320   1.389   3.734   2.219  0.6660 -0.1936 -0.2900
   54MOL    C5538321   1.278   3.647   2.233  0.1629 -0.7433  0.1283
   54MOL    H5638322   1.371   3.395   2.018  2.6343 -0.0143  1.2208
   54MOL    H5738323   1.551   3.549   1.982  0.3995  1.6134 -0.2699
   54MOL    H5838324   1.597   3.861   2.274  0.0033  2.8619  0.6025
   54MOL    H5938325   1.839   3.881   2.154  1.2200  0.0864  0.0983
   54MOL    H6038326   1.759   4.033   2.122  2.4031 -0.9703 -2.0461
   54MOL    H6138327   1.780   3.893   2.392  1.0793 -1.7891 -3.2257
   54MOL    H6238328   1.689   4.042   2.358 -0.0472 -0.0585 -0.3097
   54MOL    H6338329   1.906   4.145   2.281 -0.2452 -0.7376 -0.1902
   54MOL    H6438330   1.896   4.114   2.446  0.2235 -1.1646  0.3432
   54MOL    H6538331   2.048   3.954   2.236  0.9321  0.8234  0.1594
   54MOL    H6638332   2.031   3.896   2.400 -0.8615  0.9568  0.4312
   54MOL    H6738333   2.127   4.101   2.493  1.6294  0.4180  0.2569
   54MOL    H6838334   2.195   4.135   2.327 -0.4528  0.4647 -0.5638
   54MOL    H6938335   2.374   4.028   2.430 -0.5378  0.6087  1.1500
   54MOL    H7038336   2.272   3.900   2.498  0.4537 -0.4294 -0.1195
   54MOL    H7138337   2.208   3.837   2.286 -0.3064 -0.4466 -0.4844
   54MOL    H7238338   1.392   3.832   2.265  0.7709 -1.3482  2.2387
   54MOL    H7338339   1.194   3.674   2.296  0.6622 -1.3503  1.0690
   54MOL    C7438340   2.411   3.835   2.242  0.0493  0.2128 -0.6521
   54MOL    O7538341   2.514   3.891   2.263  0.8323  0.7182 -0.4078
   54MOL    C7638342   2.402   3.732   2.135  0.0259 -0.4253  0.5471
   54MOL    C7738343   2.477   3.739   2.015  0.3569 -0.4147 -0.6794
   54MOL    C7838344   2.462   3.643   1.913 -0.2228  0.2579 -0.9088
   54MOL    C7938345   2.387   3.525   1.934  0.3585 -0.5292  0.3033
   54MOL    C8038346   2.354   3.421   1.831  0.4726  0.1955  0.0045
   54MOL    O8138347   2.388   3.432   1.718  0.3931 -0.1454 -0.5724
   54MOL    N8238348   2.282   3.315   1.869  0.4055 -0.2544  0.1151
   54MOL    C8338349   2.224   3.204   1.784 -0.0427 -0.2029 -0.9781
   54MOL    C8438350   2.073   3.211   1.788  0.3643 -0.1881 -0.0975
   54MOL    C8538351   1.991   3.093   1.725  0.3275  0.1140 -0.2301
   54MOL    C8638352   1.839   3.095   1.780  0.5744 -0.2357  0.1128
   54MOL    C8738353   1.751   3.007   1.683 -0.0874  0.1181  0.0142
   54MOL    C8838354   1.601   3.029   1.714  1.2453  0.3751 -0.2343
   54MOL    N8938355   1.563   2.988   1.852 -0.4632 -0.2322 -0.0650
   54MOL    C9038356   2.316   3.521   2.056 -0.4039 -0.6101 -0.3920
   54MOL    C9138357   2.328   3.616   2.158 -0.9960 -0.2889 -0.2350
   54MOL    H9238358   2.540   3.824   1.991  0.9608 -1.1605 -1.8039
   54MOL    H9338359   2.504   3.666   1.817 -2.7360  0.3153 -2.0126
   54MOL    H9438360   2.269   3.308   1.969  3.0777  2.5976  0.7433
   54MOL    H9538361   2.263   3.209   1.682  1.5094  0.8670 -0.3365
   54MOL    H9638362   2.259   3.110   1.827  2.9922  0.4255 -1.9393
   54MOL    H9738363   2.032   3.298   1.738  1.6629  1.2368  1.2596
   54MOL    H9838364   2.048   3.217   1.894  0.4476  1.0110 -0.1450
   54MOL    H9938365   2.002   3.122   1.621  0.8355  2.7948  0.5467
   54MOL   H10038366   2.039   2.996   1.744 -0.1828 -0.2249 -0.6492
   54MOL   H10138367   1.808   3.199   1.771  0.7600 -0.1182  0.7893
   54MOL   H10238368   1.841   3.063   1.884  0.4280 -0.6407 -0.0077
   54MOL   H10338369   1.779   2.905   1.709  0.0233  0.1415 -0.0124
   54MOL   H10438370   1.785   3.027   1.581 -0.9258  1.5006  0.0022
   54MOL   H10538371   1.571   3.132   1.692 -0.9775 -0.5741 -1.7702
   54MOL   H10638372   1.540   2.967   1.649 -2.5613  3.4734  0.1758
   54MOL   H10738373   1.571   2.892   1.882 -1.6928  0.1780  1.6571
   54MOL   H10838374   2.250   3.437   2.071 -1.8858  0.5631 -0.2758
   54MOL   H10938375   2.280   3.596   2.253  1.5211  1.0143  1.3604
   54MOL   C11038376   1.522   3.070   1.947  0.0431  0.2754 -0.2806
   54MOL   O11138377   1.522   3.192   1.935  0.0782 -0.9965 -0.1114
   54MOL   C11238378   1.500   3.011   2.086 -0.2663  0.2389 -0.5208
   54MOL   C11338379   1.465   2.877   2.106 -0.8032  0.5319  0.1853
   54MOL   C11438380   1.465   2.831   2.235  0.8833 -0.3227 -0.0070
   54MOL   C11538381   1.480   2.918   2.346  1.0727  0.6198  0.1746
   54MOL   C11638382   1.484   2.857   2.476  0.3116  0.5175 -0.3677
   54MOL   O11738383   1.577   2.883   2.556 -0.6455 -0.4063 -0.2455
   54MOL   N11838384   1.383   2.782   2.511  0.1225  0.1597 -0.0355
   54MOL   C11938385   1.379   2.706   2.633  0.0999 -0.7451  0.0534
   54MOL   C12038386   1.277   2.596   2.613 -0.1234  0.1596  0.4553
   54MOL   C12138387   1.337   2.460   2.590 -0.7261 -0.2483  0.4749
   54MOL   C12238388   1.382   2.433   2.444  0.0246  0.0254 -0.3926
   54MOL   C12338389   1.429   2.285   2.425 -0.6895  1.0251  0.1531
   54MOL   C12438390   1.490   2.255   2.287  0.5608  0.2473  0.0028
   54MOL   N12538391   1.391   2.279   2.184  0.5642  0.3209 -0.5263
   54MOL   C12638392   1.507   3.052   2.330  0.1015 -0.4465 -0.4573
   54MOL   C12738393   1.516   3.099   2.200 -0.1214  0.0480  0.3960
   54MOL   H12838394   1.446   2.804   2.029 -2.0876  1.8833 -0.8206
   54MOL   H12938395   1.437   2.728   2.254 -2.3398  0.9226  2.4463
   54MOL   H13038396   1.292   2.781   2.466 -0.7240 -1.0834  1.6371
   54MOL   H13138397   1.477   2.670   2.663  1.3957  3.0409  0.5905
   54MOL   H13238398   1.340   2.768   2.715  1.2644  0.9195 -0.6308
   54MOL   H13338399   1.202   2.614   2.536  0.7422  1.0757 -0.1926
   54MOL   H13438400   1.208   2.585   2.697 -0.5814 -1.6847 -0.1461
   54MOL   H13538401   1.424   2.442   2.653 -1.9514 -1.9879  1.7210
   54MOL   H13638402   1.257   2.397   2.630 -0.3105 -1.8530 -1.1798
   54MOL   H13738403   1.462   2.507   2.434  0.9295 -0.5607  2.0960
   54MOL   H13838404   1.302   2.454   2.373 -0.8520  0.0336  0.5882
   54MOL   H13938405   1.358   2.206   2.450  2.1994 -1.8612 -0.3975
   54MOL   H14038406   1.513   2.265   2.491  1.3853  2.9310 -1.8361
   54MOL   H14138407   1.583   2.312   2.278  0.6904 -0.0075 -0.2671
   54MOL   H14238408   1.520   2.151   2.299 -1.7014 -0.2324  1.7186
   54MOL   H14338409   1.297   2.253   2.210  1.1742 -2.4973 -1.0299
   54MOL   H14438410   1.523   3.120   2.412  0.2953 -1.1775  0.1141
   54MOL   H14538411   1.545   3.202   2.192 -2.2028  0.7958  2.0240
   54MOL   C14638412   1.419   2.345   2.076 -0.1059  0.7727  0.6047
   54MOL   O14738413   1.530   2.376   2.047 -0.3562 -0.2859  0.9207
   54MOL   C14838414   1.303   2.358   1.980  0.2350 -0.2779 -0.1471
   54MOL   C14938415   1.170   2.324   2.017 -0.0859  0.1037 -0.0940
   54MOL   C15038416   1.065   2.360   1.927 -0.8332  0.2083 -0.3144
   54MOL   C15138417   1.092   2.428   1.807  0.0004 -0.0040 -0.4038
   54MOL   C15238418   0.975   2.481   1.728  0.3083 -0.2118  1.0343
   54MOL   O15338419   0.866   2.489   1.786 -0.0531  0.1164  0.0495
   54MOL   N15438420   0.999   2.508   1.599 -0.4860 -0.0914 -0.1215
   54MOL   C15538421   0.911   2.568   1.506 -0.4473 -0.0684  0.3698
   54MOL   C15638422   0.926   2.720   1.498  0.3445  0.4267  0.6335
   54MOL   C15738423   1.045   2.765   1.408  0.3663 -0.0254  0.8391
   54MOL   C15838424   1.025   2.753   1.264 -0.1278  0.2503  0.7010
   54MOL   C15938425   1.142   2.807   1.172  0.2867  0.0882 -0.1946
   54MOL   C16038426   1.122   2.810   1.024  0.9373  0.2369  0.8415
   54MOL   N16138427   1.232   2.876   0.954  0.5378  0.3959  0.0892
   54MOL   C16238428   1.224   2.457   1.773 -0.6274  0.6040  0.6652
   54MOL   C16338429   1.329   2.414   1.858  0.2165 -0.2892 -0.0885
   54MOL   H16438430   1.154   2.267   2.106 -1.6751 -1.8015 -1.5649
   54MOL   H16538431   0.961   2.343   1.950 -0.9933 -0.6334 -1.6166
   54MOL   H16638432   1.090   2.487   1.561 -1.1142 -1.8959 -0.6913
   54MOL   H16738433   0.908   2.533   1.403 -1.0183  0.3553  0.2385
   54MOL   H16838434   0.815   2.529   1.540 -0.6106 -1.3396 -1.5083
   54MOL   H16938435   0.933   2.755   1.601  0.8109 -1.0023  1.1019
   54MOL   H17038436   0.839   2.762   1.446 -0.4285 -0.5697  1.1112
   54MOL   H17138437   1.067   2.870   1.427  0.0401  0.5620 -1.8644
   54MOL   H17238438   1.143   2.719   1.421 -0.5058 -1.6334  1.8762
   54MOL   H17338439   0.932   2.801   1.232  0.5388  0.3147 -1.2305
   54MOL   H17438440   1.016   2.646   1.244 -0.8183  0.4575 -0.1099
   54MOL   H17538441   1.244   2.787   1.206 -0.1220  1.1670  1.7284
   54MOL   H17638442   1.147   2.914   1.193  1.2312 -0.1659  0.9487
   54MOL   H17738443   1.115   2.704   0.998 -1.9790  0.3879  0.8092
   54MOL   H17838444   1.031   2.866   1.001  1.3320 -0.7694 -3.5285
   54MOL   H17938445   1.212   2.962   0.906  0.7575  0.5007  0.1870
   54MOL   H18038446   1.254   2.510   1.684  0.0147 -1.2659 -0.2749
   54MOL   H18138447   1.432   2.439   1.838  0.1201 -0.0540 -0.2991
   54MOL   C18238448   1.358   2.826   0.940 -0.5134  0.3488  0.0921
   54MOL   O18338449   1.398   2.729   0.999  0.0843  0.6008 -0.0779
   54MOL   C18438450   1.451   2.896   0.844  0.2533 -0.0933 -0.0336
   54MOL   C18538451   1.587   2.906   0.869  0.0392 -0.1186 -0.0779
   54MOL   C18638452   1.671   2.980   0.779 -0.5139  0.1965  0.2699
   54MOL   C18738453   1.619   3.040   0.666  0.2888  0.3567  0.2255
   54MOL   C18838454   1.708   3.109   0.567  0.1897  0.5890 -0.1401
   54MOL   O18938455   1.827   3.090   0.570 -0.5361  0.6100  0.6427
   54MOL   N19038456   1.652   3.200   0.484  0.7487 -0.4763 -1.2594
   54MOL   C19138457   1.723   3.282   0.385  0.0699  0.4437  0.7193
   54MOL   C19238458   1.634   3.334   0.269  0.2594  0.2835 -0.6466
   54MOL   C19338459   1.721   3.419   0.176  0.5941  0.4054 -0.3494
   54MOL   C19438460   1.671   3.428   0.035  0.1680 -0.5027 -0.4947
   54MOL   C19538461   1.528   3.495   0.021 -0.7014 -0.4493  0.2357
   54MOL   C19638462   1.491   3.510   7.756 -0.3780 -0.2603 -1.0392
   54MOL   N19738463   1.513   3.392   7.685 -0.1524 -0.0698  0.0268
   54MOL   C19838464   1.482   3.019   0.636  0.1116  0.2939  0.0128
   54MOL   C19938465   1.401   2.954   0.726  0.2399 -0.9521 -0.3100
   54MOL   H20038466   1.634   2.861   0.955  0.6315 -1.3737 -1.0350
   54MOL   H20138467   1.778   2.985   0.789 -0.4676 -0.0365 -0.1031
   54MOL   H20238468   1.552   3.197   0.478  0.6807  0.8251 -0.9789
   54MOL   H20338469   1.759   3.369   0.440  1.4458 -0.5418  1.4166
   54MOL   H20438470   1.807   3.230   0.339 -0.4344  1.4801 -1.3791
   54MOL   H20538471   1.556   3.398   0.311  0.3302  0.4081 -0.7066
   54MOL   H20638472   1.598   3.244   0.219  1.5281  0.8819 -2.6952
   54MOL   H20738473   1.729   3.519   0.219  1.0364 -0.2414  1.0916
   54MOL   H20838474   1.821   3.378   0.190  0.8483  0.4180 -2.0212
   54MOL   H20938475   1.670   3.326   7.883  1.3871 -0.1339 -1.5506
   54MOL   H21038476   1.749   3.484   7.868  1.0596 -0.4077  0.9145
   54MOL   H21138477   1.524   3.596   0.063 -0.9094  0.2295 -1.3719
   54MOL   H21238478   1.465   3.427   0.078 -0.9635 -0.7523 -0.4142
   54MOL   H21338479   1.386   3.533   7.739  0.0301  1.3488 -1.4468
   54MOL   H21438480   1.553   3.586   7.708 -2.4892  2.1246 -0.0983
   54MOL   H21538481   1.603   3.392   7.640 -0.4960  0.4047 -0.6750
   54MOL   H21638482   1.433   3.056   0.547 -0.1362  0.1508  0.0893
   54MOL   H21738483   1.295   2.942   0.708  0.2968 -2.6179  0.3609
   54MOL   C21838484   1.422   3.318   7.627  0.2271 -0.1631 -0.2093
   54MOL   O21938485   1.303   3.318   7.650 -0.4844  0.5428 -0.3004
   54MOL   C22038486   1.475   3.216   7.532  0.1061 -0.1018  0.4585
   54MOL   C22138487   1.406   3.182   7.412 -0.0824 -0.1053  0.1557
   54MOL   C22238488   1.445   3.074   7.330 -0.1830  0.4040  0.4106
   54MOL   C22338489   1.556   2.996   7.363 -0.1063 -0.0010  0.2905
   54MOL   C22438490   1.586   2.874   7.287  0.3896 -0.2414 -0.1090
   54MOL   O22538491   1.591   2.874   7.157  0.2749 -0.0446 -0.4217
   54MOL   N22638492   1.619   2.766   7.357 -0.0586  0.1489 -0.1067
   54MOL   C22738493   1.671   2.652   7.296  0.2525  1.1498 -0.1575
   54MOL   C22838494   1.712   2.544   7.391  0.2425  0.1832  0.4985
   54MOL   C22938495   1.718   2.406   7.318 -0.2825  0.1827  0.2460
   54MOL   C23038496   1.744   2.292   7.420 -0.2250 -0.1268 -0.2238
   54MOL   C23138497   1.890   2.290   7.479 -0.3283  0.4133 -0.7543
   54MOL   C23238498   1.905   2.180   7.588  0.1475  0.0034 -0.3218
   54MOL   N23338499   2.041   2.175   7.635  0.1818  0.7180 -0.1713
   54MOL   C23438500   1.628   3.035   7.483  0.5630  0.0501  0.4304
   54MOL   C23538501   1.588   3.143   7.567  0.0431 -0.0274  0.2210
   54MOL   H23638502   1.310   3.226   7.389  0.6649  0.8880 -1.1597
   54MOL   H23738503   1.392   3.047   7.241 -0.4670 -1.6262  1.1784
   54MOL   H23838504   1.602   2.772   7.456  0.1218  0.6423 -0.1019
   54MOL   H23938505   1.591   2.603   7.240  1.4958 -2.1518  0.8375
   54MOL   H24038506   1.752   2.667   7.224 -0.6633 -0.3960 -1.5493
   54MOL   H24138507   1.633   2.546   7.465  0.1748 -0.7387  0.4607
   54MOL   H24238508   1.810   2.550   7.440  0.8469  0.7496 -0.7484
   54MOL   H24338509   1.616   2.392   7.281 -0.4479 -1.4591  1.2687
   54MOL   H24438510   1.788   2.412   7.235 -0.1159 -0.7068  0.3132
   54MOL   H24538511   1.735   2.193   7.375  0.5198 -1.2314  1.9813
   54MOL   H24638512   1.669   2.309   7.498 -0.4531 -0.0093 -0.4661
   54MOL   H24738513   1.917   2.381   7.532  0.4822  0.0200 -0.4883
   54MOL   H24838514   1.974   2.284   7.411  0.8978  0.9898  0.6925
   54MOL   H24938515   1.837   2.203   7.670 -0.0497 -0.6274 -0.3045
   54MOL   H25038516   1.881   2.080   7.550 -0.3351 -0.0152  0.0200
   54MOL   H25138517   2.089   2.261   7.612 -0.6644  1.3612  0.4268
   54MOL   H25238518   1.705   2.966   7.514 -0.8064 -0.6070  2.3949
   54MOL   H25338519   1.647   3.173   7.652  0.5541 -1.2910  0.3208
   54MOL   C25438520   2.096   2.080   7.714  0.8558  0.4030 -0.0485
   54MOL   O25538521   2.033   1.994   7.770 -0.0671  0.2560 -0.4238
   54MOL   C25638522   2.232   2.097   7.758 -0.0746  0.1331 -0.2710
   54MOL   C25738523   2.266   2.086   0.011  0.1386  0.7548 -0.0758
   54MOL   C25838524   2.395   2.113   0.053 -0.2241 -0.5226  0.2300
   54MOL   C25938525   2.493   2.144   7.850 -0.0988  0.5593  0.8772
   54MOL   C26038526   2.627   2.173   0.012  0.2574 -0.1931 -0.1999
   54MOL   O26138527   2.645   2.184   0.132 -0.6764 -0.4697 -0.2254
   54MOL   N26238528   2.727   2.161   7.816 -0.0971  0.2622 -0.5323
   54MOL   C26338529   2.865   2.137   7.847 -0.3942 -0.2463 -0.5398
   54MOL   C26438530   2.962   2.166   7.725  0.3443  0.6636  0.6295
   54MOL   C26538531   2.927   2.080   7.600 -0.1911  0.3499 -0.4228
   54MOL   C26638532   3.000   2.140   7.479 -0.2805 -0.6746  0.5519
   54MOL   C26738533   3.001   2.037   7.365  0.4888  0.1639  0.0166
   54MOL   C26838534   2.876   1.998   7.283  0.0712 -0.1813  0.4877
   54MOL   N26938535   2.823   2.114   7.212  0.1705 -0.2364 -0.0291
   54MOL   C27038536   2.464   2.148   7.712  0.4588 -1.1101 -0.0401
   54MOL   C27138537   2.331   2.124   7.664 -0.8364 -0.3333 -0.2883
   54MOL   H27238538   2.192   2.075   0.089  1.3246 -2.9615  0.6099
   54MOL   H27338539   2.417   2.105   0.158 -2.0365 -3.8164  0.4430
   54MOL   H27438540   2.701   2.145   7.719  0.8550 -0.6393 -0.6491
   54MOL   H27538541   2.887   2.218   0.031 -0.1767  0.3190 -1.2586
   54MOL   H27638542   2.892   2.049   0.019 -0.6361 -0.4376 -0.7184
   54MOL   H27738543   3.064   2.133   7.747  0.7424  0.5743 -1.2489
   54MOL   H27838544   2.972   2.272   7.702 -1.9580  0.2896 -2.3975
   54MOL   H27938545   2.974   1.982   7.614 -0.1841 -0.1388 -3.4805
   54MOL   H28038546   2.820   2.064   7.594 -0.5209  1.9224  0.8164
   54MOL   H28138547   3.102   2.167   7.508  0.2593 -1.0037 -1.0012
   54MOL   H28238548   2.958   2.236   7.450 -0.5493 -0.4237  1.7536
   54MOL   H28338549   3.051   1.949   7.407  1.1373 -0.9132 -2.8776
   54MOL   H28438550   3.069   2.066   7.285  0.2301 -1.1638 -0.7110
   54MOL   H28538551   2.887   1.924   7.204  0.0508  0.0997  0.2210
   54MOL   H28638552   2.803   1.968   7.357 -0.4405 -1.5774 -0.5678
   54MOL   H28738553   2.867   2.133   7.123  2.0834 -0.3886  0.8604
   54MOL   H28838554   2.545   2.167   7.643  0.3633 -0.4176  0.0395
   54MOL   H28938555   2.313   2.129   7.557  1.7009 -0.1263 -0.7329
   54MOL   C29038556   2.699   2.167   7.233 -0.8465 -0.3348 -0.9043
   54MOL   O29138557   2.616   2.127   7.318 -0.5026 -0.4160 -0.4119
   54MOL   C29238558   2.667   2.269   7.131  0.8743 -0.5094 -0.2854
   54MOL   C29338559   2.767   2.359   7.085  0.0039 -0.6820  0.6540
   54MOL   C29438560   2.732   2.464   6.994  0.2591  0.1872  0.5193
   54MOL   C29538561   2.598   2.495   6.966  0.2060 -0.6380  0.3673
   54MOL   C29638562   2.563   2.620   6.893  0.0640  0.6151  0.4638
   54MOL   O29738563   2.466   2.629   6.820  0.4452 -0.1491 -0.1008
   54MOL   N29838564   2.645   2.716   6.919  0.5687  0.0029 -0.4372
   54MOL   C29938565   2.624   2.855   6.867  0.4015 -0.2784 -0.2140
   54MOL   C30038566   2.760   2.931   6.862  0.1172 -1.0062 -0.0385
   54MOL   C30138567   2.873   2.863   6.786 -0.2061 -0.2970 -0.1403
   54MOL   C30238568   3.004   2.930   6.817 -0.1497 -0.4472  0.8891
   54MOL   C30338569   3.088   2.883   6.939  0.3041  0.4008  0.1284
   54MOL   C30438570   3.127   2.740   6.938 -0.0385  0.2747  0.3003
   54MOL   N30538571   3.189   2.689   6.812 -0.4225 -0.0254  0.0492
   54MOL   C30638572   2.493   2.405   7.015 -0.9745  0.1426 -1.2343
   54MOL   C30738573   2.532   2.293   7.095 -0.3622 -0.6874 -0.3106
   54MOL   H30838574   2.870   2.341   7.112 -0.0774 -1.9231  0.1535
   54MOL   H30938575   2.815   2.521   6.954 -1.3693  1.1650 -1.5352
   54MOL   H31038576   2.718   2.699   6.987 -0.3244  1.5999  0.9485
   54MOL   H31138577   2.586   2.859   6.765 -1.1883 -1.4258  0.3097
   54MOL   H31238578   2.554   2.900   6.937  0.6223 -0.3754  0.0715
   54MOL   H31338579   2.795   2.929   6.965  0.6633  3.6626 -0.0121
   54MOL   H31438580   2.733   3.031   6.830  0.5715 -1.0209 -0.4691
   54MOL   H31538581   2.886   2.757   6.810  1.1337 -0.3394 -1.0446
   54MOL   H31638582   2.860   2.866   6.678  2.3424 -0.8272 -0.4834
   54MOL   H31738583   2.972   3.034   6.818 -0.9768 -0.6833 -0.0373
   54MOL   H31838584   3.077   2.932   6.737 -0.0978  2.9264  0.9219
   54MOL   H31938585   3.033   2.902   7.031 -0.4316 -1.6750  0.1483
   54MOL   H32038586   3.182   2.936   6.947  0.4109 -0.0089  1.6724
   54MOL   H32138587   3.202   2.737   7.016 -0.5100 -0.6260  0.7288
   54MOL   H32238588   3.042   2.674   6.955  2.4717 -2.8771  1.1069
   54MOL   H32338589   3.271   2.740   6.783  1.6217 -1.7175  2.6868
   54MOL   H32438590   2.388   2.425   7.001 -1.2907  0.5537  1.4771
   54MOL   H32538591   2.447   2.238   7.132  0.4483  0.1912  3.0128
   54MOL   C32638592   3.148   2.575   6.742 -0.2359  0.0742 -0.0819
   54MOL   O32738593   3.048   2.513   6.770  0.0115  0.0700 -0.2527
   54MOL   C32838594   3.238   2.537   6.626 -0.0382 -0.1705  0.2852
   54MOL   C32938595   3.220   2.408   6.567  0.5527 -0.8330  0.8742
   54MOL   C33038596   3.290   2.378   6.443  0.0469  0.4325  0.0197
   54MOL   C33138597   3.376   2.470   6.382  0.6992  0.2188 -0.1913
   54MOL   C33238598   3.449   2.436   6.248 -0.1161  0.0030 -0.6628
   54MOL   O33338599   3.390   2.380   6.161 -0.2521  0.1075 -0.4307
   54MOL   N33438600   3.568   2.497   6.232  0.0979 -0.2770  0.4950
   54MOL   C33538601   3.629   2.511   6.097 -0.2450  0.3978  0.3285
   54MOL   C33638602   3.684   2.651   6.073 -0.0676 -0.5353 -0.2567
   54MOL   C33738603   3.790   2.709   6.166 -0.6352 -0.1299 -0.2885
   54MOL   C33838604   3.854   2.845   6.125  0.2729  0.0707 -0.2519
   54MOL   C33938605   3.773   2.977   6.146 -0.3111 -0.4865  0.5798
   54MOL   C34038606   3.719   3.001   6.288  0.1096 -0.6582 -0.0051
   54MOL   N34138607   3.689   3.146   6.298  0.4412 -0.6058  0.4543
   54MOL   C34238608   3.395   2.599   6.444  0.5014 -0.3036 -0.2717
   54MOL   C34338609   3.331   2.625   6.565 -0.5806 -0.1893  0.0222
   54MOL   H34438610   3.155   2.333   6.608 -0.9488  0.0373  0.1165
   54MOL   H34538611   3.280   2.281   6.397  1.9061 -0.4916  1.4602
   54MOL   H34638612   3.609   2.545   6.310  3.0565 -1.2374 -0.4032
   54MOL   H34738613   3.708   2.436   6.092 -1.0289 -0.5171  1.4135
   54MOL   H34838614   3.551   2.491   6.023 -0.4644  0.3512  0.5699
   54MOL   H34938615   3.610   2.731   6.073  0.5671  0.0690 -1.1605
   54MOL   H35038616   3.733   2.649   5.975  1.4968  1.9641  0.4242
   54MOL   H35138617   3.751   2.711   6.267  1.3448  0.8870  0.4850
   54MOL   H35238618   3.871   2.636   6.166  1.1966  1.8223 -0.3058
   54MOL   H35338619   3.890   2.841   6.022 -1.3196  3.3121 -1.0079
   54MOL   H35438620   3.953   2.847   6.170  0.2516  0.7028 -0.2390
   54MOL   H35538621   3.684   2.959   6.087 -0.4167  0.7134  0.3469
   54MOL   H35638622   3.822   3.063   6.101  0.0293 -0.6981  0.5428
   54MOL   H35738623   3.635   2.933   6.299 -0.2642 -0.2870 -0.5288
   54MOL   H35838624   3.796   2.977   6.363  0.6321  1.9750  0.3689
   54MOL   H35938625   3.644   3.174   6.212 -0.9837 -0.5654  1.2073
   54MOL   H36038626   3.470   2.669   6.410 -2.0336  2.7600  0.2002
   54MOL   H36138627   3.339   2.726   6.604 -0.3230 -0.3122  0.2961
   54MOL   C36238628   3.686   3.228   6.408 -0.0213  0.1086 -0.0698
   54MOL   O36338629   3.720   3.194   6.520  0.5203 -0.1157  0.0483
   54MOL   C36438630   3.637   3.371   6.375 -0.3584 -0.4999 -0.8042
   54MOL   C36538631   3.643   3.419   6.240  0.1136 -0.6684 -0.2681
   54MOL   C36638632   3.614   3.552   6.201  0.3536  0.5572 -0.0681
   54MOL   C36738633   3.574   3.644   6.301 -0.3594  0.7055  0.5809
   54MOL   C36838634   3.539   3.782   6.267 -0.2394 -0.4871 -0.0229
   54MOL   O36938635   3.592   3.831   6.168  0.1770  0.1263 -0.4265
   54MOL   N37038636   3.443   3.848   6.331 -0.1140 -0.4478 -0.7564
   54MOL   C37138637   3.404   3.975   6.300  0.1921  0.2979 -0.3050
   54MOL   C37238638   3.253   3.985   6.331  0.7073  0.3132 -0.3838
   54MOL   C37338639   3.162   3.858   6.306 -0.5506 -1.1375 -0.0058
   54MOL   C37438640   3.158   3.756   6.420 -0.5411  0.1207  0.2644
   54MOL   C37538641   3.037   3.656   6.403 -0.5400 -0.3720 -0.3698
   54MOL   C37638642   3.050   3.550   6.516  0.3553  1.1905  0.3552
   54MOL   N37738643   2.947   3.447   6.517 -0.0259 -0.4216 -0.2953
   54MOL   C37838644   3.568   3.600   6.442 -0.5449  0.0435  0.2409
   54MOL   C37938645   3.603   3.466   6.474  0.2597  0.4697 -0.1251
   54MOL   H38038646   3.664   3.357   6.154  0.6880  1.8232 -1.9852
   54MOL   H38138647   3.613   3.586   6.098 -1.8928 -1.2501 -0.6863
   54MOL   H38238648   3.401   3.811   6.415  1.2945  2.7991  1.4874
   54MOL   H38338649   3.460   4.040   6.367  2.1057 -1.3013 -0.3372
   54MOL   H38438650   3.413   3.998   6.194 -2.8697 -0.8002 -0.8672
   54MOL   H38538651   3.210   4.069   6.276 -1.6812  0.5577  1.7391
   54MOL   H38638652   3.230   4.035   6.425 -3.2682 -2.0347  0.0127
   54MOL   H38738653   3.063   3.903   6.296  0.2539  0.9333  0.9172
   54MOL   H38838654   3.187   3.814   6.210  2.1812 -1.2296  0.7031
   54MOL   H38938655   3.162   3.817   6.510  0.5419  2.3301 -1.2316
   54MOL   H39038656   3.249   3.696   6.412 -2.7418 -3.3404 -0.0642
   54MOL   H39138657   3.042   3.610   6.304  0.6451 -0.4004 -0.3012
   54MOL   H39238658   2.948   3.716   6.424  0.1505 -0.0663  1.8133
   54MOL   H39338659   3.139   3.488   6.500  0.1878  1.0252  0.0575
   54MOL   H39438660   3.055   3.601   6.613  0.6424  0.6203  0.6434
   54MOL   H39538661   2.943   3.401   6.427  0.9558  0.5727 -0.8492
   54MOL   H39638662   3.554   3.676   6.517  0.8731  1.4195 -0.8410
   54MOL   H39738663   3.595   3.437   6.578 -0.0169  1.2963  0.0869
   54MOL   C39838664   2.851   3.421   6.610 -0.2336  0.0490 -0.6112
   54MOL   O39938665   2.844   3.494   6.713  0.0221  0.6705 -0.6201
   54MOL   C40038666   2.772   3.297   6.594  0.7378 -0.7562  0.3870
   54MOL   C40138667   2.639   3.300   6.652 -0.0238  1.1122  0.7389
   54MOL   C40238668   2.559   3.182   6.629  0.2291 -0.2348  0.2600
   54MOL   C40338669   2.598   3.070   6.556 -0.3445 -0.3532 -1.1495
   54MOL   C40438670   2.505   2.955   6.523  0.0868  0.6266 -0.0047
   54MOL   O40538671   2.384   2.962   6.544 -0.0004 -0.2462  0.4716
   54MOL   N40638672   2.572   2.839   6.495 -0.8855 -0.7112  0.1155
   54MOL   C40738673   2.503   2.708   6.483 -0.5750  0.8596 -0.0380
   54MOL   C40838674   2.609   2.603   6.527  0.4877 -0.2224 -0.3038
   54MOL   C40938675   2.551   2.463   6.537 -0.3966  0.5917  0.2486
   54MOL   C41038676   2.677   2.378   6.570 -0.3788 -0.4157  0.2152
   54MOL   C41138677   2.771   2.339   6.456  0.3828 -0.0622  0.2240
   54MOL   C41238678   2.898   2.265   6.509 -0.1005 -0.7474  0.0656
   54MOL   N41338679   2.862   2.127   6.540 -0.2263  0.4136 -0.8482
   54MOL   C41438680   2.723   3.082   6.492  0.3213 -0.0575  0.1473
   54MOL   C41538681   2.808   3.195   6.507  0.0503  0.6106  0.1134
   54MOL   H41638682   2.585   3.388   6.684 -0.1878  1.4424 -0.4019
   54MOL   H41738683   2.453   3.192   6.650  0.0085  1.0241 -1.3970
   54MOL   H41838684   2.671   2.849   6.511 -0.8115  0.1801 -0.8359
   54MOL   H41938685   2.421   2.697   6.554  1.4530 -0.9857  2.1109
   54MOL   H42038686   2.469   2.702   6.380 -2.2639  1.2421  0.4764
   54MOL   H42138687   2.648   2.633   6.625  0.2714  1.5041 -0.7151
   54MOL   H42238688   2.700   2.617   6.469  0.1611  0.2902 -0.6964
   54MOL   H42338689   2.472   2.454   6.612  0.0369  2.2920  0.9258
   54MOL   H42438690   2.505   2.437   6.442 -1.9347 -2.5318  1.7785
   54MOL   H42538691   2.634   2.287   6.611  0.2229 -0.3303  1.0453
   54MOL   H42638692   2.730   2.418   6.657  0.1216 -0.5072 -0.0470
   54MOL   H42738693   2.813   2.428   6.410 -1.4186 -0.6297 -2.6587
   54MOL   H42838694   2.724   2.278   6.378  0.4876  0.4285 -0.2279
   54MOL   H42938695   2.982   2.269   6.440 -0.1017  0.7263  0.1319
   54MOL   H43038696   2.933   2.325   6.593 -1.6054  0.3341 -0.0567
   54MOL   H43138697   2.767   2.097   6.528  0.3641 -1.5055 -0.8081
   54MOL   H43238698   2.754   3.003   6.424  1.7476  1.1692 -0.6473
   54MOL   H43338699   2.901   3.202   6.452 -0.2390  0.0435 -0.4514
   54MOL   C43438700   2.955   2.034   6.537  0.5108 -0.2765 -0.6107
   54MOL   O43538701   3.071   2.065   6.508 -0.6561  0.9845 -0.4841
   54MOL   C43638702   2.909   1.890   6.561 -0.1650  0.7370  0.5586
   54MOL   C43738703   2.772   1.861   6.595 -0.0625 -0.1134 -0.6149
   54MOL   C43838704   2.736   1.731   6.632  0.2574  1.1997  0.1456
   54MOL   C43938705   2.834   1.628   6.651 -0.6753 -0.8785 -0.4900
   54MOL   C44038706   2.795   1.495   6.702 -0.1183  0.1261 -0.5952
   54MOL   O44138707   2.881   1.416   6.742  0.4308  0.1500 -0.3366
   54MOL   N44238708   2.670   1.461   6.680  0.0755  0.3583 -0.4902
   54MOL   C44338709   2.601   1.343   6.736  0.8232 -0.6739 -0.4811
   54MOL   C44438710   2.451   1.367   6.721 -0.2929  0.1814 -0.5990
   54MOL   C44538711   2.412   1.406   6.580 -0.4301  0.0263  0.5507
   54MOL   C44638712   2.268   1.361   6.549 -0.4453 -0.0907  0.7135
   54MOL   C44738713   2.208   1.429   6.437  0.3759 -0.5637 -0.1527
   54MOL   C44838714   2.050   1.410   6.434  0.8636  0.3342 -0.0148
   54MOL   N44938715   1.987   1.501   6.334  0.4470  0.0118 -0.0859
   54MOL   C45038716   2.964   1.665   6.622 -0.0918 -0.2137 -0.2023
   54MOL   C45138717   3.003   1.787   6.576 -0.2398  0.1900  0.1586
   54MOL   H45238718   2.697   1.939   6.584  0.5201  0.5010 -0.2524
   54MOL   H45338719   2.633   1.701   6.639  0.4217  1.3315  4.3004
   54MOL   H45438720   2.621   1.529   6.624  1.4160  0.0303 -2.1114
   54MOL   H45538721   2.634   1.254   6.682  0.4600 -0.3812 -1.2009
   54MOL   H45638722   2.626   1.331   6.841  0.3628 -2.9574 -0.6108
   54MOL   H45738723   2.424   1.441   6.796 -2.0679 -0.2927 -0.7434
   54MOL   H45838724   2.406   1.274   6.756  1.9816 -0.8999 -0.4875
   54MOL   H45938725   2.423   1.514   6.575  0.2726 -0.0391  0.6436
   54MOL   H46038726   2.480   1.355   6.511 -2.2722  0.3345 -1.5529
   54MOL   H46138727   2.202   1.364   6.636 -1.7651 -0.0694 -0.2543
   54MOL   H46238728   2.276   1.254   6.532  1.3706 -0.4526  3.5251
   54MOL   H46338729   2.243   1.396   6.339  0.8431  0.6923 -0.4289
   54MOL   H46438730   2.229   1.535   6.451  2.6128 -1.3233  2.8850
   54MOL   H46538731   2.023   1.310   6.401 -0.7496  0.1769  1.7261
   54MOL   H46638732   2.004   1.443   6.527 -0.2530  1.0081 -0.8012
   54MOL   H46738733   1.976   1.600   6.354  0.2680 -0.1850  0.8079
   54MOL   H46838734   3.043   1.593   6.639  0.1734  0.3487  0.9624
   54MOL   H46938735   3.107   1.799   6.552  0.4204 -0.0649  2.7101
   54MOL   C47038736   1.929   1.472   6.215  0.3384 -0.2202  0.1770
   54MOL   O47138737   1.949   1.362   6.161 -0.2650 -0.3374  0.1541
   54MOL   C47238738   1.864   1.583   6.133  0.3307  0.0848 -0.1378
   54MOL   C47338739   1.788   1.549   6.019  1.0041 -0.1955  0.3044
   54MOL   C47438740   1.715   1.644   5.945  0.1378  0.3284 -0.6250
   54MOL   C47538741   1.708   1.779   5.991 -0.2826  0.6407 -0.1885
   54MOL   C47638742   1.626   1.884   5.926  0.2773 -0.5416  0.1741
   54MOL   O47738743   1.591   1.870   5.807  0.0139  0.0100 -0.0414
   54MOL   N47838744   1.575   1.971   6.007  0.5058 -0.6208  0.1933
   54MOL   C47938745   1.509   2.096   5.959  0.1216  0.2490  0.0153
   54MOL   C48038746   1.357   2.074   5.942 -0.5685  0.0682  0.1820
   54MOL   C48138747   1.288   2.201   5.892  0.6922 -0.7218  0.1684
   54MOL   C48238748   1.139   2.218   5.922 -0.8456 -0.2686 -0.5065
   54MOL   C48338749   1.067   2.342   5.862  0.2066 -0.2725  0.5734
   54MOL   C48438750   0.917   2.352   5.887 -0.2982  0.6776 -0.4516
   54MOL   N48538751   0.835   2.271   5.803 -0.1016  0.1825  0.2516
   54MOL   C48638752   1.794   1.815   6.094 -0.4048 -0.4104 -0.4296
   54MOL   C48738753   1.871   1.718   6.162 -0.6574 -0.4839  0.7800
   54MOL   H48838754   1.770   1.444   6.005 -0.1413  0.2833 -2.3001
   54MOL   H48938755   1.654   1.614   5.861 -0.7631 -0.1358  0.1878
   54MOL   H49038756   1.604   1.959   6.103  0.4867 -5.2035 -0.2702
   54MOL   H49138757   1.524   2.164   6.042 -1.4602  0.9768 -0.2869
   54MOL   H49238758   1.557   2.130   5.867  2.1043 -3.3367 -0.3740
   54MOL   H49338759   1.305   2.036   6.030 -0.9456 -3.3476 -1.4137
   54MOL   H49438760   1.349   2.007   5.856 -2.0628  0.8056 -0.2776
   54MOL   H49538761   1.334   2.285   5.945 -0.7999  0.0575  0.2474
   54MOL   H49638762   1.306   2.211   5.785  0.8080 -0.1577  0.2374
   54MOL   H49738763   1.115   2.218   6.028 -2.9369 -1.6847 -0.9637
   54MOL   H49838764   1.098   2.130   5.874  0.3786  0.2940 -2.6572
   54MOL   H49938765   1.093   2.352   5.756  0.0047 -1.3553  0.4151
   54MOL   H50038766   1.115   2.425   5.913 -0.7949 -0.6568  2.1849
   54MOL   H50138767   0.894   2.312   5.986  0.0060 -0.7954 -0.9534
   54MOL   H50238768   0.895   2.458   5.876  0.4655  0.9246  0.3293
   54MOL   H50338769   0.858   2.173   5.789 -0.7475 -0.2300  1.9014
   54MOL   H50438770   1.794   1.918   6.129 -0.3583 -0.5460 -0.0204
   54MOL   H50538771   1.916   1.761   6.250  0.0180  0.5736 -0.0704
   54MOL   C50638772   0.720   2.311   5.752  0.2572  0.8527  0.2184
   54MOL   O50738773   0.669   2.420   5.774 -0.6600 -0.0104 -0.3709
   54MOL   C50838774   0.658   2.210   5.661 -0.0591  0.1389  0.3658
   54MOL   C50938775   0.685   2.075   5.667  0.6237 -0.4021  1.5256
   54MOL   C51038776   0.637   1.983   5.573  0.8401 -0.1917 -0.0127
   54MOL   C51138777   0.557   2.025   5.467 -0.0952 -0.7164  0.7756
   54MOL   C51238778   0.503   1.925   5.366 -1.0418  0.6342  0.2915
   54MOL   O51338779   0.530   1.801   5.374  0.0316 -0.1883  0.5084
   54MOL   N51438780   0.441   1.979   5.262  0.3342 -0.1832  0.6116
   54MOL   C51538781   0.387   1.912   5.148  0.3254 -0.6566 -0.1042
   54MOL   C51638782   0.445   1.967   5.016 -0.1524 -0.0352  0.0998
   54MOL   C51738783   0.593   1.989   5.023  0.1778  0.0869 -0.2462
   54MOL   C51838784   0.653   2.012   4.879  0.2817  0.3811 -0.0995
   54MOL   C51938785   0.616   2.143   4.799  0.8273 -0.1657 -0.4532
   54MOL   C52038786   0.708   2.174   4.680 -0.0205 -0.8510  0.0608
   54MOL   N52138787   0.641   2.285   4.605 -0.0156 -0.4648  0.0764
   54MOL   C52238788   0.529   2.164   5.459 -0.5543 -0.0312 -0.2406
   54MOL   C52338789   0.577   2.256   5.557 -0.0555  0.5875  0.0381
   54MOL   H52438790   0.747   2.029   5.743  2.0877 -0.0961  0.5284
   54MOL   H52538791   0.677   1.883   5.582 -0.0777 -0.5221  0.5562
   54MOL   H52638792   0.446   2.080   5.264  0.1027 -0.1456 -0.2920
   54MOL   H52738793   0.410   1.806   5.156 -1.1221 -0.8093  2.7296
   54MOL   H52838794   0.278   1.915   5.157  0.3763 -0.7300  0.5738
   54MOL   H52938795   0.390   2.058   4.990  0.2661  0.2833  0.3344
   54MOL   H53038796   0.428   1.894   4.937  2.7764 -0.5891 -0.0754
   54MOL   H53138797   0.620   2.074   5.087  1.0903 -0.7266  0.4680
   54MOL   H53238798   0.631   1.903   5.079  2.4022  2.1214  1.4861
   54MOL   H53338799   0.625   1.933   4.809  1.0286  0.5853 -0.6304
   54MOL   H53438800   0.762   2.016   4.884  0.4926 -3.2516 -0.6736
   54MOL   H53538801   0.629   2.218   4.877 -1.3984 -0.4206  0.1996
   54MOL   H53638802   0.512   2.141   4.767  1.0143 -0.3232 -1.0535
   54MOL   H53738803   0.807   2.208   4.711 -0.3671 -0.0143  0.2679
   54MOL   H53838804   0.718   2.088   4.614 -2.3267 -1.5897  0.6389
   54MOL   H53938805   0.576   2.252   4.535 -0.6448 -1.9304  1.3034
   54MOL   H54038806   0.463   2.198   5.381 -2.0884  0.0525  1.0606
   54MOL   H54138807   0.562   2.361   5.537  0.0712  0.7257  0.6626
   54MOL   C54238808   0.667   2.416   4.621 -0.2489 -0.0304  0.3661
   54MOL   O54338809   0.762   2.452   4.684  0.5069  0.1985 -0.6405
   54MOL   C54438810   0.570   2.504   4.548  0.1225  0.6875  0.2577
   54MOL   C54538811   0.622   2.623   4.481  0.0688 -0.8784 -0.0520
   54MOL   C54638812   0.534   2.711   4.420  0.1213  0.5001 -0.5086
   54MOL   C54738813   0.397   2.671   4.408 -0.4237  0.3975 -0.1622
   54MOL   C54838814   0.299   2.766   4.340  0.1832  0.1381 -0.8154
   54MOL   O54938815   0.197   2.731   4.284  0.1498 -0.2210  0.3856
   54MOL   N55038816   0.330   2.891   4.350 -0.1108  0.0142  0.0912
   54MOL   C55138817   0.255   3.001   4.293 -0.2969  1.0149  0.3267
   54MOL   C55238818   0.303   3.137   4.345  0.3224  0.0349 -0.1336
   54MOL   C55338819   0.432   3.180   4.281 -0.0960  0.4074  0.1897
   54MOL   C55438820   0.489   3.298   4.360 -1.2692 -0.8586 -0.2910
   54MOL   C55538821   0.491   3.421   4.265 -0.1941 -0.4075 -0.6836
   54MOL   C55638822   0.599   3.449   4.160 -0.5269 -0.4608  0.3038
   54MOL   N55738823   0.595   3.361   4.041 -0.6712  0.3331  0.3402
   54MOL   C55838824   0.347   2.554   4.469 -0.1909 -0.2438 -0.6748
   54MOL   C55938825   0.428   2.481   4.551  0.0570 -0.7652 -0.1647
   54MOL   H56038826   0.729   2.626   4.476  0.0252  0.3385 -0.5679
   54MOL   H56138827   0.562   2.807   4.380  1.4074 -0.0458 -0.9393
   54MOL   H56238828   0.415   2.903   4.403 -0.0511 -2.2901  0.6029
   54MOL   H56338829   0.265   2.989   4.186 -1.7234 -1.3908  0.4092
   54MOL   H56438830   0.150   2.981   4.315  0.2868 -2.0170  0.5854
   54MOL   H56538831   0.312   3.130   4.453 -3.1204  1.1360  0.2899
   54MOL   H56638832   0.226   3.211   4.326 -1.1636 -1.4302  0.0083
   54MOL   H56738833   0.506   3.101   4.266 -0.0267  0.4066  0.5426
   54MOL   H56838834   0.411   3.213   4.179 -0.0012  2.3732  0.7950
   54MOL   H56938835   0.584   3.279   4.411 -1.8720 -1.3281  0.6591
   54MOL   H57038836   0.418   3.315   4.441  1.2300  1.6066  1.5131
   54MOL   H57138837   0.509   3.505   4.333 -1.0217 -0.3186 -0.5705
   54MOL   H57238838   0.395   3.444   4.219 -0.7025 -0.5997  0.2692
   54MOL   H57338839   0.602   3.549   4.118  1.1845 -0.3053  0.7386
   54MOL   H57438840   0.701   3.440   4.199 -1.0534  0.7185  2.0014
   54MOL   H57538841   0.507   3.345   3.995 -1.4234 -0.2770  1.9570
   54MOL   H57638842   0.246   2.522   4.448  0.0569 -0.2589 -1.9068
   54MOL   H57738843   0.393   2.389   4.597  0.3430 -1.1409 -0.6893
   54MOL   C57838844   0.702   3.286   3.998 -0.1491 -0.4039  1.1325
   54MOL   O57938845   0.815   3.304   4.038  0.4527 -0.6131 -0.0202
   54MOL   C58038846   0.657   3.187   3.893 -0.3406 -1.0223  1.3089
   54MOL   C58138847   0.753   3.145   3.799 -0.0310  0.2434 -0.2530
   54MOL   C58238848   0.717   3.059   3.699  0.3000  1.3503  0.0034
   54MOL   C58338849   0.587   2.991   3.696 -0.5953 -0.0765  0.0794
   54MOL   C58438850   0.560   2.881   3.597 -0.3606  0.4083  0.0858
   54MOL   O58538851   0.653   2.817   3.554 -0.1426  0.4578  0.0418
   54MOL   N58638852   0.437   2.873   3.553 -0.0199 -0.0808  0.4071
   54MOL   C58738853   0.384   2.758   3.470  0.7195  0.5485  0.7534
   54MOL   C58838854   0.231   2.757   3.456  0.1924  0.3023  0.5969
   54MOL   C58938855   0.189   2.628   3.382  0.2617  0.1885 -0.6912
   54MOL   C59038856   0.042   2.624   3.360 -0.2928  0.6398 -0.1081
   54MOL   C59138857   7.882   2.488   3.297  0.2110 -0.3122 -0.4084
   54MOL   C59238858   7.728   2.473   3.282  0.9760  0.4199 -0.3988
   54MOL   N59338859   7.684   2.505   3.147 -0.0225 -0.3113 -0.3672
   54MOL   C59438860   0.498   3.023   3.799 -0.0938  0.0343 -0.0258
   54MOL   C59538861   0.528   3.131   3.883  0.7569 -0.1364 -0.4729
   54MOL   H59638862   0.854   3.183   3.799 -0.0802  0.3740  0.8823
   54MOL   H59738863   0.794   3.019   3.635 -2.1582  0.9044 -2.7733
   54MOL   H59838864   0.360   2.936   3.574 -1.4055 -1.0929 -1.5122
   54MOL   H59938865   0.438   2.739   3.378  0.3684  1.0574  0.4374
   54MOL   H60038866   0.424   2.664   3.507  2.8320  1.5074  0.9900
   54MOL   H60138867   0.192   2.839   3.396 -0.1439  1.2678  2.1087
   54MOL   H60238868   0.191   2.766   3.557 -1.0675  0.2091  0.1177
   54MOL   H60338869   0.238   2.619   3.285 -0.4794 -0.3870 -1.0161
   54MOL   H60438870   0.218   2.543   3.445 -2.5406  0.8253  1.5438
   54MOL   H60538871   0.008   2.702   3.292 -0.4811 -0.2050 -1.0149
   54MOL   H60638872   7.868   2.637   3.450  2.3057 -2.1552  2.1482
   54MOL   H60738873   0.044   2.408   3.354 -1.0365 -1.5667 -1.0884
   54MOL   H60838874   0.048   2.501   3.202 -0.5036 -0.6283 -0.8482
   54MOL   H60938875   7.700   2.370   3.305  0.3820  0.7339  0.3097
   54MOL   H61038876   7.674   2.532   3.356 -0.2900 -2.0016  0.6593
   54MOL   H61138877   7.644   2.597   3.136  0.8718  0.0723 -0.4490
   54MOL   H61238878   0.404   2.970   3.787  0.4665 -1.5092  2.0695
   54MOL   H61338879   0.457   3.165   3.957  1.2080  2.4217 -1.1434
   54MOL   C61438880   7.685   2.421   3.043 -0.4378 -0.2822  0.4318
   54MOL   O61538881   7.729   2.310   3.057  0.0873 -0.0831 -0.0802
   54MOL   C61638882   7.616   2.469   2.916  0.1101 -0.7475 -0.0759
   54MOL   C61738883   7.529   2.583   2.913 -0.3016  0.2350 -0.2722
   54MOL   C61838884   7.461   2.609   2.794  0.2657 -0.1545  0.1126
   54MOL   C61938885   7.486   2.537   2.681 -0.5141  0.3390  0.4806
   54MOL   C62038886   7.412   2.561   2.555  1.0811 -0.1555 -0.1152
   54MOL   O62138887   7.387   2.672   2.523  0.5907 -0.4167 -0.0370
   54MOL   N62238888   7.361   2.453   2.492 -0.2003  0.1230 -0.0517
   54MOL   C62338889   7.296   2.450   2.370  0.2453  0.5261  0.3143
   54MOL   C62438890   7.214   2.319   2.342 -0.7027  0.0315  0.1423
   54MOL   C62538891   7.160   2.305   2.196 -0.0585  0.7813 -0.0472
   54MOL   C62638892   7.101   2.160   2.160 -0.3673 -0.3682 -0.2464
   54MOL   C62738893   7.208   2.056   2.142 -0.4623  0.2788  0.6355
   54MOL   C62838894   7.141   1.928   2.081 -0.6642 -0.7871  0.3414
   54MOL   N62938895   7.223   1.810   2.082 -0.2959 -0.2751  0.6073
   54MOL   C63038896   7.578   2.433   2.683  0.3667 -0.0436  0.7805
   54MOL   C63138897   7.637   2.393   2.799 -0.2198 -0.8174 -0.5128
   54MOL   H63238898   7.512   2.640   3.003  0.7117 -0.1978  0.2049
   54MOL   H63338899   7.383   2.684   2.796  2.3310  2.1401 -1.6533
   54MOL   H63438900   7.393   2.362   2.522  1.3392  0.9040  0.7576
   54MOL   H63538901   7.226   2.533   2.379  0.1850  0.3615  1.4424
   54MOL   H63638902   7.366   2.475   2.290 -2.0617  0.7166 -1.7074
   54MOL   H63738903   7.134   2.315   2.416  0.8016  0.7685  1.8461
   54MOL   H63838904   7.280   2.235   2.366  0.0827  0.8711  0.9715
   54MOL   H63938905   7.080   2.377   2.180 -1.0923 -0.0424  1.2693
   54MOL   H64038906   7.237   2.339   2.127  0.1134 -0.8939 -0.7022
   54MOL   H64138907   7.042   2.178   2.070 -0.3473  0.0707 -0.1729
   54MOL   H64238908   7.032   2.125   2.236 -1.0039  0.9177 -0.2183
   54MOL   H64338909   7.256   2.033   2.237  1.0006 -0.4913 -0.2658
   54MOL   H64438910   7.288   2.083   2.072  2.4771 -0.0729  3.7075
   54MOL   H64538911   7.044   1.916   2.128 -1.0300 -0.4363 -0.3277
   54MOL   H64638912   7.121   1.942   1.975  1.0813 -3.3138 -0.3542
   54MOL   H64738913   7.321   1.831   2.069 -0.6873  1.8459  0.8465
   54MOL   H64838914   7.597   2.370   2.597  0.4267  1.7707 -0.5865
   54MOL   H64938915   7.701   2.306   2.801  0.7431 -0.1249 -1.3789
   54MOL   C65038916   7.181   1.686   2.096  0.6009 -0.3636  0.5808
   54MOL   O65138917   7.060   1.658   2.114 -0.4254 -0.0337  0.0244
   54MOL   C65238918   7.297   1.589   2.108  0.4243  0.3694 -0.7821
   54MOL   C65338919   7.278   1.452   2.084 -0.7483 -0.3807  0.4552
   54MOL   C65438920   7.372   1.359   2.118  0.5409 -1.1373 -0.5566
   54MOL   C65538921   7.484   1.394   2.194 -0.4376 -0.1699  0.1322
   54MOL   C65638922   7.584   1.289   2.236  0.3325  0.5221  0.6203
   54MOL   O65738923   7.706   1.309   2.236  0.3867 -0.0466 -0.1136
   54MOL   N65838924   7.532   1.172   2.278  0.7905 -0.0121 -0.4512
   54MOL   C65938925   7.610   1.062   2.326 -0.0006 -0.2252 -0.0155
   54MOL   C66038926   7.527   0.946   2.391  0.2756 -0.0159  0.3901
   54MOL   C66138927   7.610   0.820   2.430  0.6122 -0.1685 -0.5232
   54MOL   C66238928   7.514   0.703   2.447  0.1738  0.1616  0.3198
   54MOL   C66338929   7.569   0.564   2.429 -0.7774 -0.1823 -0.4721
   54MOL   C66438930   7.466   0.446   2.428 -0.3669  0.6753  0.0816
   54MOL   N66538931   7.369   0.460   2.325  0.2168 -0.2491  0.0465
   54MOL   C66638932   7.504   1.535   2.225 -0.0992  0.5723 -0.6933
   54MOL   C66738933   7.414   1.633   2.171  0.0832 -0.6594 -0.8944
   54MOL   H66838934   7.181   1.424   2.045  0.2867  2.2591 -4.4152
   54MOL   H66938935   7.360   1.254   2.097 -0.8618 -1.2705  0.8458
   54MOL   H67038936   7.433   1.158   2.266  0.8633  1.0952 -2.4936
   54MOL   H67138937   7.674   1.020   2.249 -0.1010  1.2573 -0.9122
   54MOL   H67238938   7.676   1.104   2.402  1.9001  1.6628 -2.6205
   54MOL   H67338939   7.451   0.925   2.315 -0.0702 -0.9242  0.9806
   54MOL   H67438940   7.470   0.988   2.473  0.7538  0.2710  0.5775
   54MOL   H67538941   7.685   0.793   2.355  1.7986 -1.1561  0.9736
   54MOL   H67638942   7.671   0.844   2.517 -0.1675  0.1244 -0.0546
   54MOL   H67738943   7.433   0.704   2.373  1.9088  0.4513 -1.6156
   54MOL   H67838944   7.465   0.721   2.543  0.1195  1.1725  0.1068
   54MOL   H67938945   7.652   0.534   2.493 -0.9125  1.9711  0.7480
   54MOL   H68038946   7.621   0.555   2.333 -0.0874 -1.5846  0.0176
   54MOL   H68138947   7.512   0.350   2.406  0.9196  0.6764  2.5806
   54MOL   H68238948   7.425   0.433   2.529  1.0706  1.6308  0.8074
   54MOL   H68338949   7.300   0.534   2.324 -0.1818 -0.6238 -1.8834
   54MOL   H68438950   7.592   1.573   2.275 -0.0555 -0.9324  0.4138
   54MOL   H68538951   7.432   1.737   2.194 -3.3634 -0.1602 -0.0903
   54MOL   C68638952   7.378   0.407   2.202 -0.5143 -0.3915  0.3305
   54MOL   O68738953   7.472   0.333   2.165 -0.5475 -0.3332 -1.1087
   54MOL   C68838954   7.274   0.462   2.102 -0.2621 -0.2556 -0.5194
   54MOL   C68938955   7.162   0.537   2.138  0.5631  0.5232  0.0854
   54MOL   C69038956   7.077   0.590   2.039 -0.0636 -0.1073 -0.3248
   54MOL   C69138957   7.102   0.582   1.905 -0.1377  0.4086 -0.7881
   54MOL   C69238958   7.014   0.647   1.810  0.1741 -0.9489 -0.3899
   54MOL   O69338959   6.896   0.619   1.805 -0.7628  0.1040 -0.3356
   54MOL   N69438960   7.056   0.747   1.734 -0.1200 -0.2443  0.2709
   54MOL   C69538961   6.969   0.833   1.652 -0.1457 -0.2181 -0.0270
   54MOL   C69638962   6.895   0.944   1.731 -0.5231  0.1799 -0.0180
   54MOL   C69738963   6.818   1.032   1.632 -0.1211 -0.0868 -0.0172
   54MOL   C69838964   6.710   1.116   1.695  0.1456 -0.0791  1.0010
   54MOL   C69938965   6.618   1.204   1.602 -0.4135 -0.2342 -0.6036
   54MOL   C70038966   6.505   1.278   1.666  0.3152  0.0862 -0.4191
   54MOL   N70138967   6.556   1.379   1.759  0.1235 -0.1900  0.1552
   54MOL   C70238968   7.213   0.506   1.868 -0.3923 -0.3218  0.0227
   54MOL   C70338969   7.306   0.450   1.967  0.3415 -0.2718 -0.3256
   54MOL   H70438970   7.140   0.556   2.241  0.7245 -3.5003  0.9394
   54MOL   H70538971   6.990   0.647   2.069 -0.2618  0.7277 -2.4335
   54MOL   H70638972   7.153   0.775   1.738 -0.0623 -0.4763  0.5434
   54MOL   H70738973   7.034   0.875   1.575 -0.3613 -0.2895 -0.2490
   54MOL   H70838974   6.902   0.769   1.594 -0.6599  1.8786 -1.8339
   54MOL   H70938975   6.972   1.009   1.774  1.3102 -1.7974 -0.2106
   54MOL   H71038976   6.835   0.900   1.810  0.9180 -3.3299 -0.8079
   54MOL   H71138977   6.884   1.100   1.578  1.0219 -2.6498 -2.0071
   54MOL   H71238978   6.764   0.965   1.565  0.2151  1.8499 -2.2477
   54MOL   H71338979   6.758   1.186   1.764  0.3406 -1.1536  1.9803
   54MOL   H71438980   6.645   1.066   1.766  1.3599 -1.5249  1.1103
   54MOL   H71538981   6.578   1.128   1.535  0.3880  0.1046 -1.4785
   54MOL   H71638982   6.676   1.269   1.537  2.4361 -0.9063  1.2039
   54MOL   H71738983   6.434   1.334   1.605 -0.5634 -2.5069 -1.8356
   54MOL   H71838984   6.454   1.207   1.731  0.6030  0.5288  0.2933
   54MOL   H71938985   6.631   1.424   1.708  0.3729 -0.1177  0.5854
   54MOL   H72038986   7.246   0.501   1.765 -2.4883  0.5295 -0.7192
   54MOL   H72138987   7.399   0.403   1.937  0.3954 -0.4332  0.0949
   54MOL   H72238988   6.597   1.334   1.840 -0.2266  0.7537  0.8574
   55MOL     C138989   5.749   7.109   0.140 -0.6168  0.0172  0.2854
   55MOL     O238990   5.634   7.069   0.165  0.6152  0.3444  0.4044
   55MOL     C338991   5.820   7.065   0.015  0.2875 -0.2474 -0.3970
   55MOL     C438992   5.741   7.024   7.792  0.1543 -0.3053 -0.4897
   55MOL     C538993   5.805   6.953   7.688 -0.4423 -0.1810  0.6362
   55MOL     C638994   5.945   6.915   7.699 -0.0907  0.5880 -0.3109
   55MOL     C738995   6.021   6.835   7.602  0.2815 -0.2346  0.3241
   55MOL     O838996   6.139   6.859   7.580 -0.9550 -0.3578  0.3123
   55MOL     N938997   5.954   6.732   7.546  0.0903  0.2967  0.2784
   55MOL    C1038998   6.019   6.629   7.464 -0.0428 -0.2978 -0.0287
   55MOL    C1138999   6.130   6.538   7.526  0.1652  0.4693 -0.0353
   55MOL    C1239000   6.157   6.416   7.428 -0.3082  1.6925  0.0319
   55MOL    C1339001   6.242   6.303   7.505  0.2205 -0.1444 -0.0572
   55MOL    C1439002   6.385   6.353   7.539  0.2142 -0.2879 -0.6254
   55MOL    C1539003   6.401   6.398   7.687 -0.2816 -0.0805  0.4459
   55MOL    N1639004   6.524   6.475   7.700 -0.3878 -0.3030 -0.6831
   55MOL    C1739005   6.018   6.958   7.811  1.0577 -0.5100 -0.8801
   55MOL    C1839006   5.954   7.037   0.021  0.3509 -0.0722  0.3009
   55MOL    H1939007   5.633   7.032   7.788  0.1738 -0.5024 -1.5769
   55MOL    H2039008   5.745   6.921   7.604  0.2383 -0.7805  0.3779
   55MOL    H2139009   5.855   6.723   7.566  0.4232 -1.3324  1.3411
   55MOL    H2239010   5.941   6.560   7.431 -0.1215  0.3067 -1.1581
   55MOL    H2339011   6.047   6.670   7.367  0.1391  1.8104  0.8790
   55MOL    H2439012   6.085   6.500   7.618 -0.9658  0.8977 -0.4026
   55MOL    H2539013   6.221   6.591   7.552  1.9060 -1.3207 -2.2677
   55MOL    H2639014   6.060   6.373   7.404  0.9254 -1.3450  0.2540
   55MOL    H2739015   6.200   6.453   7.335 -0.8962 -1.1678 -1.4299
   55MOL    H2839016   6.253   6.216   7.441  0.7339 -0.6785  0.7535
   55MOL    H2939017   6.188   6.281   7.597  1.5614  1.6098  1.1849
   55MOL    H3039018   6.412   6.434   7.471 -0.7173  0.5380 -0.0189
   55MOL    H3139019   6.469   6.288   7.513  0.0159 -0.6835 -0.2738
   55MOL    H3239020   6.316   6.461   7.711  0.6599  0.3428  2.7335
   55MOL    H3339021   6.398   6.316   7.760  0.7912 -0.2953  0.2545
   55MOL    H3439022   6.558   6.512   7.612 -0.8933  1.1168 -0.2838
   55MOL    H3539023   6.122   6.934   7.826  0.6402 -1.0892  1.2258
   55MOL    H3639024   6.010   7.052   0.112 -0.0149 -0.7690  0.6530
   55MOL    H3739025   5.796   7.172   0.215  3.3645 -0.0003 -2.0793
   55MOL    C3839026   6.600   6.480   7.805 -0.7159 -0.8275 -0.0407
   55MOL    O3939027   6.570   6.428   0.024  0.1295 -0.9418 -0.0907
   55MOL    C4039028   6.735   6.546   7.785  0.6398  0.0107  0.6061
   55MOL    C4139029   6.755   6.645   7.682  0.4277 -0.2937 -0.0527
   55MOL    C4239030   6.889   6.694   7.668  0.0731 -0.1189  0.1795
   55MOL    C4339031   6.998   6.642   7.746 -0.7751 -0.2184  1.4065
   55MOL    C4439032   7.138   6.693   7.731 -0.0644 -0.4831 -0.1054
   55MOL    O4539033   7.158   6.814   7.715 -0.2673  0.5684  0.5881
   55MOL    N4639034   7.238   6.608   7.750  0.1278  0.3725 -0.0566
   55MOL    C4739035   7.382   6.649   7.742  0.4852 -0.1006  0.8381
   55MOL    C4839036   7.440   6.657   7.881  0.0530 -0.3411  0.3455
   55MOL    C4939037   7.436   6.520   0.075 -0.4964 -0.3198  0.4824
   55MOL    C5039038   7.507   6.537   0.216  0.2422  0.0215  0.2898
   55MOL    C5139039   7.492   6.409   0.288  0.6236  1.2145 -0.6841
   55MOL    C5239040   7.533   6.418   0.433  0.5471  0.1275 -0.6292
   55MOL    N5339041   7.530   6.287   0.491  0.4761 -0.6441  0.0673
   55MOL    C5439042   6.964   6.556   7.854 -0.1634 -0.5577 -0.8935
   55MOL    C5539043   6.834   6.514   7.878 -0.8666  0.0988  0.4433
   55MOL    H5639044   6.673   6.688   7.627  0.6581  1.1827  0.7357
   55MOL    H5739045   6.898   6.755   7.579  0.6113 -1.6622 -0.8591
   55MOL    H5839046   7.214   6.515   7.783 -0.3235  0.0497 -1.2564
   55MOL    H5939047   7.444   6.574   7.693 -1.1019 -0.1795 -1.0867
   55MOL    H6039048   7.404   6.741   7.687 -0.9187  0.3380  0.9967
   55MOL    H6139049   7.396   6.744   0.042  0.0331  0.2092 -0.6730
   55MOL    H6239050   7.546   6.682   7.870  0.1447 -1.2313 -0.9324
   55MOL    H6339051   7.335   6.480   0.074 -0.2398 -0.9754  0.8126
   55MOL    H6439052   7.509   6.460   0.020 -0.7238 -2.6967  2.7002
   55MOL    H6539053   7.465   6.618   0.276  3.3882  2.0269 -0.1331
   55MOL    H6639054   7.610   6.566   0.198 -0.9031  3.6785 -0.8605
   55MOL    H6739055   7.556   6.344   0.229  1.2394  1.1414  0.0528
   55MOL    H6839056   7.390   6.369   0.279  0.5780  1.1716  0.0256
   55MOL    H6939057   7.630   6.466   0.445  0.1938  1.0886 -1.4978
   55MOL    H7039058   7.457   6.471   0.490 -0.1242 -1.1438 -0.3189
   55MOL    H7139059   7.440   6.249   0.513  0.3663 -0.3966  0.0520
   55MOL    H7239060   7.029   6.509   0.041 -4.7205 -2.1762  2.3491
   55MOL    H7339061   6.826   6.443   0.074  0.4033  0.5168  0.9399
   55MOL    C7439062   7.635   6.206   0.489  0.0890 -0.0772 -0.4759
   55MOL    O7539063   7.744   6.244   0.444 -0.0077 -0.2265  0.2403
   55MOL    C7639064   7.615   6.061   0.526 -0.7461 -0.1753  0.5191
   55MOL    C7739065   7.730   5.977   0.529  0.1344 -0.3065 -0.1413
   55MOL    C7839066   7.720   5.843   0.580  0.7213  0.8932 -0.5864
   55MOL    C7939067   7.599   5.789   0.620  0.2301  0.0116  0.0586
   55MOL    C8039068   7.585   5.650   0.672 -0.2495 -0.9053  0.0122
   55MOL    O8139069   7.530   5.615   0.777 -0.3545  0.3485  0.0986
   55MOL    N8239070   7.642   5.566   0.590  0.3843  0.2999 -0.2634
   55MOL    C8339071   7.664   5.423   0.625 -0.8211 -0.3691  0.2376
   55MOL    C8439072   7.768   5.357   0.525  0.1246  0.3763 -0.0509
   55MOL    C8539073   7.791   5.212   0.553 -0.1029 -0.5506 -0.5464
   55MOL    C8639074   7.850   5.164   0.692  0.2293  0.0244 -0.6229
   55MOL    C8739075   7.871   5.011   0.696 -0.2567  0.0797 -0.2888
   55MOL    C8839076   0.043   4.956   0.828  0.7158  0.0229  1.1131
   55MOL    N8939077   7.837   5.002   0.941  0.2907 -0.1360 -0.1217
   55MOL    C9039078   7.483   5.872   0.623 -0.2075 -0.2082 -0.3439
   55MOL    C9139079   7.493   6.006   0.572 -0.3645 -0.4945 -0.2582
   55MOL    H9239080   7.830   6.004   0.499  0.0087 -1.7277 -1.8787
   55MOL    H9339081   7.811   5.785   0.584 -0.8908 -1.7765 -1.4598
   55MOL    H9439082   7.685   5.604   0.508  0.2475  0.2856 -0.3427
   55MOL    H9539083   7.702   5.411   0.726  2.1226 -0.6437 -0.8409
   55MOL    H9639084   7.574   5.362   0.621 -1.8585  1.1714 -0.6629
   55MOL    H9739085   7.865   5.403   0.508  0.2831  0.1178  0.1569
   55MOL    H9839086   7.715   5.380   0.432 -0.2375 -1.9547 -0.4597
   55MOL    H9939087   7.689   5.174   0.549 -1.2915  2.4182  0.2030
   55MOL   H10039088   7.851   5.162   0.477  1.2733 -2.0797  1.5026
   55MOL   H10139089   7.784   5.197   0.772  0.2473  1.6695 -1.2520
   55MOL   H10239090   0.057   5.221   0.704 -0.9565  1.7967  0.3811
   55MOL   H10339091   0.054   4.988   0.615 -0.0154  0.1909 -0.1156
   55MOL   H10439092   7.778   4.958   0.677  0.2539 -1.5235  1.5084
   55MOL   H10539093   0.063   4.849   0.834  0.5635 -0.0067  1.1169
   55MOL   H10639094   0.140   5.005   0.833  0.3518  0.6847  1.8374
   55MOL   H10739095   7.814   5.100   0.935  2.0554  0.2787 -0.5119
   55MOL   H10839096   7.393   5.837   0.669 -0.0264  0.8740  0.8424
   55MOL   H10939097   7.406   6.070   0.574  0.3893  0.5964 -1.3922
   55MOL   C11039098   7.769   4.917   1.022  0.1009 -0.4688 -0.1706
   55MOL   O11139099   7.777   4.796   1.015 -0.1818  0.3282 -0.3291
   55MOL   C11239100   7.672   4.983   1.113 -0.5588  0.1826 -0.4652
   55MOL   C11339101   7.596   4.904   1.201 -0.6106  0.7940  1.1036
   55MOL   C11439102   7.496   4.957   1.285  0.4960  0.0089 -0.2911
   55MOL   C11539103   7.474   5.094   1.280  0.3612 -0.5030 -0.3569
   55MOL   C11639104   7.358   5.153   1.364 -0.8300  0.5492  0.2216
   55MOL   O11739105   7.264   5.087   1.403  0.5036 -0.2574 -0.1847
   55MOL   N11839106   7.377   5.281   1.401 -0.2353  0.0330  0.1681
   55MOL   C11939107   7.269   5.355   1.466 -0.4148 -0.1541  0.2861
   55MOL   C12039108   7.253   5.501   1.416  0.3286 -0.3273  1.1176
   55MOL   C12139109   7.138   5.574   1.488 -0.7678 -0.3092  0.0474
   55MOL   C12239110   7.136   5.725   1.462  0.1516  0.1578  0.2510
   55MOL   C12339111   7.011   5.795   1.506 -0.4508  0.1571 -0.7479
   55MOL   C12439112   7.030   5.937   1.534  0.4784 -0.2009 -0.2441
   55MOL   N12539113   6.904   6.013   1.551 -0.9156 -0.1333  0.6034
   55MOL   C12639114   7.555   5.181   1.200  0.3943  0.5176  1.0155
   55MOL   C12739115   7.650   5.126   1.114 -0.4008  0.0078 -0.0429
   55MOL   H12839116   7.605   4.796   1.205 -2.2727  0.4503 -2.6325
   55MOL   H12939117   7.432   4.900   1.350 -0.1838  0.5599 -0.4651
   55MOL   H13039118   7.464   5.328   1.380  0.3244 -0.4269  1.3444
   55MOL   H13139119   7.169   5.312   1.469  0.0819 -1.5421 -1.8353
   55MOL   H13239120   7.297   5.358   1.571 -0.4439  1.9394  0.2544
   55MOL   H13339121   7.223   5.500   1.311 -0.5810  0.7448  1.3585
   55MOL   H13439122   7.349   5.553   1.426  0.3448 -0.2864  0.7833
   55MOL   H13539123   7.040   5.529   1.472  0.3465 -3.1389  0.9033
   55MOL   H13639124   7.163   5.568   1.594 -0.0914 -0.5014 -0.1189
   55MOL   H13739125   7.136   5.744   1.355 -2.3518 -0.5354  0.0994
   55MOL   H13839126   7.234   5.767   1.488  0.8055  0.0660 -1.9218
   55MOL   H13939127   6.980   5.743   1.597  2.1000 -0.4566 -0.1700
   55MOL   H14039128   6.934   5.785   1.430 -0.6534 -0.5233 -0.4617
   55MOL   H14139129   7.103   5.957   1.613 -0.2040  0.9177  0.1166
   55MOL   H14239130   7.074   5.982   1.445  1.2878 -0.5195 -0.0052
   55MOL   H14339131   6.866   6.068   1.475 -3.5507  1.8210  3.2635
   55MOL   H14439132   7.531   5.286   1.189  0.5314  0.4254 -0.2117
   55MOL   H14539133   7.704   5.193   1.050 -1.2425  0.0557 -0.7104
   55MOL   C14639134   6.828   6.005   1.659 -0.0020 -0.5005 -0.5929
   55MOL   O14739135   6.838   5.922   1.746  0.7392  0.1147 -0.0292
   55MOL   C14839136   6.708   6.095   1.658  0.3675 -0.1145 -0.0154
   55MOL   C14939137   6.706   6.208   1.575  0.5978  0.6925  0.0443
   55MOL   C15039138   6.588   6.280   1.557 -0.1495  0.2519  0.5677
   55MOL   C15139139   6.474   6.248   1.630 -0.5320 -0.0004  0.4097
   55MOL   C15239140   6.352   6.334   1.612 -1.5093  0.1486 -0.1369
   55MOL   O15339141   6.331   6.385   1.500  0.1389 -0.0626 -0.2318
   55MOL   N15439142   6.277   6.345   1.723 -0.1715  0.4398  0.1333
   55MOL   C15539143   6.149   6.400   1.726  0.4445  0.7514  0.1469
   55MOL   C15639144   6.122   6.488   1.841 -0.2313  0.4063 -0.1646
   55MOL   C15739145   5.985   6.553   1.855 -1.1934  0.3093 -0.1261
   55MOL   C15839146   5.974   6.661   1.960 -0.0356 -0.0704 -0.1094
   55MOL   C15939147   6.004   6.621   2.108 -0.2869 -0.2482 -0.0270
   55MOL   C16039148   5.913   6.519   2.170 -0.5854  0.1912  0.3362
   55MOL   N16139149   5.921   6.380   2.133 -0.6072 -0.3051  0.3448
   55MOL   C16239150   6.474   6.136   1.719 -0.2357 -0.5441  0.0131
   55MOL   C16339151   6.590   6.054   1.728 -0.3222 -0.3437 -0.3462
   55MOL   H16439152   6.788   6.242   1.514  0.9668  1.7409  1.1038
   55MOL   H16539153   6.589   6.360   1.484  0.2430  1.6741  2.1077
   55MOL   H16639154   6.328   6.322   1.807  1.2938 -0.6505 -1.0146
   55MOL   H16739155   6.127   6.452   1.633  0.5033 -1.3220 -1.0656
   55MOL   H16839156   6.077   6.318   1.727  2.3042 -0.9764 -1.6489
   55MOL   H16939157   6.198   6.565   1.856 -1.0166  1.6168 -2.2143
   55MOL   H17039158   6.144   6.427   1.928  0.8496  0.2621 -0.5207
   55MOL   H17139159   5.960   6.592   1.756 -3.0948  1.1988  0.6773
   55MOL   H17239160   5.911   6.475   1.873 -1.4582 -0.0936 -2.7011
   55MOL   H17339161   5.874   6.703   1.957  0.0595  0.0624 -1.3168
   55MOL   H17439162   6.039   6.742   1.928 -0.2393  0.6308  1.1832
   55MOL   H17539163   6.000   6.717   2.160 -1.0462 -0.6449  0.6502
   55MOL   H17639164   6.110   6.597   2.101 -0.1024  0.8515 -1.2737
   55MOL   H17739165   5.927   6.526   2.277  0.4064 -0.1317  0.2334
   55MOL   H17839166   5.811   6.550   2.147 -0.3767  1.3126  0.9243
   55MOL   H17939167   5.854   6.344   2.066  1.4871 -1.8041 -1.0293
   55MOL   H18039168   6.382   6.119   1.773 -2.0197  4.4684 -1.1494
   55MOL   H18139169   6.599   5.972   1.798 -0.6279  0.1485  0.2708
   55MOL   C18239170   6.003   6.291   2.189  0.6016 -0.2181  0.1564
   55MOL   O18339171   6.090   6.334   2.266 -0.0038  0.3800  0.1238
   55MOL   C18439172   5.986   6.151   2.144 -0.2403  0.2880  0.0004
   55MOL   C18539173   6.049   6.044   2.210 -0.1728 -1.0626 -0.1002
   55MOL   C18639174   6.044   5.913   2.154  0.4679  0.5317 -0.1035
   55MOL   C18739175   5.990   5.897   2.023  0.2317 -0.9250 -0.2009
   55MOL   C18839176   5.995   5.757   1.967  1.0116 -0.1768  0.5564
   55MOL   O18939177   6.040   5.657   2.032  0.9598  0.1743  0.0165
   55MOL   N19039178   5.944   5.732   1.844  1.1148  0.1758  0.1964
   55MOL   C19139179   5.930   5.607   1.772 -0.4836  0.2613  0.6826
   55MOL   C19239180   6.057   5.605   1.687  0.6247  0.6012 -0.1288
   55MOL   C19339181   6.079   5.473   1.609  0.0796  0.3908  0.4472
   55MOL   C19439182   6.215   5.467   1.543 -0.5625  0.8145 -0.6296
   55MOL   C19539183   6.262   5.326   1.499  0.4719  0.0467 -0.5788
   55MOL   C19639184   6.182   5.283   1.382  0.0420 -0.0170 -0.2817
   55MOL   N19739185   6.244   5.161   1.328  0.0358  0.6695  0.1530
   55MOL   C19839186   5.929   6.006   1.953  0.7298 -0.8618 -0.5808
   55MOL   C19939187   5.932   6.130   2.016 -0.4789  0.0175 -0.7529
   55MOL   H20039188   6.106   6.065   2.299  0.5517 -0.1677 -0.7658
   55MOL   H20139189   6.087   5.826   2.203 -0.1200 -1.4147 -2.9378
   55MOL   H20239190   5.919   5.806   1.780 -0.2954 -0.3773  0.0853
   55MOL   H20339191   5.924   5.522   1.841  1.7666  0.5926  1.3064
   55MOL   H20439192   5.837   5.615   1.716  0.5569 -1.5190 -1.3568
   55MOL   H20539193   6.149   5.626   1.742  1.0981 -1.7158 -0.0209
   55MOL   H20639194   6.053   5.693   1.622  0.3880 -0.9025 -2.1915
   55MOL   H20739195   6.070   5.400   1.690 -1.6173 -1.6505 -1.5221
   55MOL   H20839196   6.003   5.460   1.532  0.2367  0.6489  0.2484
   55MOL   H20939197   6.291   5.496   1.615 -2.0052  0.2268  1.1608
   55MOL   H21039198   6.226   5.536   1.459 -1.7328  0.3369 -1.1829
   55MOL   H21139199   6.258   5.256   1.582 -0.4037  1.4103  0.5613
   55MOL   H21239200   6.369   5.332   1.480  0.2631  1.8077 -1.2942
   55MOL   H21339201   6.087   5.262   1.430  0.8029 -2.3407  0.2819
   55MOL   H21439202   6.182   5.369   1.315  0.6021  0.7427  0.6842
   55MOL   H21539203   6.327   5.173   1.271 -0.0621 -0.1039 -0.1661
   55MOL   H21639204   5.889   5.984   1.855 -1.2404  2.1492 -0.4988
   55MOL   H21739205   5.896   6.206   1.948 -0.8292 -1.2129 -1.9590
   55MOL   C21839206   6.219   5.035   1.359  0.2239 -0.4511 -0.1047
   55MOL   O21939207   6.116   4.998   1.416  0.0190 -0.0415  0.4662
   55MOL   C22039208   6.328   4.939   1.334 -0.4167 -0.4127  0.3115
   55MOL   C22139209   6.329   4.826   1.416  0.3226 -1.1320  0.2532
   55MOL   C22239210   6.417   4.723   1.389 -0.1047 -0.5323  0.3920
   55MOL   C22339211   6.510   4.728   1.284  0.2416  0.4625  0.3408
   55MOL   C22439212   6.600   4.608   1.255  0.4035  0.7720 -0.2152
   55MOL   O22539213   6.558   4.516   1.179  0.3489 -0.9271  0.3851
   55MOL   N22639214   6.724   4.607   1.308  0.1062  0.2015  0.0347
   55MOL   C22739215   6.823   4.501   1.281 -0.5645  0.7302 -0.1992
   55MOL   C22839216   6.870   4.510   1.141 -0.8776 -0.0314 -0.6553
   55MOL   C22939217   6.959   4.389   1.106 -0.2819 -0.2799 -0.3941
   55MOL   C23039218   6.896   4.266   1.041  1.0665 -0.3665 -0.3311
   55MOL   C23139219   6.986   4.145   1.053 -0.0625  0.9537  0.6960
   55MOL   C23239220   6.919   4.018   0.998  0.2804  0.4447 -0.0503
   55MOL   N23339221   7.002   3.916   1.036 -0.4055  0.5584  0.2118
   55MOL   C23439222   6.513   4.842   1.197  0.1297 -0.1558  0.0343
   55MOL   C23539223   6.421   4.946   1.224 -0.3961 -0.0553  0.4431
   55MOL   H23639224   6.263   4.807   1.499 -0.3090 -0.7792 -0.1605
   55MOL   H23739225   6.426   4.638   1.454 -0.2453 -0.2388  0.7962
   55MOL   H23839226   6.762   4.682   1.365  2.7400 -0.3377 -0.9346
   55MOL   H23939227   6.905   4.504   1.352  0.0264  1.0280 -0.8899
   55MOL   H24039228   6.775   4.404   1.296  1.7792 -0.2614  1.2182
   55MOL   H24139229   6.922   4.605   1.135  0.3156 -0.7472 -2.0524
   55MOL   H24239230   6.784   4.514   1.075 -1.7864 -2.1529  0.3407
   55MOL   H24339231   7.030   4.425   1.031 -1.4387  2.0901 -0.3879
   55MOL   H24439232   7.014   4.355   1.194 -0.0546  1.5936  0.2135
   55MOL   H24539233   6.862   4.296   0.942 -0.0008 -0.8072 -0.1122
   55MOL   H24639234   6.798   4.244   1.085  1.0740 -1.0775 -0.6623
   55MOL   H24739235   7.021   4.114   1.151  0.2901  0.2025  0.3352
   55MOL   H24839236   7.065   4.167   0.980 -1.6520  0.6468 -1.1732
   55MOL   H24939237   6.818   4.001   1.033  0.5215 -0.6902  0.1130
   55MOL   H25039238   6.914   4.012   0.889 -0.3818 -0.8080  0.0451
   55MOL   H25139239   7.078   3.891   0.974  0.1832  1.8309  0.3899
   55MOL   H25239240   6.580   4.855   1.114  0.5198 -0.0165  0.3689
   55MOL   H25339241   6.413   5.030   1.156 -0.4821  0.3075  0.8956
   55MOL   C25439242   6.991   3.836   1.143  0.4781  0.3168  0.0790
   55MOL   O25539243   6.900   3.837   1.228 -0.0965 -0.5586  0.3822
   55MOL   C25639244   7.100   3.734   1.149 -0.8101 -0.7035  0.0304
   55MOL   C25739245   7.086   3.618   1.235 -0.6325 -0.0949  0.2770
   55MOL   C25839246   7.195   3.523   1.234  0.4151  0.0492  0.2336
   55MOL   C25939247   7.314   3.549   1.172  0.5706  0.8056 -0.6279
   55MOL   C26039248   7.426   3.451   1.199  0.2291 -0.0257 -0.2417
   55MOL   O26139249   7.415   3.355   1.278  0.1792 -0.1260  0.5036
   55MOL   N26239250   7.544   3.493   1.152  0.5039  0.1097  0.2514
   55MOL   C26339251   7.666   3.419   1.140 -0.4208  0.3350  0.2369
   55MOL   C26439252   7.662   3.326   1.018  0.0496 -0.2658  0.1762
   55MOL   C26539253   7.638   3.398   0.879 -0.2044 -0.7784  0.2052
   55MOL   C26639254   7.761   3.477   0.829  0.2351 -0.0234  0.5941
   55MOL   C26739255   7.749   3.630   0.864  0.2825 -0.8014 -0.3017
   55MOL   C26839256   7.721   3.723   0.743 -0.0770  0.5153  0.6012
   55MOL   N26939257   7.833   3.724   0.650 -0.0061  0.2409  0.4951
   55MOL   C27039258   7.329   3.658   1.086 -0.8989  0.4571 -0.2043
   55MOL   C27139259   7.226   3.752   1.076 -0.1302  0.0937  0.4675
   55MOL   H27239260   6.996   3.611   1.295 -1.3049 -0.0974 -0.7174
   55MOL   H27339261   7.190   3.445   1.309  1.0284  1.1903  1.4868
   55MOL   H27439262   7.548   3.586   1.112  0.0553  0.3509  0.7618
   55MOL   H27539263   7.755   3.482   1.137  0.6279 -1.1684 -1.6780
   55MOL   H27639264   7.673   3.356   1.228 -1.1603 -1.4349 -0.9359
   55MOL   H27739265   7.599   3.238   1.029  0.0976 -0.4041 -0.6155
   55MOL   H27839266   7.755   3.272   1.001  0.7538  0.3838  1.8962
   55MOL   H27939267   7.598   3.324   0.809 -0.0830 -0.7220  0.0766
   55MOL   H28039268   7.551   3.464   0.892  1.4728  1.4813  0.2739
   55MOL   H28139269   7.741   3.465   0.722 -0.7518 -0.3521  0.8082
   55MOL   H28239270   7.857   3.441   0.867  1.0553  0.7206 -0.7252
   55MOL   H28339271   7.838   3.671   0.911  0.1008 -1.7396  0.8970
   55MOL   H28439272   7.678   3.648   0.944  1.3246 -1.0170  0.6750
   55MOL   H28539273   7.630   3.695   0.690 -0.1636 -2.4266  2.1478
   55MOL   H28639274   7.705   3.824   0.781  1.2467  0.7844  0.4802
   55MOL   H28739275   0.031   3.767   0.684 -0.0211  0.7163 -0.0555
   55MOL   H28839276   7.420   3.677   1.030 -0.6667  1.6908  0.5709
   55MOL   H28939277   7.247   3.836   1.012  0.3548 -0.6989 -0.4336
   55MOL   C29039278   7.836   3.672   0.520 -0.0920 -0.1672 -0.0407
   55MOL   O29139279   7.748   3.596   0.476 -0.3782  0.2250 -0.0481
   55MOL   C29239280   0.065   3.719   0.437  0.4976 -0.3982  0.4743
   55MOL   C29339281   0.118   3.842   0.455  0.4241  0.4043  0.3626
   55MOL   C29439282   0.223   3.885   0.376  0.1189  0.1388 -0.2014
   55MOL   C29539283   0.280   3.795   0.283  0.8510  0.0287  0.2294
   55MOL   C29639284   0.407   3.835   0.210 -0.1399 -0.2041 -0.0533
   55MOL   O29739285   0.451   3.951   0.228  0.0794  0.3741 -0.0598
   55MOL   N29839286   0.460   3.742   0.121  0.4241 -0.5024 -0.6941
   55MOL   C29939287   0.582   3.759   0.040 -0.7399  0.0538 -0.4646
   55MOL   C30039288   0.625   3.635   7.846 -0.0799  0.5204 -0.1065
   55MOL   C30139289   0.766   3.619   7.795 -1.0427  1.8244  0.4125
   55MOL   C30239290   0.875   3.625   0.013 -0.1093 -0.2976 -0.4753
   55MOL   C30339291   1.010   3.586   7.849  0.4826 -0.6253 -0.9357
   55MOL   C30439292   1.135   3.605   0.060  0.4004  0.2972 -0.6883
   55MOL   N30539293   1.121   3.526   0.182  0.5875  0.0113  0.1805
   55MOL   C30639294   0.222   3.666   0.256 -0.1034 -0.0577  0.4260
   55MOL   C30739295   0.114   3.630   0.337 -0.0622 -0.4450 -0.8828
   55MOL   H30839296   0.078   3.907   0.532 -0.8849  1.0991 -0.8885
   55MOL   H30939297   0.271   3.980   0.393  0.5979  0.0683 -1.1526
   55MOL   H31039298   0.408   3.658   0.099  0.4422 -0.1454 -2.1467
   55MOL   H31139299   0.556   3.847   7.867 -0.2541  0.0495 -0.6845
   55MOL   H31239300   0.660   3.794   0.108 -0.3512 -1.0164 -0.3653
   55MOL   H31339301   0.558   3.621   7.761  2.3599 -0.0365 -1.9980
   55MOL   H31439302   0.609   3.545   0.019 -2.6917 -1.0931 -3.1352
   55MOL   H31539303   0.774   3.531   7.731  0.6573  1.1995  1.4536
   55MOL   H31639304   0.779   3.708   7.732  1.1421 -0.8908 -3.1512
   55MOL   H31739305   0.854   3.560   0.097 -0.5472 -1.5828 -1.5514
   55MOL   H31839306   0.880   3.728   0.050  1.5132 -0.7672  0.6372
   55MOL   H31939307   1.043   3.657   7.773  2.1713  0.7483  1.0176
   55MOL   H32039308   1.004   3.485   7.809 -1.0422 -0.6229 -0.7408
   55MOL   H32139309   1.228   3.564   0.021  1.3748  0.7898  1.0646
   55MOL   H32239310   1.152   3.711   0.076 -1.6137  1.0749 -3.2850
   55MOL   H32339311   1.032   3.486   0.207  0.6073 -1.0169 -1.3796
   55MOL   H32439312   0.270   3.589   0.198  1.5585  1.9207 -0.8445
   55MOL   H32539313   0.072   3.532   0.324 -2.0019  0.0664  1.2094
   55MOL   C32639314   1.216   3.521   0.281  0.1741  0.1370  0.2889
   55MOL   O32739315   1.329   3.566   0.272  0.7275 -0.3237 -0.0134
   55MOL   C32839316   1.178   3.451   0.413 -0.3232 -0.1680 -0.2543
   55MOL   C32939317   1.276   3.387   0.487 -0.1906  0.2309 -0.2920
   55MOL   C33039318   1.251   3.324   0.614  0.8210 -0.0314  0.2028
   55MOL   C33139319   1.123   3.322   0.662  0.9220 -0.3630  0.2682
   55MOL   C33239320   1.083   3.236   0.784 -0.1737  0.5020 -0.1734
   55MOL   O33339321   1.158   3.142   0.816  0.1726 -0.7487 -0.1390
   55MOL   N33439322   0.968   3.251   0.846  0.2359 -0.5114 -0.9841
   55MOL   C33539323   0.918   3.158   0.948  0.6063 -0.8242  1.0096
   55MOL   C33639324   0.958   3.189   1.094  0.5134  0.3626  0.2362
   55MOL   C33739325   0.875   3.092   1.180 -0.1516 -0.6292 -0.4086
   55MOL   C33839326   0.904   3.108   1.334  0.3974  0.0638  0.0151
   55MOL   C33939327   0.881   3.253   1.381  0.2982 -0.4517 -0.2254
   55MOL   C34039328   0.733   3.290   1.426 -0.3249 -0.1177 -0.1877
   55MOL   N34139329   0.670   3.359   1.317  0.0866  0.5582 -0.0011
   55MOL   C34239330   1.022   3.388   0.592  0.3079  0.6451  0.4549
   55MOL   C34339331   1.049   3.454   0.469  0.9543  0.3007  0.1647
   55MOL   H34439332   1.379   3.378   0.454  1.5422  2.4372  4.0872
   55MOL   H34539333   1.328   3.268   0.666  0.1768 -0.8109  0.3365
   55MOL   H34639334   0.903   3.326   0.825  0.1968 -0.4300 -0.5723
   55MOL   H34739335   0.810   3.171   0.939  0.8755  0.6813 -0.2263
   55MOL   H34839336   0.957   3.058   0.927  1.8912 -0.0942 -0.1606
   55MOL   H34939337   0.952   3.295   1.119 -0.7597 -0.1545  2.2221
   55MOL   H35039338   1.061   3.155   1.105  0.6792  0.2572 -1.5367
   55MOL   H35139339   0.769   3.110   1.161 -0.2988  1.4528  2.2029
   55MOL   H35239340   0.884   2.987   1.151 -0.2979 -0.9564  0.7117
   55MOL   H35339341   1.011   3.088   1.341  0.4617  0.5062  0.3015
   55MOL   H35439342   0.843   3.041   1.394 -0.9389  0.8742 -0.4041
   55MOL   H35539343   0.916   3.328   1.311 -1.0231  0.6043  0.2357
   55MOL   H35639344   0.957   3.258   1.459 -2.1997  0.2838  2.2651
   55MOL   H35739345   0.682   3.199   1.459  1.2734 -0.8512  0.3689
   55MOL   H35839346   0.714   3.364   1.503  0.5541 -0.0219 -0.0565
   55MOL   H35939347   0.732   3.428   1.278  1.8610 -0.4724  0.9359
   55MOL   H36039348   0.919   3.385   0.624 -0.0146  0.5364 -0.5606
   55MOL   H36139349   0.968   3.500   0.414  1.6262 -0.6868 -1.7004
   55MOL   C36239350   0.538   3.356   1.295 -0.4461  0.5837  0.1557
   55MOL   O36339351   0.465   3.281   1.357 -0.3162  0.6628  0.5576
   55MOL   C36439352   0.484   3.447   1.193 -0.7175  0.0328 -0.8281
   55MOL   C36539353   0.554   3.567   1.164 -0.4462 -0.1388 -0.3039
   55MOL   C36639354   0.508   3.639   1.051  0.0243  0.0040 -0.7324
   55MOL   C36739355   0.394   3.598   0.976  0.5677 -0.3681 -0.5874
   55MOL   C36839356   0.346   3.671   0.854 -0.8591 -0.0406 -0.8502
   55MOL   O36939357   0.274   3.618   0.769 -0.4451  0.2058  0.2937
   55MOL   N37039358   0.377   3.797   0.847  0.1083  0.9984 -0.8801
   55MOL   C37139359   0.363   3.884   0.730 -0.1273 -0.0357  0.1690
   55MOL   C37239360   0.483   3.982   0.714  0.0251 -0.2958 -0.2032
   55MOL   C37339361   0.476   4.061   0.587  0.0337 -0.4521  0.0936
   55MOL   C37439362   0.592   4.156   0.569  0.0152  0.0616 -0.1323
   55MOL   C37539363   0.553   4.297   0.509 -0.1882 -0.1728 -0.1245
   55MOL   C37639364   0.484   4.300   0.369  0.3549 -0.7947 -0.1715
   55MOL   N37739365   0.570   4.250   0.262  0.0277 -0.0166  0.8746
   55MOL   C37839366   0.316   3.483   1.016  0.1036  0.9527  0.3292
   55MOL   C37939367   0.367   3.412   1.129 -0.4004 -0.7614 -0.2850
   55MOL   H38039368   0.649   3.592   1.209 -0.7310  0.1133  0.1688
   55MOL   H38139369   0.567   3.721   1.014  0.1575  0.2777  0.0738
   55MOL   H38239370   0.429   3.836   0.924 -0.8321 -0.8243  0.7156
   55MOL   H38339371   0.347   3.823   0.640  1.5708 -1.3192  0.7095
   55MOL   H38439372   0.269   3.938   0.741 -1.5846 -1.9572 -2.3034
   55MOL   H38539373   0.579   3.931   0.718  0.9160  1.4526  1.0429
   55MOL   H38639374   0.496   4.041   0.805  0.8115 -2.6857  1.2860
   55MOL   H38739375   0.476   3.991   0.504  0.8163  1.1811 -1.3019
   55MOL   H38839376   0.386   4.122   0.580  0.0671 -0.1097  2.0879
   55MOL   H38939377   0.668   4.112   0.504 -0.3961 -0.3471 -0.3419
   55MOL   H39039378   0.635   4.179   0.666  0.5620 -2.3802  0.2392
   55MOL   H39139379   0.643   4.359   0.511  0.3087 -0.8902  2.8434
   55MOL   H39239380   0.488   4.354   0.577  0.4916  0.8812 -0.3372
   55MOL   H39339381   0.395   4.237   0.380  0.8218 -1.5905 -0.9722
   55MOL   H39439382   0.437   4.394   0.339  1.1600  0.2167  1.6910
   55MOL   H39539383   0.568   4.152   0.238 -0.9532  0.5220 -1.4356
   55MOL   H39639384   0.228   3.451   0.962 -0.8080  0.1686  2.2610
   55MOL   H39739385   0.318   3.323   1.166  0.3098 -0.7618  0.6603
   55MOL   C39839386   0.679   4.318   0.225  0.4746  0.1895 -0.0885
   55MOL   O39939387   0.717   4.425   0.272 -0.2965 -0.1572  0.4790
   55MOL   C40039388   0.764   4.235   0.131 -0.2587 -0.1615  0.3226
   55MOL   C40139389   0.711   4.117   0.069  0.1183  0.1388 -0.6191
   55MOL   C40239390   0.795   4.045   7.868 -0.0485  0.0252 -0.0816
   55MOL   C40339391   0.932   4.083   7.844 -0.1984 -0.0742  0.2961
   55MOL   C40439392   1.022   4.001   7.753 -0.6802 -0.0700  0.6449
   55MOL   O40539393   0.972   3.928   7.666 -0.0039 -0.0621  0.5618
   55MOL   N40639394   1.154   4.011   7.767 -0.1650  0.2976 -0.2244
   55MOL   C40739395   1.241   3.926   7.682  0.0093 -0.1798  0.1594
   55MOL   C40839396   1.386   3.960   7.698  0.0155 -0.3048 -0.4330
   55MOL   C40939397   1.443   3.877   7.819  0.0847  0.5132  0.7676
   55MOL   C41039398   1.594   3.851   7.809  0.4198 -0.2204 -0.6815
   55MOL   C41139399   1.679   3.981   7.812  0.2191 -0.1662  1.0086
   55MOL   C41239400   1.827   3.951   7.789 -0.0485  0.5876 -0.0141
   55MOL   N41339401   1.897   4.079   7.760 -1.4874  0.5386  0.6293
   55MOL   C41439402   0.978   4.205   0.011 -0.1000  0.1932  0.3554
   55MOL   C41539403   0.894   4.277   0.098  0.8158 -0.7054 -0.1274
   55MOL   H41639404   0.608   4.091   0.090 -0.0355  2.3617  1.5842
   55MOL   H41739405   0.747   3.959   7.824 -0.1401 -0.1813  0.4207
   55MOL   H41839406   1.195   4.073   7.835 -0.1830 -1.5939  1.5382
   55MOL   H41939407   1.219   3.822   7.704 -0.8893  0.4577  2.4080
   55MOL   H42039408   1.208   3.933   7.578 -2.1481  1.7231  0.9201
   55MOL   H42139409   1.402   4.068   7.694  1.0313 -0.3483  1.8050
   55MOL   H42239410   1.436   3.917   7.611  0.6435 -2.4108  0.9163
   55MOL   H42339411   1.420   3.921   0.030 -1.0979  1.1217  0.2224
   55MOL   H42439412   1.387   3.785   7.832  0.3323  0.0773 -1.0964
   55MOL   H42539413   1.620   3.795   7.719  0.9955  1.1974 -1.4105
   55MOL   H42639414   1.622   3.798   0.014 -1.6328  0.8588  0.5993
   55MOL   H42739415   1.666   4.037   0.019  0.8319  0.5584  0.6576
   55MOL   H42839416   1.643   4.047   7.734 -2.6569 -2.5888  0.2161
   55MOL   H42939417   1.865   3.900   7.878 -0.3083 -1.1630 -0.8959
   55MOL   H43039418   1.850   3.895   7.699  1.6916  1.1931  0.0414
   55MOL   H43139419   1.870   4.122   7.673  0.0693 -1.1753 -0.7514
   55MOL   H43239420   1.073   4.250   7.874  0.1455 -0.2405  0.5318
   55MOL   H43339421   0.928   4.372   0.136  1.2487 -1.3779  1.1862
   55MOL   C43439422   1.956   4.154   7.850 -0.5367  0.2701  0.7039
   55MOL   O43539423   1.962   4.135   0.084  1.0542  1.0360  0.2588
   55MOL   C43639424   2.026   4.274   7.789  0.7974  0.0827 -0.4128
   55MOL   C43739425   2.102   4.365   7.871  0.0236 -0.0472  0.5951
   55MOL   C43839426   2.161   4.479   7.821 -0.7508 -0.7159  0.0022
   55MOL   C43939427   2.164   4.503   7.682 -0.5530  0.7356  0.2256
   55MOL   C44039428   2.229   4.625   7.632 -0.7441  0.0970 -0.5760
   55MOL   O44139429   2.242   4.641   7.512 -0.0831 -0.2231 -0.2403
   55MOL   N44239430   2.280   4.705   7.723 -0.3948 -0.4934 -0.6016
   55MOL   C44339431   2.316   4.845   7.697  0.2161  0.0072  0.7965
   55MOL   C44439432   2.461   4.876   7.751  0.0737 -0.1971  0.4596
   55MOL   C44539433   2.479   5.028   7.755  0.5388  0.1900  0.4625
   55MOL   C44639434   2.612   5.070   7.814 -0.7510 -0.0610 -0.4090
   55MOL   C44739435   2.629   5.030   0.077 -0.0446  0.0583 -0.3704
   55MOL   C44839436   2.762   5.076   0.139 -0.2709  0.2273 -0.0608
   55MOL   N44939437   2.768   5.061   0.289  0.2137  1.3426  0.2138
   55MOL   C45039438   2.099   4.417   7.594 -0.4970  0.4415 -0.1266
   55MOL   C45139439   2.036   4.301   7.648  0.3115 -0.5293  0.2338
   55MOL   H45239440   2.103   4.351   0.093  1.0922 -2.2292  0.3375
   55MOL   H45339441   2.208   4.548   0.003 -1.7202 -0.6861  0.6557
   55MOL   H45439442   2.274   4.688   7.823 -2.4852  2.4544 -0.1315
   55MOL   H45539443   2.300   4.877   7.594  0.3687 -2.4012 -0.0076
   55MOL   H45639444   2.242   4.896   7.759 -0.6765 -0.5837  0.2230
   55MOL   H45739445   2.532   4.829   7.682  0.2910  1.5374 -0.5295
   55MOL   H45839446   2.477   4.828   7.848  0.0413  0.0236  0.5727
   55MOL   H45939447   2.471   5.071   7.655 -0.9812 -1.8057 -0.3086
   55MOL   H46039448   2.404   5.075   7.818  2.3629  0.3609  2.6034
   55MOL   H46139449   2.602   5.178   7.829  1.9718  0.5388 -2.4808
   55MOL   H46239450   2.702   5.060   7.754 -0.0126 -0.7618  0.8017
   55MOL   H46339451   2.631   4.921   0.081 -0.8007  0.0164 -0.9764
   55MOL   H46439452   2.544   5.062   0.138  0.5384 -0.0413  0.5060
   55MOL   H46539453   2.842   5.009   0.107 -1.0202 -1.2590  1.0663
   55MOL   H46639454   2.790   5.179   0.119  1.9981 -0.0789  1.3052
   55MOL   H46739455   2.692   5.019   0.340 -0.8040  0.6833 -1.8041
   55MOL   H46839456   2.088   4.450   7.492 -0.6730 -0.0205 -0.2577
   55MOL   H46939457   1.987   4.235   7.578 -0.1496  1.4850 -1.3881
   55MOL   C47039458   2.877   5.098   0.359 -0.5153 -0.0732  0.0075
   55MOL   O47139459   2.976   5.152   0.309 -0.1931  0.1186 -0.7274
   55MOL   C47239460   2.872   5.050   0.499  0.6205 -0.0862 -0.3880
   55MOL   C47339461   2.769   5.091   0.587  0.5116 -0.2514  0.4392
   55MOL   C47439462   2.761   5.041   0.721 -0.9258  0.1863  0.0909
   55MOL   C47539463   2.858   4.956   0.768 -0.4606  0.1843 -0.2619
   55MOL   C47639464   2.840   4.885   0.898  0.3914  0.3297 -0.1800
   55MOL   O47739465   2.929   4.820   0.951 -0.0374  0.2198  0.5495
   55MOL   N47839466   2.720   4.891   0.954  0.0079 -0.4944  0.2419
   55MOL   C47939467   2.688   4.838   1.088 -0.1450 -0.0456  0.1801
   55MOL   C48039468   2.619   4.701   1.078  0.3578 -0.0188 -0.3148
   55MOL   C48139469   2.568   4.650   1.215  0.1629 -0.0007 -0.2686
   55MOL   C48239470   2.431   4.702   1.266 -0.1054  0.1109  0.2925
   55MOL   C48339471   2.314   4.632   1.210 -0.4871  0.1484  0.2864
   55MOL   C48439472   2.188   4.668   1.292 -0.2747  0.0152 -0.0276
   55MOL   N48539473   2.071   4.587   1.261 -0.3951  0.1551 -0.1571
   55MOL   C48639474   2.965   4.924   0.683 -0.3866 -0.2198  0.1269
   55MOL   C48739475   2.970   4.965   0.552 -0.2501  0.5258  0.1928
   55MOL   H48839476   2.690   5.157   0.556  0.9505  0.2277  0.3384
   55MOL   H48939477   2.686   5.088   0.783  0.5021  0.6215  1.5428
   55MOL   H49039478   2.639   4.915   0.900  0.6658 -0.8205 -0.9023
   55MOL   H49139479   2.780   4.838   1.146 -0.1555  0.3430  0.1936
   55MOL   H49239480   2.622   4.907   1.140  1.4407  0.7616  1.1646
   55MOL   H49339481   2.680   4.624   1.031  1.2422  0.9204 -0.7409
   55MOL   H49439482   2.536   4.707   1.008  1.5350  0.1932 -1.7144
   55MOL   H49539483   2.564   4.542   1.222 -1.4519  0.1184  0.9988
   55MOL   H49639484   2.645   4.683   1.285 -0.7797  1.8429 -0.0497
   55MOL   H49739485   2.423   4.808   1.241 -2.6191  0.0946  0.8974
   55MOL   H49839486   2.432   4.691   1.375  1.1961  2.9462  0.6156
   55MOL   H49939487   2.336   4.526   1.210  0.4101  0.3078  2.2621
   55MOL   H50039488   2.309   4.666   1.106 -0.7611  0.6857  0.4722
   55MOL   H50139489   2.191   4.652   1.400  0.2099 -1.1640 -0.2198
   55MOL   H50239490   2.172   4.775   1.277  3.7012  0.6425 -0.2397
   55MOL   H50339491   2.075   4.491   1.293  1.3375  0.9870  2.2256
   55MOL   H50439492   3.045   4.866   0.727  0.2533  0.3790 -0.2590
   55MOL   H50539493   3.055   4.943   0.489 -1.2438  3.2540 -2.2689
   55MOL   C50639494   1.948   4.634   1.240 -0.1727 -0.0555 -0.4283
   55MOL   O50739495   1.920   4.756   1.229  0.1991  0.1013 -0.4518
   55MOL   C50839496   1.850   4.529   1.211 -0.0875  0.0395  0.1201
   55MOL   C50939497   1.864   4.404   1.267 -0.1596  0.7523  0.5076
   55MOL   C51039498   1.758   4.308   1.266 -0.0002 -0.4900  0.4382
   55MOL   C51139499   1.642   4.334   1.187  0.4531 -0.2200 -0.6619
   55MOL   C51239500   1.520   4.245   1.180  0.1188 -0.3434 -0.1947
   55MOL   O51339501   1.440   4.256   1.086 -0.1161  0.3257 -0.0623
   55MOL   N51439502   1.505   4.152   1.277 -0.1410  0.3564 -0.2404
   55MOL   C51539503   1.396   4.049   1.279 -0.2705  0.6073 -0.5659
   55MOL   C51639504   1.337   4.036   1.423 -1.2749  0.1234  0.4117
   55MOL   C51739505   1.198   3.963   1.436  0.3750 -1.0418 -0.4855
   55MOL   C51839506   1.198   3.810   1.441 -0.9796  0.3593 -0.3789
   55MOL   C51939507   1.205   3.752   1.303  0.3452 -0.9683 -0.2297
   55MOL   C52039508   1.153   3.599   1.298  0.0178  0.1103 -0.4132
   55MOL   N52139509   1.100   3.563   1.167 -0.1008  0.2531  0.8671
   55MOL   C52239510   1.635   4.455   1.120  0.0915  0.3291  0.2277
   55MOL   C52339511   1.733   4.555   1.137  0.5360 -0.1815 -1.0909
   55MOL   H52439512   1.963   4.381   1.303  0.2674 -1.9696 -2.1958
   55MOL   H52539513   1.771   4.219   1.327 -0.4999  0.7818  2.4781
   55MOL   H52639514   1.579   4.139   1.344  1.1175  0.0830 -1.6588
   55MOL   H52739515   1.318   4.081   1.210  0.0060 -1.0815 -1.6713
   55MOL   H52839516   1.437   3.963   1.227  1.0547  1.1762 -0.5103
   55MOL   H52939517   1.326   4.135   1.469  1.3878  1.0420 -0.7915
   55MOL   H53039518   1.408   3.982   1.485 -1.6985  0.5965  1.3129
   55MOL   H53139519   1.150   3.997   1.527  0.3195 -2.2678 -0.0513
   55MOL   H53239520   1.141   4.002   1.352 -0.0381  3.0325  1.5629
   55MOL   H53339521   1.103   3.780   1.486 -0.5163  1.1725  1.1708
   55MOL   H53439522   1.272   3.764   1.506  0.7814  1.1329 -1.7964
   55MOL   H53539523   1.305   3.760   1.260 -0.4376 -1.1921 -2.1563
   55MOL   H53639524   1.143   3.817   1.242 -0.8806 -2.7486 -0.9252
   55MOL   H53739525   1.235   3.536   1.335  2.3766  3.6457  0.6241
   55MOL   H53839526   1.077   3.590   1.376 -0.4761 -0.8771 -0.9970
   55MOL   H53939527   1.158   3.533   1.090 -1.0101  1.3480 -0.2892
   55MOL   H54039528   1.547   4.488   1.066 -0.3087 -1.4401 -0.2400
   55MOL   H54139529   1.716   4.652   1.092  0.6768  0.0229 -0.6990
   55MOL   C54239530   0.970   3.577   1.131 -0.2102 -0.2273 -0.8884
   55MOL   O54339531   0.882   3.588   1.212  0.5720 -0.3700 -0.5115
   55MOL   C54439532   0.930   3.575   0.988  0.2906 -0.0574  0.7145
   55MOL   C54539533   1.010   3.650   0.892 -0.0005  0.0559 -0.2942
   55MOL   C54639534   0.960   3.671   0.757 -0.4658 -1.2548  0.4515
   55MOL   C54739535   0.833   3.631   0.724  0.2701 -0.0815  0.1176
   55MOL   C54839536   0.777   3.649   0.582 -0.4899  0.3682 -0.3790
   55MOL   O54939537   0.736   3.555   0.513  0.1381 -0.1102 -0.2668
   55MOL   N55039538   0.790   3.772   0.541 -0.1008 -0.2919 -0.2437
   55MOL   C55139539   0.753   3.819   0.402  0.1735 -0.4850  0.1904
   55MOL   C55239540   0.851   3.926   0.348  0.8342 -0.1326 -0.1313
   55MOL   C55339541   0.999   3.872   0.328 -0.7293 -0.3580 -0.0014
   55MOL   C55439542   1.112   3.975   0.324 -0.5090  0.2564  0.1614
   55MOL   C55539543   1.244   3.924   0.277  0.0988  0.6036 -0.3827
   55MOL   C55639544   1.375   4.011   0.303  0.1012  0.3877  0.0916
   55MOL   N55739545   1.357   4.149   0.281  0.7496 -0.5023 -0.1976
   55MOL   C55839546   0.756   3.552   0.811  0.4502 -0.2154  0.1732
   55MOL   C55939547   0.811   3.516   0.938  0.5309 -0.3602 -0.0847
   55MOL   H56039548   1.107   3.690   0.917  0.1357 -0.2030 -0.4058
   55MOL   H56139549   1.025   3.727   0.691 -1.3046 -0.2963  0.4240
   55MOL   H56239550   0.825   3.842   0.604 -2.5846  0.3586  0.4715
   55MOL   H56339551   0.751   3.738   0.329 -0.3596  0.3706 -0.7603
   55MOL   H56439552   0.657   3.871   0.403  0.2376 -0.3081 -1.4739
   55MOL   H56539553   0.852   4.004   0.425  0.1567  0.5180 -0.7719
   55MOL   H56639554   0.816   3.960   0.251  3.7998  3.6365 -0.0270
   55MOL   H56739555   1.020   3.802   0.409  1.9840  1.6557  1.1078
   55MOL   H56839556   1.018   3.822   0.232 -0.8455  0.3933 -0.4216
   55MOL   H56939557   1.129   4.020   0.422  1.1530  0.5962 -0.2792
   55MOL   H57039558   1.076   4.058   0.263 -1.8076 -0.8033 -0.5549
   55MOL   H57139559   1.232   3.905   0.170 -2.0063  3.5416 -0.7539
   55MOL   H57239560   1.261   3.827   0.324  2.2919  1.9590  1.7089
   55MOL   H57339561   1.403   3.986   0.405 -1.3950  1.3296  0.7511
   55MOL   H57439562   1.456   3.985   0.234 -0.2912 -0.1834 -0.1554
   55MOL   H57539563   1.396   4.214   0.347 -3.4225  1.5148  0.4914
   55MOL   H57639564   0.664   3.504   0.782  0.5007 -0.8268  1.0076
   55MOL   H57739565   0.736   3.472   1.003 -0.3781  1.2688 -0.0003
   55MOL   C57839566   1.314   4.214   0.174  0.0464  0.7551  0.7972
   55MOL   O57939567   1.281   4.160   0.070 -0.4188 -0.2030  0.2360
   55MOL   C58039568   1.334   4.361   0.167  0.4630 -0.7833 -0.6797
   55MOL   C58139569   1.428   4.419   0.245 -0.1331 -0.1003 -0.2915
   55MOL   C58239570   1.461   4.551   0.235 -0.0169 -0.1535 -0.3583
   55MOL   C58339571   1.395   4.631   0.136 -0.0360  0.4456  0.1404
   55MOL   C58439572   1.424   4.774   0.124  0.8335  0.6914  0.7349
   55MOL   O58539573   1.333   4.857   0.105  0.1774 -0.4634  0.0260
   55MOL   N58639574   1.555   4.804   0.113 -0.5093 -0.1849  0.1368
   55MOL   C58739575   1.618   4.931   0.086  0.4229  0.6802 -0.0687
   55MOL   C58839576   1.714   4.957   0.203 -0.5072  0.1175 -0.2017
   55MOL   C58939577   1.645   4.963   0.335 -0.0899 -0.0710  0.2028
   55MOL   C59039578   1.743   4.980   0.454 -1.0039  0.4438  0.1326
   55MOL   C59139579   1.819   5.118   0.470 -0.1507  0.3846 -0.2189
   55MOL   C59239580   1.936   5.139   0.567  0.9157 -0.5014  0.0901
   55MOL   N59339581   1.909   5.132   0.708 -0.4982  0.4043 -0.4152
   55MOL   C59439582   1.293   4.579   0.060  0.2085 -0.4023  0.5165
   55MOL   C59539583   1.265   4.442   0.071 -0.0711 -0.0892  0.3611
   55MOL   H59639584   1.485   4.359   0.315 -1.3035 -0.8741  0.0206
   55MOL   H59739585   1.545   4.597   0.284  1.7628 -2.5803 -1.0621
   55MOL   H59839586   1.621   4.731   0.135  0.3291  0.1240 -1.2635
   55MOL   H59939587   1.662   4.925   7.872  0.0625 -0.8568 -0.1579
   55MOL   H60039588   1.541   5.008   0.094  0.8360  1.2557 -1.4472
   55MOL   H60139589   1.779   5.040   0.175  0.4880 -1.2229 -2.0029
   55MOL   H60239590   1.788   4.877   0.205 -1.2245 -0.6204 -1.5823
   55MOL   H60339591   1.570   5.042   0.337 -0.3167 -0.2751 -0.3783
   55MOL   H60439592   1.600   4.866   0.355 -2.9940  1.3990  1.0759
   55MOL   H60539593   1.806   4.892   0.467 -1.2609  0.6134  2.8212
   55MOL   H60639594   1.689   4.970   0.549 -1.8465 -3.6728 -0.6982
   55MOL   H60739595   1.747   5.198   0.488 -0.9981 -0.3171 -0.4625
   55MOL   H60839596   1.852   5.134   0.367 -0.6020 -0.9233 -0.5766
   55MOL   H60939597   2.012   5.065   0.539  0.9881 -0.6045  0.5510
   55MOL   H61039598   1.976   5.239   0.548 -0.0659 -0.3112 -1.0776
   55MOL   H61139599   1.841   5.067   0.744 -0.6831  1.0043  0.3414
   55MOL   H61239600   1.240   4.627   7.865  0.8578 -0.1287  0.2528
   55MOL   H61339601   1.187   4.406   0.005 -0.9682  1.2940  0.6464
   55MOL   C61439602   1.967   5.217   0.798  0.1261 -0.0372  0.0548
   55MOL   O61539603   2.060   5.292   0.772  0.0487 -0.1855  0.3606
   55MOL   C61639604   1.919   5.209   0.941 -0.1954 -0.3235 -0.7403
   55MOL   C61739605   1.958   5.309   1.038 -0.4779 -0.3299 -0.3925
   55MOL   C61839606   1.933   5.282   1.178 -1.1080 -0.1409  0.2435
   55MOL   C61939607   1.870   5.161   1.223 -0.1329 -0.0987  1.5171
   55MOL   C62039608   1.844   5.139   1.370  0.1319 -0.1459 -0.2092
   55MOL   O62139609   1.832   5.234   1.452 -0.3197  0.3582  0.0317
   55MOL   N62239610   1.851   5.016   1.407  0.2874 -0.0607  0.5222
   55MOL   C62339611   1.837   4.964   1.538 -0.3737  0.2000  0.0348
   55MOL   C62439612   1.929   4.843   1.558 -0.3366  0.3672  0.6606
   55MOL   C62539613   1.953   4.812   1.701  0.2701  0.4445 -0.2033
   55MOL   C62639614   1.819   4.767   1.769  0.1187  0.7063 -0.1113
   55MOL   C62739615   1.830   4.746   1.912  0.0680 -0.0759  0.1160
   55MOL   C62839616   1.697   4.692   1.971  0.0517  0.4809 -0.2402
   55MOL   N62939617   1.668   4.550   1.934  0.4997 -0.4674  0.2049
   55MOL   C63039618   1.827   5.061   1.124 -0.4073 -0.0256  0.1623
   55MOL   C63139619   1.855   5.094   0.990  0.3454 -0.3073  0.5793
   55MOL   H63239620   2.009   5.401   1.014  0.4809 -1.2062 -1.7907
   55MOL   H63339621   1.965   5.346   1.259 -0.3731 -0.0014 -0.1482
   55MOL   H63439622   1.881   4.951   1.336 -1.3506  2.1061 -2.2555
   55MOL   H63539623   1.860   5.039   1.614 -1.4003  0.5243  0.0328
   55MOL   H63639624   1.738   4.925   1.562  0.5450 -0.6448  2.5882
   55MOL   H63739625   2.020   4.841   1.498 -0.3784  0.8522  0.5823
   55MOL   H63839626   1.876   4.757   1.516  0.0863 -0.7988  2.4353
   55MOL   H63939627   2.026   4.731   1.705 -1.2375 -0.9820 -0.8598
   55MOL   H64039628   2.004   4.885   1.763 -0.3359  1.5732 -1.0225
   55MOL   H64139629   1.784   4.682   1.710 -2.4724  0.5287  1.5698
   55MOL   H64239630   1.736   4.838   1.767 -0.1289  0.4471  0.5786
   55MOL   H64339631   1.853   4.837   1.968  0.5012 -0.6490  0.8748
   55MOL   H64439632   1.900   4.666   1.937 -3.3664 -3.2671  0.0282
   55MOL   H64539633   1.707   4.687   2.079  1.0897  1.2513 -0.2862
   55MOL   H64639634   1.617   4.762   1.946 -0.1365  0.5102  0.4390
   55MOL   H64739635   1.629   4.532   1.843  0.5700 -0.4140  0.1643
   55MOL   H64839636   1.789   4.967   1.161 -0.2130  0.4952  1.7359
   55MOL   H64939637   1.823   5.014   0.925 -0.7465  0.4249  0.1892
   55MOL   C65039638   1.727   4.441   1.983  0.3378 -0.5164  0.0431
   55MOL   O65139639   1.786   4.430   2.093 -0.2624  0.6464  0.1971
   55MOL   C65239640   1.720   4.324   1.891  0.3022 -0.1738 -0.3417
   55MOL   C65339641   1.791   4.325   1.769 -0.1997  0.4854 -0.0466
   55MOL   C65439642   1.788   4.214   1.680  0.0854  0.3169  0.2214
   55MOL   C65539643   1.700   4.104   1.713  0.0765  0.0337 -0.1964
   55MOL   C65639644   1.669   4.005   1.609 -0.6730 -0.8352 -0.3233
   55MOL   O65739645   1.680   4.027   1.486  0.4294 -0.7917 -0.3473
   55MOL   N65839646   1.627   3.884   1.661  0.0975  0.6982  0.0266
   55MOL   C65939647   1.600   3.773   1.570 -0.1440  0.2863  0.4405
   55MOL   C66039648   1.625   3.635   1.648  0.8067 -0.0352 -0.6461
   55MOL   C66139649   1.606   3.502   1.563 -0.2932  0.2822  0.1468
   55MOL   C66239650   1.466   3.429   1.583 -0.1998 -0.8537 -0.4293
   55MOL   C66339651   1.437   3.323   1.477 -0.2248 -0.0251 -1.2213
   55MOL   C66439652   1.294   3.266   1.493 -0.1671 -0.0837  0.1177
   55MOL   N66539653   1.274   3.190   1.620  0.0413 -0.0225  0.7653
   55MOL   C66639654   1.623   4.109   1.838 -0.4297 -0.2742  0.4934
   55MOL   C66739655   1.635   4.220   1.926  0.7233 -0.0502 -0.3647
   55MOL   H66839656   1.854   4.411   1.751  1.6342 -1.4017 -3.1319
   55MOL   H66939657   1.841   4.203   1.587  1.1743  2.4840  0.5207
   55MOL   H67039658   1.624   3.878   1.761 -0.1195 -0.0582 -0.0215
   55MOL   H67139659   1.496   3.768   1.540 -0.0023 -0.8118  0.1426
   55MOL   H67239660   1.664   3.773   1.482  0.3159  0.5980  0.7699
   55MOL   H67339661   1.569   3.634   1.742  1.9634 -0.0573  0.0496
   55MOL   H67439662   1.726   3.653   1.684  1.7159  0.7224 -3.4271
   55MOL   H67539663   1.620   3.527   1.457 -0.4237 -0.6900 -0.1009
   55MOL   H67639664   1.689   3.438   1.590  0.6625  1.4681  0.0541
   55MOL   H67739665   1.384   3.501   1.576  1.0279  0.7972  1.5766
   55MOL   H67839666   1.467   3.367   1.672 -1.4213 -0.5409 -0.1817
   55MOL   H67939667   1.507   3.239   1.474 -0.1299  0.0344 -0.7564
   55MOL   H68039668   1.447   3.361   1.376 -0.3933 -1.0144 -1.6124
   55MOL   H68139669   1.229   3.354   1.498  1.3675  1.0102  0.9293
   55MOL   H68239670   1.255   3.212   1.406  0.1417 -1.8649  1.0535
   55MOL   H68339671   1.237   3.235   1.702 -0.1401  1.8458 -0.2964
   55MOL   H68439672   1.547   4.035   1.852 -1.5846  1.0095  1.0984
   55MOL   H68539673   1.567   4.224   2.010  2.0889  1.0930  0.7055
   55MOL   C68639674   1.273   3.055   1.625 -0.2555 -0.2460 -0.2534
   55MOL   O68739675   1.308   2.981   1.541  0.0609  0.4220  0.6115
   55MOL   C68839676   1.227   2.997   1.754  0.5330  0.9968 -0.0608
   55MOL   C68939677   1.202   2.859   1.766 -0.7046 -0.0295  0.2350
   55MOL   C69039678   1.159   2.804   1.889  0.6651  0.6371  0.6270
   55MOL   C69139679   1.149   2.881   2.006  0.1736 -0.1316 -0.1624
   55MOL   C69239680   1.108   2.826   2.140  0.1832  0.3343 -0.1127
   55MOL   O69339681   1.080   2.903   2.234 -0.4833 -0.3061 -0.1028
   55MOL   N69439682   1.084   2.691   2.144  0.5639 -0.1835  0.2228
   55MOL   C69539683   1.027   2.620   2.264  0.7851 -1.2302  0.5579
   55MOL   C69639684   0.872   2.658   2.294 -0.6897 -0.5333  0.1517
   55MOL   C69739685   0.817   2.580   2.412 -0.6374 -0.5274  0.3331
   55MOL   C69839686   0.665   2.609   2.435  0.5559  0.0838 -0.8380
   55MOL   C69939687   0.569   2.561   2.320 -0.9488 -0.0350 -0.1333
   55MOL   C70039688   0.425   2.588   2.358  0.2602  0.6368 -0.6812
   55MOL   N70139689   0.348   2.545   2.250  0.0007 -0.2611  0.5794
   55MOL   C70239690   1.169   3.020   1.990 -0.4475  0.8439 -0.1581
   55MOL   C70339691   1.210   3.077   1.872 -0.1597 -0.0422 -0.5701
   55MOL   H70439692   1.205   2.791   1.682 -2.0533 -0.9208  0.8914
   55MOL   H70539693   1.128   2.701   1.897 -1.9667  1.4178  1.2185
   55MOL   H70639694   1.121   2.632   2.070  0.3808  0.6737 -0.5695
   55MOL   H70739695   1.038   2.513   2.247  0.9333 -1.3376  1.3190
   55MOL   H70839696   1.099   2.649   2.340  1.7016  2.3701 -1.5602
   55MOL   H70939697   0.820   2.646   2.199  1.3687  0.3872 -1.1053
   55MOL   H71039698   0.868   2.764   2.319  0.0200  0.1810 -2.6400
   55MOL   H71139699   0.836   2.473   2.411 -2.3951 -0.8880  2.0144
   55MOL   H71239700   0.876   2.620   2.495 -0.0151 -0.0291 -0.3438
   55MOL   H71339701   0.659   2.715   2.457  0.9291 -0.4381  1.9278
   55MOL   H71439702   0.626   2.570   2.529  0.2071 -0.5152 -1.2307
   55MOL   H71539703   0.583   2.454   2.301 -2.6525  0.0102 -1.7951
   55MOL   H71639704   0.593   2.616   2.229  0.2347  0.0568  0.2247
   55MOL   H71739705   0.402   2.531   2.448  1.0556  2.9742  1.0753
   55MOL   H71839706   0.407   2.692   2.387  1.9337  0.7388  0.0811
   55MOL   H71939707   0.379   2.454   2.218 -0.8571 -0.2631 -0.2619
   55MOL   H72039708   1.146   3.077   2.080  2.0952  1.5989  0.0468
   55MOL   H72139709   1.219   3.184   1.866 -1.2707  0.1616  1.0007
   55MOL   H72239710   0.374   2.614   2.180  0.4914 -1.3774 -0.3586
   56MOL     C139711   6.588   3.857   7.288 -0.3447  0.3421  0.4820
   56MOL     O239712   6.504   3.807   7.209 -0.0289 -0.5527 -0.2323
   56MOL     C339713   6.574   3.981   7.367  0.0788 -0.5364 -0.1735
   56MOL     C439714   6.663   4.003   7.472  0.1943 -0.3033  0.0717
   56MOL     C539715   6.666   4.126   7.547 -0.0193  0.4665 -0.1827
   56MOL     C639716   6.561   4.221   7.521 -0.4636 -0.7125  0.5410
   56MOL     C739717   6.544   4.340   7.613 -0.2982 -0.2411 -0.1248
   56MOL     O839718   6.519   4.453   7.572  0.1939 -0.1629  0.5077
   56MOL     N939719   6.580   4.326   7.741  0.3290 -0.7687 -0.0202
   56MOL    C1039720   6.597   4.420   7.853  0.0223 -0.0318 -1.1543
   56MOL    C1139721   6.592   4.339   0.095  0.4969  0.3339  0.1323
   56MOL    C1239722   6.638   4.417   0.223  0.6116 -0.8504  0.5039
   56MOL    C1339723   6.617   4.334   0.351  0.4396  0.1987 -0.1768
   56MOL    C1439724   6.723   4.222   0.374 -0.0493 -0.1674  0.5585
   56MOL    C1539725   6.709   4.147   0.505 -0.0322 -0.3093 -0.0620
   56MOL    N1639726   6.827   4.062   0.510 -0.0057  0.0503  0.2210
   56MOL    C1739727   6.468   4.196   7.426 -0.1135  0.2727 -0.4784
   56MOL    C1839728   6.474   4.081   7.348 -0.1753 -0.3653  0.5601
   56MOL    H1939729   6.744   3.933   7.486 -0.7382 -1.5584 -0.6554
   56MOL    H2039730   6.726   4.139   7.636  2.0708  1.7128 -1.7484
   56MOL    H2139731   6.597   4.230   7.767  3.8289  0.4128  2.4427
   56MOL    H2239732   6.693   4.471   7.847 -0.4780  1.2131  0.9063
   56MOL    H2339733   6.523   4.499   7.854 -1.0688 -1.0563  1.5711
   56MOL    H2439734   6.652   4.249   0.089  0.5632  0.4631 -1.3916
   56MOL    H2539735   6.492   4.298   0.112 -0.4795  2.5436 -0.0710
   56MOL    H2639736   6.741   4.442   0.198 -0.4131  2.5020 -0.5590
   56MOL    H2739737   6.586   4.513   0.223  1.4700 -0.3736  1.7564
   56MOL    H2839738   6.518   4.288   0.360  0.5734 -0.0666 -0.0667
   56MOL    H2939739   6.614   4.398   0.439 -1.3039 -1.0944  0.7575
   56MOL    H3039740   6.818   4.274   0.368  0.3864 -0.2378  4.8233
   56MOL    H3139741   6.728   4.167   0.281  0.2573  1.9281 -0.6879
   56MOL    H3239742   6.690   4.223   0.581 -2.5302  0.3321 -1.2662
   56MOL    H3339743   6.626   4.079   0.484  0.9914 -2.2150  1.8768
   56MOL    H3439744   6.829   3.980   0.450  0.9017  0.8714 -0.8766
   56MOL    H3539745   6.387   4.265   7.410 -1.3271 -0.3278  2.6564
   56MOL    H3639746   6.392   4.063   7.280 -0.2888 -0.3455  0.6907
   56MOL    H3739747   6.683   3.804   7.298 -1.9182 -2.8722 -0.5690
   56MOL    C3839748   6.922   4.076   0.608  0.6498  1.1287 -0.2643
   56MOL    O3939749   6.921   4.174   0.686 -0.0157  0.3519 -0.5552
   56MOL    C4039750   7.025   3.969   0.622 -0.2075 -0.3879 -0.5910
   56MOL    C4139751   7.028   3.859   0.536 -0.6627  0.2203  0.1606
   56MOL    C4239752   7.115   3.752   0.561  0.2138 -0.0002 -0.6913
   56MOL    C4339753   7.220   3.764   0.652 -0.0353  0.1010  0.5548
   56MOL    C4439754   7.322   3.650   0.678 -0.3649 -0.6072  0.3600
   56MOL    O4539755   7.395   3.654   0.772  0.4360  0.0156  0.4208
   56MOL    N4639756   7.322   3.559   0.577 -0.3372  1.0085 -0.2028
   56MOL    C4739757   7.442   3.483   0.555  0.3692  0.7564  0.4650
   56MOL    C4839758   7.432   3.413   0.417  0.3263  0.5653  0.4585
   56MOL    C4939759   7.400   3.509   0.299 -0.1486 -0.5489 -0.1339
   56MOL    C5039760   7.347   3.442   0.174  0.2006  0.3017 -0.3309
   56MOL    C5139761   7.304   3.540   0.057 -0.8029 -0.2637 -0.4289
   56MOL    C5239762   7.173   3.606   0.094  0.0733 -0.1618 -0.1092
   56MOL    N5339763   7.134   3.705   7.881 -0.3826  0.1337 -0.0984
   56MOL    C5439764   7.231   3.885   0.723  0.5197 -0.2667 -0.5499
   56MOL    C5539765   7.128   3.981   0.718 -0.9497 -0.4615  0.3044
   56MOL    H5639766   6.960   3.843   0.454  0.2988 -0.2589 -0.5613
   56MOL    H5739767   7.104   3.659   0.507 -0.5350  0.3966 -1.2319
   56MOL    H5839768   7.256   3.578   0.503  0.3347  1.9703 -0.5741
   56MOL    H5939769   7.511   3.564   0.534 -0.1317  1.1806  0.4457
   56MOL    H6039770   7.467   3.414   0.635  4.0755  1.1043 -0.3121
   56MOL    H6139771   7.356   3.338   0.438 -1.1111  1.7359 -0.4213
   56MOL    H6239772   7.520   3.352   0.397 -0.2125 -0.3110  0.7293
   56MOL    H6339773   7.344   3.596   0.330  1.8973  1.1217 -1.0002
   56MOL    H6439774   7.495   3.547   0.262 -0.7290  0.0160 -1.0588
   56MOL    H6539775   7.252   3.393   0.194  1.4161 -1.1376  2.0789
   56MOL    H6639776   7.421   3.369   0.141  1.3854  1.8651 -1.2084
   56MOL    H6739777   7.287   3.472   7.860 -1.6174 -1.7307  0.9058
   56MOL    H6839778   7.376   3.618   0.030 -1.4832 -0.2102 -2.1608
   56MOL    H6939779   7.101   3.535   0.136 -0.4135  0.8171  0.7135
   56MOL    H7039780   7.193   3.657   0.188 -0.4119 -2.2393  1.1633
   56MOL    H7139781   7.187   3.718   7.796  0.6954  1.5661  0.7617
   56MOL    H7239782   7.316   3.915   0.782  0.2175  2.2255 -1.3247
   56MOL    H7339783   7.143   4.076   0.767 -2.4671 -0.1877  0.2523
   56MOL    C7439784   7.055   3.810   0.021 -0.8804  0.2459 -0.1753
   56MOL    O7539785   7.001   3.832   0.128  0.5321 -0.4037 -0.1244
   56MOL    C7639786   7.042   3.903   7.796 -0.0555  0.0508 -0.3673
   56MOL    C7739787   7.033   4.044   7.813 -0.2604 -0.0554 -0.1514
   56MOL    C7839788   7.025   4.124   7.696 -0.1220  0.1449 -0.0391
   56MOL    C7939789   7.026   4.071   7.567  0.1155  0.1082 -0.5694
   56MOL    C8039790   7.035   4.167   7.451  0.6325 -0.5705  0.1098
   56MOL    O8139791   7.046   4.287   7.473  0.3333  0.0021  0.3309
   56MOL    N8239792   7.028   4.117   7.329  0.2702 -0.1111  0.0331
   56MOL    C8339793   7.022   4.190   7.200  0.7820  0.0285 -0.2335
   56MOL    C8439794   6.874   4.227   7.169  0.0708  0.4013 -0.9415
   56MOL    C8539795   6.804   4.104   7.104  0.6925  0.4844 -0.5435
   56MOL    C8639796   6.816   4.109   6.950  0.6108 -0.5620  0.0342
   56MOL    C8739797   6.733   3.992   6.888  0.4604  0.6484 -0.5682
   56MOL    C8839798   6.776   3.850   6.922  0.1150  0.2173 -0.2181
   56MOL    N8939799   6.669   3.765   6.868 -0.4827 -0.0886  0.0579
   56MOL    C9039800   7.019   3.933   7.550  0.6192  0.2253 -0.2606
   56MOL    C9139801   7.033   3.852   7.661 -0.4538 -0.1784  1.3218
   56MOL    H9239802   7.032   4.093   0.024  0.5298  0.6808 -0.5096
   56MOL    H9339803   7.036   4.228   7.723  0.0957  0.5510 -1.6535
   56MOL    H9439804   7.028   4.016   7.324  1.2713 -0.1928  1.5357
   56MOL    H9539805   7.089   4.275   7.207  0.1281  0.3512  2.9050
   56MOL    H9639806   7.059   4.117   7.128 -3.9389 -0.1160 -2.7452
   56MOL    H9739807   6.882   4.315   7.105  1.4667  2.8040  2.3753
   56MOL    H9839808   6.823   4.258   7.261  0.2916 -0.2045 -0.6158
   56MOL    H9939809   6.851   4.013   7.141 -0.3475  0.1262 -0.0790
   56MOL   H10039810   6.699   4.114   7.134  1.1420 -2.2363  2.2914
   56MOL   H10139811   6.918   4.076   6.930  0.8555 -0.9584  1.8104
   56MOL   H10239812   6.814   4.202   6.894  3.7202 -1.1059 -1.1311
   56MOL   H10339813   6.729   4.004   6.779  2.0849  1.4375 -0.5672
   56MOL   H10439814   6.630   4.010   6.916  0.6861  0.0136  0.7075
   56MOL   H10539815   6.877   3.828   6.887  0.1455 -0.8466  0.5099
   56MOL   H10639816   6.778   3.845   7.031  0.4636  1.0025 -0.1819
   56MOL   H10739817   6.609   3.799   6.793  1.4218  1.8051 -0.6548
   56MOL   H10839818   7.018   3.895   7.449 -0.2929  0.7751 -0.4697
   56MOL   H10939819   7.033   3.745   7.651  0.8803 -0.0908  0.2268
   56MOL   C11039820   6.643   3.642   6.918 -0.3466 -0.5396  0.2576
   56MOL   O11139821   6.704   3.598   7.020  0.1060 -0.4968 -0.2182
   56MOL   C11239822   6.538   3.563   6.849  0.0545 -0.1473  0.0153
   56MOL   C11339823   6.524   3.563   6.709  0.1412  0.3529  0.1441
   56MOL   C11439824   6.416   3.500   6.655  0.6266 -0.6829 -0.5336
   56MOL   C11539825   6.324   3.427   6.725  0.3242 -0.3644  0.5336
   56MOL   C11639826   6.201   3.378   6.654 -0.4963  0.1015 -0.1262
   56MOL   O11739827   6.162   3.433   6.553 -0.2814 -0.7033 -0.3681
   56MOL   N11839828   6.147   3.263   6.693  0.5795 -0.1180 -0.1859
   56MOL   C11939829   6.037   3.192   6.636 -0.4506 -0.2986 -0.4561
   56MOL   C12039830   5.940   3.138   6.743  0.6885 -0.0945 -0.4713
   56MOL   C12139831   5.924   3.235   6.865 -0.0968  0.1953 -0.0591
   56MOL   C12239832   5.807   3.207   6.960 -0.1348  0.6363 -0.5591
   56MOL   C12339833   5.833   3.086   7.045 -0.0732 -0.1402 -0.2908
   56MOL   C12439834   5.715   3.048   7.131  0.3769  0.3410  0.8722
   56MOL   N12539835   5.690   3.141   7.239 -0.6719 -0.5316  0.3023
   56MOL   C12639836   6.341   3.411   6.863 -0.1205 -0.8454  0.2179
   56MOL   C12739837   6.448   3.486   6.926  0.5775  0.6873 -0.1067
   56MOL   H12839838   6.593   3.617   6.646 -2.6736 -0.9385 -4.2293
   56MOL   H12939839   6.402   3.502   6.547 -0.6091 -1.4218 -0.3989
   56MOL   H13039840   6.203   3.221   6.766 -0.1852 -0.4421  0.2196
   56MOL   H13139841   5.976   3.257   6.573 -0.8244  2.4317  2.5974
   56MOL   H13239842   6.072   3.113   6.569  0.2741  1.0211 -1.6809
   56MOL   H13339843   5.986   3.057   6.799  0.2465  0.1094  0.1856
   56MOL   H13439844   5.852   3.095   6.696  0.2142  0.6330 -0.2641
   56MOL   H13539845   6.014   3.242   6.926 -0.7326 -4.0907  1.6106
   56MOL   H13639846   5.899   3.329   6.816  0.8207 -0.0384 -0.9959
   56MOL   H13739847   5.710   3.199   6.911 -1.2953 -1.1221  1.9163
   56MOL   H13839848   5.794   3.294   7.026  3.1230  1.5076 -0.9498
   56MOL   H13939849   5.918   3.105   7.112 -1.3692  1.4781  0.9512
   56MOL   H14039850   5.863   2.996   6.992 -2.1954 -0.0431 -1.7072
   56MOL   H14139851   5.639   3.041   7.054  0.8890  1.3190  0.2758
   56MOL   H14239852   5.714   2.949   7.177  0.3946  0.2673  0.7146
   56MOL   H14339853   5.618   3.212   7.232  1.0590  1.3310  0.7035
   56MOL   H14439854   6.278   3.350   6.925  0.0082  1.2439  2.4764
   56MOL   H14539855   6.466   3.478   7.032  1.7129  1.8120 -0.2012
   56MOL   C14639856   5.774   3.147   7.349 -0.3363 -1.0008  0.0663
   56MOL   O14739857   5.859   3.062   7.379  0.4671  0.9324 -0.3888
   56MOL   C14839858   5.758   3.263   7.443  0.7043  0.2095 -0.0557
   56MOL   C14939859   5.663   3.264   7.554  0.1974  0.0668  0.8899
   56MOL   C15039860   5.670   3.366   7.648 -0.8163 -0.8376 -0.0752
   56MOL   C15139861   5.764   3.471   7.639  0.9791  0.6086  0.4353
   56MOL   C15239862   5.763   3.584   7.743 -0.5621 -0.0763 -0.0218
   56MOL   O15339863   5.683   3.593   7.831 -0.2347 -0.2543  0.6057
   56MOL   N15439864   5.866   3.676   7.732 -0.5114  0.4913 -0.6613
   56MOL   C15539865   5.916   3.761   7.842  0.1682 -0.3982  0.6802
   56MOL   C15639866   6.009   3.687   0.055  0.4549 -0.0500 -0.1374
   56MOL   C15739867   6.139   3.639   7.885 -0.2268  0.1561 -0.6303
   56MOL   C15839868   6.214   3.523   0.077 -0.5148 -1.1518  0.1070
   56MOL   C15939869   6.370   3.530   0.084 -0.2655  0.1724  0.0760
   56MOL   C16039870   6.443   3.507   7.831  0.7077  0.1874 -0.6955
   56MOL   N16139871   6.588   3.492   7.848 -0.3201 -0.5683  0.3505
   56MOL   C16239872   5.848   3.477   7.527 -0.0494 -0.6474  1.0570
   56MOL   C16339873   5.849   3.369   7.431 -0.5888  0.2442  0.1190
   56MOL   H16439874   5.597   3.178   7.560  1.3487 -0.8493  0.7092
   56MOL   H16539875   5.605   3.360   7.734  0.1457 -0.5727  0.6833
   56MOL   H16639876   5.924   3.650   7.653 -1.7019  2.8198 -2.3632
   56MOL   H16739877   5.974   3.846   7.806  0.8495 -0.6871  1.0939
   56MOL   H16839878   5.830   3.800   0.011 -0.8871 -3.9833  1.7119
   56MOL   H16939879   5.967   3.592   0.088  1.0040 -0.3350 -0.2657
   56MOL   H17039880   6.027   3.737   0.150 -1.7193 -0.2622  0.4179
   56MOL   H17139881   6.133   3.608   7.780 -0.4897 -1.5847 -0.1247
   56MOL   H17239882   6.214   3.718   7.881 -0.9856  1.0692  2.4525
   56MOL   H17339883   6.179   3.432   0.028 -1.9514 -1.1173  1.0485
   56MOL   H17439884   6.185   3.506   0.180  0.0534 -1.7070  0.1781
   56MOL   H17539885   6.389   3.452   0.157 -1.3379 -0.4330 -0.2792
   56MOL   H17639886   6.389   3.622   0.139  2.5435 -1.6588  2.3241
   56MOL   H17739887   6.404   3.425   7.772 -0.3155  0.1846 -0.0185
   56MOL   H17839888   6.428   3.599   7.775  2.1189  1.2933  0.6795
   56MOL   H17939889   6.618   3.443   0.045 -0.4509  0.6632  1.1372
   56MOL   H18039890   5.918   3.557   7.507 -0.6999 -0.0277  1.2372
   56MOL   H18139891   5.922   3.377   7.352 -1.3683  0.1534 -0.6114
   56MOL   C18239892   6.681   3.515   7.753  0.1550 -0.0099  0.2669
   56MOL   O18339893   6.667   3.591   7.655  0.4646  0.2691 -0.0893
   56MOL   C18439894   6.814   3.447   7.773 -0.9686  0.4039  0.6681
   56MOL   C18539895   6.918   3.488   7.689 -0.1843 -0.0145  0.9596
   56MOL   C18639896   7.047   3.430   7.689  1.1515  0.3150 -0.0185
   56MOL   C18739897   7.062   3.313   7.770 -0.5344 -0.3517  0.3029
   56MOL   C18839898   7.193   3.239   7.758 -0.3809  0.1097 -0.0766
   56MOL   O18939899   7.273   3.272   7.672  0.5554  0.6836  0.3366
   56MOL   N19039900   7.211   3.137   7.841  0.0558 -0.3145 -0.3654
   56MOL   C19139901   7.309   3.024   7.827  0.0075 -0.7940  0.1381
   56MOL   C19239902   7.369   2.982   0.077 -0.0593 -0.9154  0.0908
   56MOL   C19339903   7.477   2.874   0.076 -0.3212 -0.0329 -0.2710
   56MOL   C19439904   7.543   2.856   0.215 -0.7772  0.0920 -0.2197
   56MOL   C19539905   7.591   2.713   0.254  0.6722 -0.6600  0.5178
   56MOL   C19639906   7.702   2.651   0.173 -0.0162 -0.2661  0.8784
   56MOL   N19739907   7.821   2.733   0.168  0.3756  0.7806  0.2027
   56MOL   C19839908   6.962   3.279   7.863  0.1161  0.3983 -0.1873
   56MOL   C19939909   6.832   3.343   7.857 -0.5036  0.4695  0.7016
   56MOL   H20039910   6.892   3.572   7.625  2.8211  0.1113 -0.1750
   56MOL   H20139911   7.127   3.476   7.632  0.1618  1.7708 -0.2668
   56MOL   H20239912   7.135   3.117   0.019  1.2292 -2.3237  0.4555
   56MOL   H20339913   7.266   2.933   7.785 -2.1056  0.2436 -0.0565
   56MOL   H20439914   7.391   3.060   7.765  0.5316 -1.2584  0.5626
   56MOL   H20539915   7.287   2.953   0.143  0.7919 -0.6689  1.2653
   56MOL   H20639916   7.419   3.068   0.122 -0.1796 -0.2829 -0.9809
   56MOL   H20739917   7.441   2.777   0.041  1.2983 -1.6150  2.3176
   56MOL   H20839918   7.553   2.906   0.005 -1.8293 -0.6523 -2.2135
   56MOL   H20939919   7.459   2.877   0.281  0.7542  0.4024  1.6420
   56MOL   H21039920   7.621   2.931   0.228 -0.9241  0.2437 -0.2189
   56MOL   H21139921   7.504   2.648   0.247 -1.2278  1.9450 -0.7923
   56MOL   H21239922   7.620   2.708   0.359 -0.0895  0.6906  0.8098
   56MOL   H21339923   7.721   2.554   0.218 -0.3752 -1.0143 -0.5575
   56MOL   H21439924   7.665   2.632   0.072  0.1241  0.2875  0.7220
   56MOL   H21539925   7.815   2.806   0.099 -0.2553  0.7472  0.2130
   56MOL   H21639926   6.981   3.199   0.047  2.3735 -2.6402 -3.9993
   56MOL   H21739927   6.759   3.316   0.046 -0.2786 -1.8324  0.1218
   56MOL   C21839928   0.039   2.723   0.247 -0.8150 -0.3927 -0.5174
   56MOL   O21939929   0.044   2.635   0.336  0.4393 -0.1193 -0.5996
   56MOL   C22039930   0.135   2.832   0.237  0.2940 -0.6865  0.0101
   56MOL   C22139931   0.193   2.889   0.360 -0.3389 -0.3785  0.4940
   56MOL   C22239932   0.284   2.999   0.352  0.7199 -0.0798  0.0433
   56MOL   C22339933   0.316   3.054   0.224  0.6720 -0.8257  0.0850
   56MOL   C22439934   0.379   3.191   0.212 -0.0237  0.1838 -0.2971
   56MOL   O22539935   0.328   3.270   0.138  0.0840  0.2783 -0.1780
   56MOL   N22639936   0.481   3.202   0.290 -0.0922 -0.1958 -0.1605
   56MOL   C22739937   0.573   3.319   0.292 -0.3800  0.2860  0.0306
   56MOL   C22839938   0.718   3.260   0.326 -0.7847  0.7514  0.3459
   56MOL   C22939939   0.771   3.166   0.218 -0.1774  0.5452  0.2481
   56MOL   C23039940   0.843   3.239   0.100 -0.2662  0.2640 -0.2144
   56MOL   C23139941   0.890   3.139   7.884  0.0529  0.2467 -0.7616
   56MOL   C23239942   0.977   3.201   7.775  0.2135 -0.8745  0.3245
   56MOL   N23339943   0.996   3.100   7.680 -0.0197  0.1635  0.9549
   56MOL   C23439944   0.264   2.994   0.104  0.1138 -0.3539 -0.2879
   56MOL   C23539945   0.177   2.880   0.115 -0.1080 -1.1813 -0.4516
   56MOL   H23639946   0.167   2.856   0.460  1.3934  0.1279  1.1394
   56MOL   H23739947   0.311   3.049   0.445 -0.0285 -0.0641  0.2561
   56MOL   H23839948   0.504   3.121   0.345 -1.6435 -0.4736  0.1059
   56MOL   H23939949   0.568   3.380   0.202  0.3775  0.6716  0.2504
   56MOL   H24039950   0.539   3.388   0.369 -1.7890 -1.8976  1.4348
   56MOL   H24139951   0.712   3.213   0.424  1.7000  1.1863  0.7230
   56MOL   H24239952   0.786   3.344   0.339 -0.0849  0.5615 -1.8808
   56MOL   H24339953   0.843   3.100   0.267  0.0584 -0.0017 -0.8186
   56MOL   H24439954   0.694   3.101   0.174  0.2655 -0.6285  1.1758
   56MOL   H24539955   0.929   3.289   0.145 -0.6902  0.1458  0.7245
   56MOL   H24639956   0.771   3.310   0.059 -0.3966 -0.4314 -1.2172
   56MOL   H24739957   0.799   3.094   7.844 -1.1113  0.3044  1.7577
   56MOL   H24839958   0.941   3.049   0.034 -0.7652 -0.0223 -0.2625
   56MOL   H24939959   0.927   3.282   7.721  2.3222  1.6632  2.0597
   56MOL   H25039960   1.073   3.246   7.800 -0.5783 -0.4055  2.6632
   56MOL   H25139961   1.008   3.007   7.719  1.0296 -0.5558 -1.0342
   56MOL   H25239962   0.289   3.038   0.008  0.0285  0.8375  0.2215
   56MOL   H25339963   0.161   2.829   0.021  0.6541 -0.6817 -0.8616
   56MOL   C25439964   1.018   3.123   7.550 -0.1407  0.4204  0.5492
   56MOL   O25539965   0.992   3.232   7.497 -0.1345  0.6992  0.1244
   56MOL   C25639966   1.070   3.015   7.458 -0.6539  0.4026 -0.5809
   56MOL   C25739967   1.178   2.932   7.495 -0.3317  0.1341  0.3804
   56MOL   C25839968   1.225   2.836   7.410  0.9764 -0.3649 -0.0314
   56MOL   C25939969   1.163   2.818   7.281  0.3014 -0.8151 -0.2737
   56MOL   C26039970   1.214   2.707   7.192  0.4581 -0.7115  0.1418
   56MOL   O26139971   1.228   2.730   7.073 -0.5812 -0.0927 -0.6239
   56MOL   N26239972   1.244   2.591   7.257 -0.0400 -0.0165 -0.0041
   56MOL   C26339973   1.284   2.465   7.201  0.1752 -0.6065  0.4306
   56MOL   C26439974   1.221   2.358   7.272  0.0545  0.1503 -0.6054
   56MOL   C26539975   1.239   2.230   7.198 -0.0142  0.6005  0.7625
   56MOL   C26639976   1.161   2.103   7.250 -0.5881  0.2063 -0.9800
   56MOL   C26739977   1.248   2.003   7.333 -0.2678  0.3678  0.3119
   56MOL   C26839978   1.160   1.880   7.368  0.7862 -0.4251  0.3223
   56MOL   N26939979   1.225   1.799   7.469 -1.2164  0.5681 -0.1705
   56MOL   C27039980   1.046   2.889   7.249 -0.2113  0.2237  0.7994
   56MOL   C27139981   1.007   2.994   7.333 -0.6011 -0.2250  0.4053
   56MOL   H27239982   1.225   2.939   7.592  2.5491 -0.4196 -0.9416
   56MOL   H27339983   1.306   2.770   7.439  2.7613  1.7570 -0.0351
   56MOL   H27439984   1.223   2.590   7.355  0.4707  0.2605  0.1113
   56MOL   H27539985   1.265   2.454   7.094  1.5698 -1.0157  0.2130
   56MOL   H27639986   1.392   2.464   7.215  0.2724 -2.2527 -0.2565
   56MOL   H27739987   1.113   2.365   7.265 -0.1805 -2.5261 -0.3357
   56MOL   H27839988   1.257   2.352   7.374 -1.9223 -0.9736  0.0572
   56MOL   H27939989   1.200   2.235   7.097  2.7735  1.3208 -0.3283
   56MOL   H28039990   1.344   2.203   7.186  0.2919  1.9715  0.2358
   56MOL   H28139991   1.122   2.054   7.161 -0.9391 -1.8233  0.2477
   56MOL   H28239992   1.068   2.126   7.302  0.3828  1.4157  0.2734
   56MOL   H28339993   1.276   2.060   7.421 -0.8384  0.0163  0.7293
   56MOL   H28439994   1.339   1.976   7.279 -2.2412 -1.7793 -2.0775
   56MOL   H28539995   1.068   1.912   7.416  1.2963  0.6993  0.5673
   56MOL   H28639996   1.133   1.834   7.273 -0.1683  1.8735 -0.5613
   56MOL   H28739997   1.288   1.850   7.528  1.0716 -0.9803 -1.1850
   56MOL   H28839998   0.997   2.884   7.153 -3.2064  2.8227  2.1145
   56MOL   H28939999   0.926   3.054   7.295  1.6751  0.2898 -3.9480
   56MOL   C29040000   1.185   1.674   7.486 -0.3922 -0.2788 -0.4348
   56MOL   O29140001   1.098   1.620   7.426  0.7897  0.2514 -0.8799
   56MOL   C29240002   1.269   1.594   7.582  0.1505  0.5378 -0.3148
   56MOL   C29340003   1.349   1.661   7.680 -0.3073  0.7979  0.2707
   56MOL   C29440004   1.447   1.582   7.745  1.1458  0.1232 -0.1386
   56MOL   C29540005   1.467   1.453   7.710 -0.4034  0.4095 -0.2597
   56MOL   C29640006   1.587   1.383   7.777 -0.2786 -0.6584 -0.0281
   56MOL   O29740007   1.644   1.425   7.882 -0.3006 -0.4287 -0.1087
   56MOL   N29840008   1.625   1.268   7.723 -0.3230  0.0112 -0.0936
   56MOL   C29940009   1.719   1.177   7.785 -0.5425  0.6198 -0.8106
   56MOL   C30040010   1.653   1.106   0.015  0.7018 -0.5048 -0.4490
   56MOL   C30140011   1.702   0.964   0.060  0.3367  0.2386  0.0342
   56MOL   C30240012   1.610   0.894   0.163  0.4718  0.7735 -0.6952
   56MOL   C30340013   1.680   0.771   0.222 -0.4046  0.0422  0.5014
   56MOL   C30440014   1.578   0.694   0.318 -0.6064 -0.0503  0.1434
   56MOL   N30540015   1.546   0.771   0.434 -0.0630  0.1768 -0.3532
   56MOL   C30640016   1.385   1.385   7.621 -0.2550  0.2273  0.3964
   56MOL   C30740017   1.277   1.458   7.564  0.1911  0.1687 -0.1677
   56MOL   H30840018   1.340   1.764   7.711  1.3239  1.1263 -0.2601
   56MOL   H30940019   1.502   1.636   7.820  0.2148  2.8100 -1.3412
   56MOL   H31040020   1.591   1.255   7.629 -1.1033  0.0360  0.1803
   56MOL   H31140021   1.742   1.100   7.711 -0.8854 -1.0644  0.7785
   56MOL   H31240022   1.813   1.224   7.814 -0.7603 -0.1298  1.2118
   56MOL   H31340023   1.544   1.109   0.009  0.7743 -1.3313 -2.3859
   56MOL   H31440024   1.657   1.166   0.106 -1.9431 -0.8911 -0.0255
   56MOL   H31540025   1.706   0.909   7.852  4.3082  0.9994 -0.3582
   56MOL   H31640026   1.801   0.952   0.105 -0.4402 -4.8445  0.6792
   56MOL   H31740027   1.525   0.851   0.109  0.0232  2.1045 -1.0667
   56MOL   H31840028   1.571   0.961   0.239 -0.4095 -0.2745 -0.2062
   56MOL   H31940029   1.761   0.796   0.291  3.0139 -1.1573 -2.8984
   56MOL   H32040030   1.718   0.702   0.146  0.0120  0.3519  0.4317
   56MOL   H32140031   1.484   0.656   0.276 -1.6683  1.0172  1.5132
   56MOL   H32240032   1.638   0.610   0.354  1.8749  1.2813 -0.7883
   56MOL   H32340033   1.614   0.843   0.450  1.7059 -1.2809 -1.0598
   56MOL   H32440034   1.411   1.284   7.593  1.3145  1.0127 -1.1509
   56MOL   H32540035   1.225   1.408   7.484  0.2765 -1.1587  0.5747
   56MOL   C32640036   1.463   0.740   0.528 -0.1348 -0.0659 -0.1494
   56MOL   O32740037   1.397   0.639   0.527  0.0738  0.3504  0.1357
   56MOL   C32840038   1.450   0.840   0.642 -0.0127  0.2868 -0.3477
   56MOL   C32940039   1.381   0.807   0.764  0.2084 -0.0288 -0.1000
   56MOL   C33040040   1.390   0.901   0.869  0.2821 -0.2007 -0.1926
   56MOL   C33140041   1.448   1.029   0.852 -0.8010 -0.4576 -0.0808
   56MOL   C33240042   1.442   1.136   0.955 -0.2415 -1.3057 -0.4020
   56MOL   O33340043   1.472   1.109   1.068  0.5175  0.6128 -0.3360
   56MOL   N33440044   1.391   1.251   0.916 -0.5466 -0.2583  0.2007
   56MOL   C33540045   1.365   1.359   1.004 -0.5390 -0.2565  1.1012
   56MOL   C33640046   1.347   1.493   0.925  0.1201  0.0277  0.3742
   56MOL   C33740047   1.226   1.490   0.826 -0.2778  0.1539  0.4195
   56MOL   C33840048   1.218   1.610   0.743  0.5168  0.3887  0.8141
   56MOL   C33940049   1.110   1.606   0.632 -0.2537  0.0316 -0.0523
   56MOL   C34040050   1.097   1.735   0.546 -0.1655  0.2104  0.6659
   56MOL   N34140051   0.974   1.730   0.475  0.0439  0.4988  0.3307
   56MOL   C34240052   1.504   1.058   0.730  0.8180 -0.2428  0.4083
   56MOL   C34340053   1.508   0.963   0.627 -0.0550 -0.3249  0.1339
   56MOL   H34440054   1.355   0.704   0.782 -0.0379  0.1163  0.3738
   56MOL   H34540055   1.352   0.877   0.968 -0.7080 -2.4310 -1.0787
   56MOL   H34640056   1.378   1.268   0.818 -0.2273 -2.4476 -0.2437
   56MOL   H34740057   1.274   1.340   1.061 -2.4930  1.9283 -1.1698
   56MOL   H34840058   1.442   1.365   1.081  1.2880  1.7296 -0.7966
   56MOL   H34940059   1.438   1.516   0.870 -1.1832  0.3322 -1.6840
   56MOL   H35040060   1.332   1.576   0.994 -0.2328 -0.0497  0.3934
   56MOL   H35140061   1.243   1.401   0.764  0.2063  1.9702 -2.1340
   56MOL   H35240062   1.135   1.467   0.882  0.0766 -0.4285  0.7578
   56MOL   H35340063   1.309   1.638   0.690  0.8894  0.6986  1.6100
   56MOL   H35440064   1.187   1.690   0.810 -0.3963 -0.1206  1.0171
   56MOL   H35540065   1.018   1.593   0.689  0.4784  1.9150  1.6277
   56MOL   H35640066   1.116   1.524   0.561 -0.5691 -0.2100  0.2033
   56MOL   H35740067   1.102   1.826   0.605 -2.2323  0.5862  0.3155
   56MOL   H35840068   1.179   1.743   0.475  0.3966 -1.0525  1.1714
   56MOL   H35940069   0.909   1.666   0.518  0.5471  0.3514  0.8789
   56MOL   H36040070   1.550   1.153   0.703 -1.3188  0.5310 -0.6359
   56MOL   H36140071   1.571   0.983   0.542  1.7257  0.7193  1.6776
   56MOL   C36240072   0.948   1.807   0.370  0.2202  0.0357 -0.1436
   56MOL   O36340073   1.024   1.875   0.300  0.1489  0.3351  0.4340
   56MOL   C36440074   0.799   1.787   0.335  0.1683 -0.2961  0.9337
   56MOL   C36540075   0.697   1.770   0.436 -0.0709 -0.4377  0.2820
   56MOL   C36640076   0.562   1.741   0.404 -0.9590 -0.3712 -0.6258
   56MOL   C36740077   0.527   1.741   0.267 -0.2078  0.3520 -0.7411
   56MOL   C36840078   0.384   1.731   0.228  0.0586 -0.3428 -0.1384
   56MOL   O36940079   0.304   1.819   0.260  0.1281  0.5887  0.2368
   56MOL   N37040080   0.359   1.617   0.163 -0.2218  0.0429 -0.2789
   56MOL   C37140081   0.245   1.596   0.082 -0.1217  0.1815  0.6190
   56MOL   C37240082   0.286   1.545   7.834  0.1412 -0.0978 -0.2116
   56MOL   C37340083   0.175   1.479   7.753  0.7735 -0.8538  0.3422
   56MOL   C37440084   0.048   1.563   7.726 -0.0050  0.3301 -0.5999
   56MOL   C37540085   0.081   1.694   7.645  0.1881 -0.0905  0.0098
   56MOL   C37640086   7.827   1.759   7.615  0.1953 -0.4317  0.1518
   56MOL   N37740087   7.834   1.894   7.567 -0.4275  0.7379 -0.1826
   56MOL   C37840088   0.627   1.764   0.170 -0.0923  0.3826 -0.0092
   56MOL   C37940089   0.764   1.784   0.199  0.1850  0.2177 -1.1809
   56MOL   H38040090   0.720   1.777   0.541  0.4283 -1.0734  0.2187
   56MOL   H38140091   0.486   1.727   0.480  0.2924  0.5738  0.8201
   56MOL   H38240092   0.438   1.553   0.161  1.8381  2.5011 -1.2220
   56MOL   H38340093   0.165   1.539   0.130  1.4589 -1.7133  1.0603
   56MOL   H38440094   0.196   1.693   0.078  0.7310  0.5935 -0.0976
   56MOL   H38540095   0.362   1.467   7.840  0.6225  0.4987  2.0094
   56MOL   H38640096   0.332   1.626   7.779  1.8752 -1.9047 -1.4867
   56MOL   H38740097   0.211   1.455   7.654  1.7102  1.0059  0.2244
   56MOL   H38840098   0.137   1.392   7.809 -2.4124  0.0083 -0.3659
   56MOL   H38940099   7.885   1.577   7.823 -0.7672 -1.5512 -0.6908
   56MOL   H39040100   7.864   1.502   7.668  0.0832  1.5978 -2.0744
   56MOL   H39140101   0.129   1.677   7.549 -1.5906  0.3548 -0.9817
   56MOL   H39240102   0.141   1.753   7.715 -0.1241 -0.8173  0.8866
   56MOL   H39340103   7.778   1.691   7.545 -0.3767  1.1221 -0.9770
   56MOL   H39440104   7.753   1.757   7.695  0.6043  1.2659  0.5935
   56MOL   H39540105   0.036   1.942   7.580 -1.3248  1.9162  1.8715
   56MOL   H39640106   0.592   1.751   0.069  0.2634  3.2447 -0.5383
   56MOL   H39740107   0.841   1.797   0.125 -0.0195 -0.2788 -1.4823
   56MOL   C39840108   7.727   1.954   7.515  0.5204  0.0257 -0.3706
   56MOL   O39940109   7.628   1.892   7.485 -0.3436  0.2217 -0.2335
   56MOL   C40040110   7.746   2.094   7.463  0.5681  0.1940  0.1052
   56MOL   C40140111   7.848   2.178   7.510 -0.3760 -1.1229 -0.2231
   56MOL   C40240112   7.855   2.309   7.475  0.5118  0.1553 -0.0644
   56MOL   C40340113   7.760   2.363   7.385  0.1394  0.3321  0.2077
   56MOL   C40440114   7.776   2.501   7.329  0.2006  0.5360 -0.2728
   56MOL   O40540115   7.866   2.568   7.377 -0.0537 -0.8418 -0.9123
   56MOL   N40640116   7.686   2.546   7.238  0.4872 -0.3922  0.2793
   56MOL   C40740117   7.696   2.682   7.182  0.1256 -0.0866 -0.3208
   56MOL   C40840118   7.600   2.715   7.070 -0.6246 -0.1504 -0.4599
   56MOL   C40940119   7.604   2.861   7.046 -0.3540 -0.0879 -0.4688
   56MOL   C41040120   7.498   2.909   6.949 -0.1663 -1.2518 -0.0644
   56MOL   C41140121   7.511   3.065   6.930 -0.1249  1.2376 -0.2890
   56MOL   C41240122   7.404   3.144   6.849  0.5047  0.9392  0.0532
   56MOL   N41340123   7.449   3.280   6.835 -0.4737  0.9065  0.0540
   56MOL   C41440124   7.663   2.280   7.329 -0.1318  0.4477  1.2561
   56MOL   C41540125   7.659   2.136   7.361  0.8713  0.1418  0.4675
   56MOL   H41640126   0.036   2.136   7.577  0.8142 -0.5979 -1.2096
   56MOL   H41740127   0.046   2.373   7.516  0.7382  0.0250 -0.2817
   56MOL   H41840128   7.604   2.492   7.214  0.8699 -1.4377  1.2996
   56MOL   H41940129   7.676   2.741   7.272  0.8058 -0.8628  0.3542
   56MOL   H42040130   7.795   2.713   7.149 -0.6472 -0.6823 -3.2885
   56MOL   H42140131   7.499   2.687   7.098  0.4540 -2.3925  1.3126
   56MOL   H42240132   7.630   2.675   6.973 -0.9380 -0.9584 -0.2264
   56MOL   H42340133   7.586   2.911   7.142  0.8083  2.2583 -1.4472
   56MOL   H42440134   7.699   2.896   7.006 -0.4601  3.0130  1.7484
   56MOL   H42540135   7.407   2.886   7.004  0.7133 -0.0844  1.9048
   56MOL   H42640136   7.509   2.863   6.851  2.9836  0.1909 -0.4455
   56MOL   H42740137   7.607   3.084   6.882  0.7126 -0.6197  0.6168
   56MOL   H42840138   7.521   3.110   7.029  3.4325  0.7710 -0.3424
   56MOL   H42940139   7.405   3.105   6.747  2.2578  3.6772 -1.0529
   56MOL   H43040140   7.312   3.123   6.902  1.8988 -0.9121  1.8129
   56MOL   H43140141   7.503   3.299   6.752 -0.1919 -1.1749 -0.2639
   56MOL   H43240142   7.596   2.311   7.250  1.7223 -0.6158 -0.7936
   56MOL   H43340143   7.571   2.078   7.338  1.0289  0.6838 -1.6193
   56MOL   C43440144   7.433   3.379   6.922 -0.1911 -0.0254 -0.7570
   56MOL   O43540145   7.377   3.363   7.031 -0.4626  0.1366  0.3504
   56MOL   C43640146   7.520   3.498   6.890 -0.0095  0.8553  0.4725
   56MOL   C43740147   7.583   3.567   6.996 -0.3318 -0.0544  0.3789
   56MOL   C43840148   7.668   3.670   6.968 -0.0095  0.6511 -0.4003
   56MOL   C43940149   7.690   3.719   6.838 -0.3788  0.3140  0.0990
   56MOL   C44040150   7.790   3.829   6.813 -0.5325  0.5115  0.5138
   56MOL   O44140151   7.814   3.910   6.899 -1.0799 -0.0735 -0.1376
   56MOL   N44240152   7.837   3.835   6.687  0.2775  0.3883 -0.0031
   56MOL   C44340153   0.046   3.937   6.631  0.6108  0.2956  0.3849
   56MOL   C44440154   0.167   3.969   6.719  0.3345 -0.1853 -0.1637
   56MOL   C44540155   0.244   3.849   6.771  0.1956 -0.3031  0.4103
   56MOL   C44640156   0.364   3.908   6.844 -0.2259  0.2085  0.1767
   56MOL   C44740157   0.478   3.810   6.880 -0.1354 -0.1221 -0.6417
   56MOL   C44840158   0.564   3.843   7.004  0.1733  0.0869 -0.1629
   56MOL   N44940159   0.593   3.987   7.009 -1.0896  0.4348  0.4701
   56MOL   C45040160   7.623   3.656   6.732 -0.7173  0.2453 -0.7945
   56MOL   C45140161   7.541   3.545   6.757  0.5056  0.3755 -0.4660
   56MOL   H45240162   7.574   3.533   7.098 -1.5869  2.9450  1.3278
   56MOL   H45340163   7.722   3.711   7.052 -2.4983 -0.0863  1.6087
   56MOL   H45440164   7.805   3.773   6.613 -0.2940 -1.9612  2.1396
   56MOL   H45540165   0.081   3.890   6.539 -1.0351 -1.0675  0.4331
   56MOL   H45640166   7.873   4.025   6.604 -0.7730 -0.9152 -0.6648
   56MOL   H45740167   0.138   4.034   6.801 -1.6824 -0.8125 -0.3531
   56MOL   H45840168   0.229   4.034   6.658 -0.1746  0.4835  0.0356
   56MOL   H45940169   0.183   3.791   6.840 -1.6985  0.5480 -0.5304
   56MOL   H46040170   0.276   3.790   6.684 -0.2803 -0.8434  0.5991
   56MOL   H46140171   0.330   3.946   6.940  1.3576  0.2521  0.7374
   56MOL   H46240172   0.404   3.993   6.790 -0.4787 -0.7796 -1.6047
   56MOL   H46340173   0.543   3.801   6.793  0.8042 -1.4083  0.1784
   56MOL   H46440174   0.444   3.707   6.883  0.6633 -0.4439 -1.9940
   56MOL   H46540175   0.511   3.804   7.091 -1.9849 -0.1895 -1.5488
   56MOL   H46640176   0.658   3.789   7.012 -1.1977 -2.6253 -1.3825
   56MOL   H46740177   0.677   4.010   6.959 -0.0158 -0.6145  1.7472
   56MOL   H46840178   7.641   3.689   6.631 -1.6867 -0.1451 -1.0986
   56MOL   H46940179   7.486   3.515   6.669  1.4931  0.5101 -1.1438
   56MOL   C47040180   0.549   4.081   7.095 -0.2780 -0.1424  0.5882
   56MOL   O47140181   0.453   4.058   7.169 -0.3055 -0.0245  0.0505
   56MOL   C47240182   0.626   4.213   7.102  0.4831 -0.1344 -0.8517
   56MOL   C47340183   0.675   4.274   6.983  0.2649  0.0974 -0.0285
   56MOL   C47440184   0.753   4.393   6.989  0.8710  0.5046 -0.1023
   56MOL   C47540185   0.784   4.451   7.115 -0.3834  0.1016  0.0391
   56MOL   C47640186   0.862   4.582   7.110  0.1909  0.2912  0.0297
   56MOL   O47740187   0.883   4.636   7.218  0.3144  0.0837 -0.0976
   56MOL   N47840188   0.904   4.628   6.996 -0.0014 -0.0742 -0.1848
   56MOL   C47940189   0.964   4.765   6.970  0.4710  0.3705 -0.2150
   56MOL   C48040190   0.920   4.809   6.828  0.7370  0.2588  0.5237
   56MOL   C48140191   0.774   4.817   6.804 -0.0445  0.0978 -0.0805
   56MOL   C48240192   0.731   4.882   6.670  0.3462  0.1016 -0.0667
   56MOL   C48340193   0.766   4.793   6.550  0.4542  0.3257 -0.3315
   56MOL   C48440194   0.675   4.669   6.530  0.1265  0.3849  0.5726
   56MOL   N48540195   0.550   4.715   6.486  0.4815  0.2028  0.4055
   56MOL   C48640196   0.735   4.386   7.229  0.0171 -0.4194  0.2336
   56MOL   C48740197   0.658   4.264   7.228 -0.0008 -0.8229 -0.1426
   56MOL   H48840198   0.663   4.238   6.882  0.6617  1.3416 -0.5325
   56MOL   H48940199   0.772   4.440   6.893 -0.5391 -0.4975 -0.8941
   56MOL   H49040200   0.895   4.554   6.927 -1.8485  0.9408 -1.0750
   56MOL   H49140201   0.928   4.841   7.039 -3.5408 -0.2340 -1.5144
   56MOL   H49240202   1.070   4.743   6.983  1.0904  2.1399 -1.9656
   56MOL   H49340203   0.974   4.753   6.752 -0.2742  0.6575 -0.4960
   56MOL   H49440204   0.965   4.905   6.801  0.9537 -0.3036 -1.1896
   56MOL   H49540205   0.736   4.715   6.810  3.9334 -1.7305 -3.2010
   56MOL   H49640206   0.718   4.864   6.886 -2.3651 -1.0437 -0.9774
   56MOL   H49740207   0.783   4.978   6.666  2.6847 -0.8933  3.8113
   56MOL   H49840208   0.623   4.898   6.673  0.4972  0.9936  1.1361
   56MOL   H49940209   0.866   4.750   6.555  0.0095 -0.7988 -0.9003
   56MOL   H50040210   0.763   4.855   6.460 -1.5340 -0.1179 -0.5826
   56MOL   H50140211   0.716   4.602   6.454  0.7316  1.8620 -0.4127
   56MOL   H50240212   0.656   4.612   6.621 -1.4393 -1.1862 -0.6876
   56MOL   H50340213   0.511   4.800   6.523  0.1442  0.4775 -0.5641
   56MOL   H50440214   0.739   4.443   7.320 -1.9929 -3.3127  2.1983
   56MOL   H50540215   0.619   4.221   7.319  0.3153  2.1939  1.4856
   56MOL   C50640216   0.460   4.650   6.407 -0.0651 -0.4846 -0.1494
   56MOL   O50740217   0.482   4.536   6.369 -0.3905  0.0009 -0.3342
   56MOL   C50840218   0.328   4.708   6.390 -0.2796  0.0130  0.5177
   56MOL   C50940219   0.294   4.848   6.402 -0.2113 -0.2412 -0.3180
   56MOL   C51040220   0.164   4.900   6.374  0.0089  0.3166  0.3373
   56MOL   C51140221   0.055   4.805   6.350  0.2774  0.2636  0.3450
   56MOL   C51240222   7.801   4.855   6.368 -0.2378  0.1981 -0.7541
   56MOL   O51340223   7.775   4.960   6.429  0.7114  0.0675 -0.0567
   56MOL   N51440224   7.698   4.781   6.316  0.1930  0.3557 -0.1764
   56MOL   C51540225   7.557   4.818   6.323 -0.8350 -0.2267  0.5797
   56MOL   C51640226   7.479   4.756   6.439 -0.0117 -0.2856  0.2314
   56MOL   C51740227   7.462   4.605   6.428 -0.0326  0.4487  0.4762
   56MOL   C51840228   7.357   4.544   6.525  0.1739  0.0446 -0.0305
   56MOL   C51940229   7.328   4.395   6.511  0.1208 -0.1958  0.5434
   56MOL   C52040230   7.256   4.334   6.635 -0.1378 -0.2224  0.2642
   56MOL   N52140231   7.138   4.418   6.664  0.2934  0.0083 -0.3536
   56MOL   C52240232   0.089   4.672   6.329 -0.2509 -0.5436  0.0650
   56MOL   C52340233   0.221   4.627   6.348 -0.0642  0.1162 -0.2543
   56MOL   H52440234   0.373   4.919   6.421 -1.0373  1.6139 -3.3515
   56MOL   H52540235   0.150   5.006   6.390  2.0030  0.5245  0.7576
   56MOL   H52640236   7.718   4.698   6.262  0.9226  0.6960 -0.4334
   56MOL   H52740237   7.552   4.926   6.339 -2.4237 -0.0699 -0.7831
   56MOL   H52840238   7.512   4.794   6.227 -0.4196 -0.4715  0.4450
   56MOL   H52940239   7.380   4.800   6.452  0.5697  0.4885  2.1055
   56MOL   H53040240   7.529   4.779   6.533  1.1396  0.3136 -0.5175
   56MOL   H53140241   7.445   4.584   6.323 -0.0686  1.3767  0.2947
   56MOL   H53240242   7.556   4.550   6.442 -2.0382 -3.5464 -0.8282
   56MOL   H53340243   7.261   4.591   6.504 -0.7436 -1.3490  0.9937
   56MOL   H53440244   7.393   4.574   6.624  1.4984 -3.7049  0.6802
   56MOL   H53540245   7.424   4.345   6.497  0.3420  0.4361 -0.1913
   56MOL   H53640246   7.288   4.376   6.411 -1.1455  0.6350  0.8801
   56MOL   H53740247   7.230   4.232   6.607 -0.4669  0.0124 -0.2881
   56MOL   H53840248   7.316   4.327   6.725 -1.8611  0.7479  1.5358
   56MOL   H53940249   7.154   4.515   6.686  1.5814 -0.4128  0.6510
   56MOL   H54040250   0.012   4.601   6.304 -1.2671  1.9390 -4.2469
   56MOL   H54140251   0.242   4.522   6.336  1.0999  0.2977  0.1092
   56MOL   C54240252   7.013   4.362   6.666  0.1636 -0.5580  0.3873
   56MOL   O54340253   6.997   4.240   6.643  0.2180  0.3559 -0.1567
   56MOL   C54440254   6.893   4.450   6.692 -0.2874 -0.4299  0.0093
   56MOL   C54540255   6.910   4.587   6.697  0.8032 -0.4769  0.2981
   56MOL   C54640256   6.790   4.670   6.709 -0.5183  0.6413 -0.5881
   56MOL   C54740257   6.658   4.617   6.712 -0.5398  1.0908 -0.7178
   56MOL   C54840258   6.535   4.703   6.710 -1.0001  0.4194  0.0648
   56MOL   O54940259   6.437   4.663   6.653 -0.0642 -0.0977  0.0582
   56MOL   N55040260   6.535   4.821   6.773  0.0974 -0.3230  0.1007
   56MOL   C55140261   6.415   4.900   6.800  0.1430 -1.0434 -0.7332
   56MOL   C55240262   6.421   4.949   6.939 -0.0182 -0.1575 -0.6269
   56MOL   C55340263   6.288   5.022   6.966 -0.4224 -0.2115  0.3850
   56MOL   C55440264   6.274   5.095   7.092 -0.0516 -0.2704 -0.4534
   56MOL   C55540265   6.266   5.019   7.227  0.3568 -0.1349  0.7303
   56MOL   C55640266   6.133   4.944   7.251  0.6658  0.8321 -0.7231
   56MOL   N55740267   6.028   5.047   7.258 -0.8034 -0.1595 -0.6653
   56MOL   C55840268   6.645   4.475   6.712 -0.2892 -0.3525  0.1129
   56MOL   C55940269   6.764   4.398   6.710 -0.6237 -0.1481  0.1292
   56MOL   H56040270   7.004   4.639   6.689 -0.1960  1.4793  0.9470
   56MOL   H56140271   6.807   4.776   6.709  1.7183  0.3770  3.3011
   56MOL   H56240272   6.622   4.858   6.807  0.4841 -1.4800  0.4101
   56MOL   H56340273   6.418   4.984   6.731  2.3203 -2.0626 -1.9579
   56MOL   H56440274   6.322   4.845   6.792 -0.0891 -1.4368  3.5056
   56MOL   H56540275   6.505   5.016   6.956 -0.8759  0.3429  1.8339
   56MOL   H56640276   6.415   4.873   7.016 -2.3995  0.7686  0.1731
   56MOL   H56740277   6.279   5.100   6.892  0.9027  1.3500  1.8230
   56MOL   H56840278   6.203   4.956   6.949 -1.9930  2.2060 -1.3989
   56MOL   H56940279   6.181   5.150   7.079  0.3544 -0.0485 -2.5717
   56MOL   H57040280   6.348   5.174   7.089 -1.5381  1.2705  1.8516
   56MOL   H57140281   6.282   5.094   7.305 -1.0315  0.4461  0.4764
   56MOL   H57240282   6.356   4.958   7.234 -0.8950 -1.9612  1.2850
   56MOL   H57340283   6.116   4.870   7.172  0.3633 -0.7865  0.8185
   56MOL   H57440284   6.128   4.904   7.352  1.1874  1.1638 -0.5671
   56MOL   H57540285   5.971   5.057   7.176 -0.3696  1.0400 -0.8328
   56MOL   H57640286   6.547   4.431   6.708 -1.0791  1.4282 -0.3606
   56MOL   H57740287   6.757   4.291   6.709  2.9302 -0.4615  0.2868
   56MOL   C57840288   5.999   5.113   7.375 -0.2006 -0.3296  0.1893
   56MOL   O57940289   6.053   5.096   7.480 -0.5863  0.6315  0.2925
   56MOL   C58040290   5.895   5.218   7.364  0.7087 -0.5656 -1.1015
   56MOL   C58140291   5.881   5.313   7.472 -0.1679 -0.5401  0.5250
   56MOL   C58240292   5.788   5.414   7.467 -0.3184 -0.1273 -0.9148
   56MOL   C58340293   5.695   5.415   7.364 -0.1047  0.0284  0.4280
   56MOL   C58440294   5.591   5.525   7.372  0.2305 -0.4621  0.0550
   56MOL   O58540295   5.562   5.585   7.272 -0.0279 -0.3993  0.2772
   56MOL   N58640296   5.541   5.545   7.494 -0.2862  0.2095 -0.3844
   56MOL   C58740297   5.427   5.633   7.508 -0.4706  0.0852 -0.3971
   56MOL   C58840298   5.475   5.771   7.551 -0.9810 -0.8757 -0.0393
   56MOL   C58940299   5.366   5.859   7.618 -0.2260  0.1519 -0.1696
   56MOL   C59040300   5.423   5.986   7.663 -0.0901 -0.3673  0.1251
   56MOL   C59140301   5.324   6.057   7.749  0.1211 -0.0157  0.2377
   56MOL   C59240302   5.344   6.201   7.751  0.1261 -0.4431  0.8888
   56MOL   N59340303   5.220   6.270   7.798 -0.2124 -0.1067  0.5719
   56MOL   C59440304   5.696   5.326   7.254  0.7683  0.8104  0.1574
   56MOL   C59540305   5.803   5.231   7.257  0.0110  0.3015  0.4853
   56MOL   H59640306   5.936   5.312   7.565  0.5340 -1.3484  0.1033
   56MOL   H59740307   5.785   5.489   7.545 -0.9945 -0.1067 -0.9593
   56MOL   H59840308   5.572   5.495   7.576  2.9467  1.9529 -0.4275
   56MOL   H59940309   5.368   5.652   7.419 -0.4566 -0.9077 -0.6192
   56MOL   H60040310   5.359   5.605   7.589  0.3929  0.6472  0.5488
   56MOL   H60140311   5.515   5.829   7.468  0.6083 -0.4391  1.0145
   56MOL   H60240312   5.546   5.753   7.632 -1.6518  0.6643  0.9219
   56MOL   H60340313   5.280   5.865   7.552 -0.9099  2.4090  0.8847
   56MOL   H60440314   5.333   5.800   7.704 -0.5226  0.9479  0.2717
   56MOL   H60540315   5.453   6.039   7.572  1.3117 -2.9645 -0.9989
   56MOL   H60640316   5.515   5.974   7.721 -0.9933  0.5994  1.7800
   56MOL   H60740317   5.327   6.028   7.854 -0.7366 -1.6282 -0.1685
   56MOL   H60840318   5.223   6.024   7.722  0.0926 -0.5245  0.9584
   56MOL   H60940319   5.432   6.222   7.812  0.6477  0.1191 -0.0453
   56MOL   H61040320   5.356   6.231   7.647  0.2055  0.9933  1.2898
   56MOL   H61140321   5.142   6.268   7.734 -0.7760  0.1478  1.2321
   56MOL   H61240322   5.632   5.337   7.167 -0.2665  0.6514  0.8968
   56MOL   H61340323   5.808   5.163   7.173 -0.5951 -1.5429  1.9171
   56MOL   C61440324   5.212   6.340   0.025  0.2994 -0.1685  0.4454
   56MOL   O61540325   5.313   6.355   0.096  0.7185  0.3178  0.2856
   56MOL   C61640326   5.081   6.389   0.069  0.9715  0.2065  0.5161
   56MOL   C61740327   5.058   6.432   0.206  0.2337  0.2234 -0.1562
   56MOL   C61840328   4.931   6.472   0.255 -0.3009  0.6397 -0.3815
   56MOL   C61940329   4.821   6.473   0.168  0.3674  0.0171 -0.1468
   56MOL   C62040330   4.684   6.528   0.204 -0.3942 -0.0379  0.3814
   56MOL   O62140331   4.580   6.486   0.154  0.0848  0.6471  0.4325
   56MOL   N62240332   4.695   6.633   0.280 -0.1224  0.5333 -0.0075
   56MOL   C62340333   4.575   6.689   0.332 -0.2302 -0.4053  0.9240
   56MOL   C62440334   4.565   6.676   0.487  0.9825 -0.3131  0.4245
   56MOL   C62540335   4.431   6.732   0.540 -0.9163 -0.3168 -0.3519
   56MOL   C62640336   4.411   6.878   0.505 -0.0211  0.3720 -0.4169
   56MOL   C62740337   4.528   6.975   0.506 -0.2676 -0.6640  0.3959
   56MOL   C62840338   4.493   7.107   0.447 -0.3570 -0.1811  0.0338
   56MOL   N62940339   4.460   7.091   0.309  0.1522  0.2739 -0.1805
   56MOL   C63040340   4.844   6.431   0.035  0.3921 -0.2302  0.1717
   56MOL   C63140341   4.970   6.395   7.866 -0.5901 -0.1359 -0.2771
   56MOL   H63240342   5.134   6.424   0.283 -1.0681 -0.0155  1.1197
   56MOL   H63340343   4.911   6.496   0.359 -1.3355  1.3561 -0.7328
   56MOL   H63440344   4.789   6.665   0.301  0.6635 -2.3918  1.0861
   56MOL   H63540345   4.588   6.794   0.306 -0.3901 -0.3172  1.1943
   56MOL   H63640346   4.492   6.655   0.270  1.2106 -0.6903 -0.8723
   56MOL   H63740347   4.653   6.731   0.521  0.9063 -1.1177  1.9524
   56MOL   H63840348   4.581   6.572   0.518  0.5114 -1.4034 -2.7542
   56MOL   H63940349   4.348   6.666   0.516 -0.6132 -0.5684 -0.6988
   56MOL   H64040350   4.436   6.717   0.648 -1.4213  1.0368 -0.1187
   56MOL   H64140351   4.320   6.904   0.560 -1.8462 -2.1528 -2.1109
   56MOL   H64240352   4.366   6.871   0.406 -0.7541  1.9117 -0.2035
   56MOL   H64340353   4.617   6.941   0.454  0.4495 -2.7641  2.8588
   56MOL   H64440354   4.565   6.985   0.608  1.8262 -1.4392 -0.2726
   56MOL   H64540355   4.415   7.164   0.497  0.4696  2.0098 -1.1108
   56MOL   H64640356   4.583   7.168   0.450 -2.2251  2.6593 -0.4420
   56MOL   H64740357   4.529   7.116   0.240  1.4593 -1.5909  0.4127
   56MOL   H64840358   4.762   6.443   7.853 -0.0139  2.9211  1.1365
   56MOL   H64940359   4.977   6.377   7.760 -1.9918  0.0798 -0.4160
   56MOL   C65040360   4.339   7.086   0.251 -0.8645 -0.1523  0.2983
   56MOL   O65140361   4.233   7.081   0.318  0.2548  0.7872 -0.8600
   56MOL   C65240362   4.332   7.081   0.102  0.4143  0.1665  0.1400
   56MOL   C65340363   4.449   7.066   0.028 -0.8460 -0.0584  0.5927
   56MOL   C65440364   4.444   7.057   7.776  0.2695 -0.0403 -0.5036
   56MOL   C65540365   4.319   7.056   7.710 -0.0988  0.2386  0.2384
   56MOL   C65640366   4.311   7.043   7.559  0.2228  0.1898 -0.7857
   56MOL   O65740367   4.271   7.130   7.487  0.5785  0.1827 -0.5923
   56MOL   N65840368   4.350   6.928   7.507 -0.3450  0.3755 -0.0582
   56MOL   C65940369   4.349   6.884   7.365 -0.4664  0.1965 -0.2005
   56MOL   C66040370   4.476   6.926   7.289 -0.9045  0.1515  0.1697
   56MOL   C66140371   4.606   6.870   7.349  0.3333  0.5133 -0.1102
   56MOL   C66240372   4.721   6.880   7.247 -0.5436  0.4532 -0.7119
   56MOL   C66340373   4.853   6.824   7.304 -0.2656  0.3493 -0.1390
   56MOL   C66440374   4.974   6.872   7.218  0.1592 -0.1848 -0.5422
   56MOL   N66540375   5.096   6.818   7.271 -0.4646  0.4240  0.8452
   56MOL   C66640376   4.194   7.071   7.785 -0.1621  0.4225 -0.3027
   56MOL   C66740377   4.202   7.093   0.040  0.3339 -0.1614 -0.9211
   56MOL   H66840378   4.545   7.054   0.076  0.5106 -0.5855 -2.1601
   56MOL   H66940379   4.537   7.043   7.723  0.9487 -0.7098  0.8358
   56MOL   H67040380   4.360   6.854   7.575 -2.0163 -0.5321 -0.7634
   56MOL   H67140381   4.365   6.776   7.364  0.8629  0.3715  1.0010
   56MOL   H67240382   4.260   6.917   7.311 -0.5427  0.2398 -0.0473
   56MOL   H67340383   4.481   7.034   7.276  2.2580 -0.0823 -1.0082
   56MOL   H67440384   4.462   6.875   7.194 -0.8341  0.8552 -0.2261
   56MOL   H67540385   4.629   6.923   7.442  1.4758 -4.4125  2.6066
   56MOL   H67640386   4.594   6.764   7.369  1.1609  0.8026  2.1210
   56MOL   H67740387   4.732   6.984   7.216 -0.5048  0.5770 -0.2840
   56MOL   H67840388   4.696   6.838   7.149 -0.6445 -1.2465  0.0136
   56MOL   H67940389   4.852   6.716   7.297 -0.4892  0.2884  0.7378
   56MOL   H68040390   4.858   6.853   7.409 -2.9782  0.5459 -0.0273
   56MOL   H68140391   4.961   6.849   7.113 -1.4154  0.0263 -0.4119
   56MOL   H68240392   4.970   6.980   7.230  2.2513  0.0195 -1.5693
   56MOL   H68340393   5.128   6.845   7.364  2.2493  0.7763 -0.1302
   56MOL   H68440394   4.096   7.077   7.741  0.3800  1.0055 -1.4353
   56MOL   H68540395   4.110   7.101   0.097  1.3813 -0.9362  0.9022
   56MOL   C68640396   5.171   6.722   7.214  0.8008 -0.2889 -0.0914
   56MOL   O68740397   5.136   6.668   7.107  0.2044 -0.1225 -0.8680
   56MOL   C68840398   5.292   6.680   7.291 -0.3253 -0.4278  0.1005
   56MOL   C68940399   5.289   6.560   7.363 -0.2785  0.1881  0.9630
   56MOL   C69040400   5.405   6.521   7.434 -0.2369 -0.1870 -0.1878
   56MOL   C69140401   5.515   6.609   7.455 -0.6127 -0.3453  0.4844
   56MOL   C69240402   5.628   6.576   7.547  0.4715  0.2847  0.6874
   56MOL   O69340403   5.686   6.664   7.611  0.1029  0.6581 -0.1372
   56MOL   N69440404   5.657   6.448   7.550 -0.6327  0.7279 -0.1256
   56MOL   C69540405   5.778   6.398   7.620 -0.9934 -0.1336 -0.5775
   56MOL   C69640406   5.738   6.248   7.644  0.2768 -0.3318  0.0542
   56MOL   C69740407   5.855   6.164   7.703  0.3519 -0.0078 -0.0649
   56MOL   C69840408   5.829   6.008   7.676 -0.2503 -0.1025 -0.2406
   56MOL   C69940409   5.827   5.964   7.528  0.6284  0.0339 -0.2888
   56MOL   C70040410   5.842   5.810   7.503  0.7167  0.0586 -0.2637
   56MOL   N70140411   5.810   5.792   7.364  0.2223  0.9782 -0.0645
   56MOL   C70240412   5.513   6.733   7.386  0.4800 -0.5119 -0.4399
   56MOL   C70340413   5.405   6.769   7.299  0.1284  0.3268  0.6156
   56MOL   H70440414   5.203   6.495   7.364 -0.4923  0.4683  0.8720
   56MOL   H70540415   5.401   6.431   7.495  1.6175  1.0706  1.8547
   56MOL   H70640416   5.603   6.389   7.487  1.6571 -2.7791  1.0294
   56MOL   H70740417   5.867   6.400   7.558  1.7200  0.6945  3.2006
   56MOL   H70840418   5.799   6.436   7.720 -1.7870 -1.3209  0.0497
   56MOL   H70940419   5.704   6.219   7.545  2.8857 -0.3701 -0.8735
   56MOL   H71040420   5.646   6.239   7.701  0.0426  1.0220 -0.0851
   56MOL   H71140421   5.945   6.197   7.649 -0.2544 -0.0827 -1.1310
   56MOL   H71240422   5.857   6.180   7.810  2.8240  1.9017 -0.3390
   56MOL   H71340423   5.737   5.966   7.718 -0.4918  1.3461  0.7137
   56MOL   H71440424   5.912   5.952   7.720  1.6883  2.4890 -0.4859
   56MOL   H71540425   5.911   6.023   7.491  1.6773 -2.0411 -1.2557
   56MOL   H71640426   5.741   6.012   7.481  0.7225  1.4192  0.9151
   56MOL   H71740427   5.943   5.785   7.535  1.2412  1.1693 -1.0498
   56MOL   H71840428   5.767   5.749   7.555  1.2307 -0.5917 -0.2732
   56MOL   H71940429   5.848   5.705   7.329  3.1022  2.6496 -1.2659
   56MOL   H72040430   5.602   6.794   7.397  0.4768 -0.3586 -1.1955
   56MOL   H72140431   5.404   6.862   7.244  2.8370  0.4106  0.6590
   56MOL   H72240432   5.712   5.780   7.343  0.5974  1.0182 -1.9555
   57MOL     C140433   4.201   4.134   5.422 -0.1882  0.0424 -0.3220
   57MOL     O240434   4.166   4.211   5.327 -0.8200  0.4567  0.1617
   57MOL     C340435   4.148   3.999   5.441  0.4584  0.6858  0.2589
   57MOL     C440436   4.052   3.949   5.352  0.1791  0.6803  0.9142
   57MOL     C540437   4.000   3.813   5.371  0.2435  0.2804 -0.0626
   57MOL     C640438   4.056   3.732   5.471  0.4255  1.0724 -0.3868
   57MOL     C740439   4.014   3.591   5.489  0.3942  0.7210 -0.4708
   57MOL     O840440   4.052   3.527   5.588  0.3264  0.4855  0.7642
   57MOL     N940441   3.926   3.543   5.407  0.8314 -0.2262 -0.4646
   57MOL    C1040442   3.849   3.420   5.440  0.0517  0.0384 -0.3555
   57MOL    C1140443   3.703   3.467   5.467  0.4145 -0.4835 -0.5521
   57MOL    C1240444   3.612   3.345   5.496 -0.5157 -0.5357  0.2776
   57MOL    C1340445   3.636   3.295   5.643 -0.1271 -0.6347 -0.2255
   57MOL    C1440446   3.552   3.167   5.673 -0.1635  0.5080  0.0561
   57MOL    C1540447   3.582   3.109   5.813  0.2515 -0.3755 -1.1107
   57MOL    N1640448   3.474   3.016   5.849  0.2379 -0.4302 -0.0615
   57MOL    C1740449   4.149   3.789   5.565  0.0597 -0.0567 -0.4642
   57MOL    C1840450   4.190   3.922   5.551  0.4299 -0.4528  0.2155
   57MOL    H1940451   4.003   4.007   5.277  2.0895  0.7270 -0.3324
   57MOL    H2040452   3.932   3.773   5.297  1.4281  0.3818 -1.2226
   57MOL    H2140453   3.912   3.576   5.312 -0.4217 -2.8181 -1.2069
   57MOL    H2240454   3.867   3.346   5.362 -0.0003  0.9902 -1.2751
   57MOL    H2340455   3.895   3.379   5.530 -0.0612 -1.7270 -1.0681
   57MOL    H2440456   3.669   3.519   5.377 -0.1974 -0.0311 -0.0585
   57MOL    H2540457   3.695   3.530   5.556  0.8398 -0.2937 -0.6445
   57MOL    H2640458   3.508   3.377   5.487  0.0589  1.0532 -0.6931
   57MOL    H2740459   3.623   3.267   5.421 -1.6711  0.7636 -1.2647
   57MOL    H2840460   3.626   3.365   5.725  1.4937  1.9933 -2.1953
   57MOL    H2940461   3.743   3.272   5.643  0.4067  1.7400  1.7710
   57MOL    H3040462   3.582   3.083   5.609  0.1876  1.7641 -1.4565
   57MOL    H3140463   3.445   3.186   5.665 -0.5952 -0.3893  2.9576
   57MOL    H3240464   3.682   3.068   5.818  1.1612  1.8153 -0.8307
   57MOL    H3340465   3.590   3.187   5.890  0.7539  0.0427 -1.5831
   57MOL    H3440466   3.449   2.943   5.784  3.8331 -1.2503 -0.6504
   57MOL    H3540467   4.183   3.730   5.649  1.5571  0.3388 -0.7708
   57MOL    H3640468   4.263   3.964   5.617 -0.1630 -0.1625  0.6943
   57MOL    H3740469   4.268   4.165   5.502 -2.0885 -1.6647  1.9913
   57MOL    C3840470   3.426   2.993   5.972  0.2820 -0.5098  0.1946
   57MOL    O3940471   3.441   3.059   6.074 -0.5469 -0.5718  0.0465
   57MOL    C4040472   3.327   2.881   5.970  0.4842  0.1125  0.2683
   57MOL    C4140473   3.328   2.803   6.085 -0.4190 -0.7015 -0.3904
   57MOL    C4240474   3.244   2.692   6.087 -0.0011 -0.2173  0.3195
   57MOL    C4340475   3.151   2.666   5.981 -0.7340 -0.4742 -0.1758
   57MOL    C4440476   3.043   2.567   6.000  0.0142 -0.2615 -0.0468
   57MOL    O4540477   2.932   2.577   5.941 -0.1160 -0.4403 -0.3510
   57MOL    N4640478   3.066   2.459   6.083  0.5747  0.1251  0.1487
   57MOL    C4740479   2.980   2.352   6.108 -0.7724 -0.4535 -0.4835
   57MOL    C4840480   3.056   2.227   6.127 -0.2220  0.6242  0.1126
   57MOL    C4940481   2.972   2.097   6.127  1.1638 -0.2455  0.2333
   57MOL    C5040482   3.061   1.972   6.168 -0.5569  0.4474  0.0113
   57MOL    C5140483   2.992   1.835   6.169  0.2747  0.2466  0.1085
   57MOL    C5240484   3.067   1.722   6.240  0.0197 -0.2309 -0.0927
   57MOL    N5340485   2.986   1.608   6.265 -0.0400  0.7599 -0.3146
   57MOL    C5440486   3.142   2.755   5.871 -0.7816  0.4945  0.2251
   57MOL    C5540487   3.233   2.855   5.860 -0.0790 -0.6069 -0.1845
   57MOL    H5640488   3.384   2.822   6.175  1.2543 -1.7467 -1.1785
   57MOL    H5740489   3.258   2.623   6.168 -1.6367 -0.5644  0.3148
   57MOL    H5840490   3.153   2.447   6.133  0.3881  0.1351  0.4750
   57MOL    H5940491   2.922   2.371   6.198 -1.5127  0.0532 -1.0618
   57MOL    H6040492   2.912   2.330   6.026 -3.1430 -1.1090  1.5998
   57MOL    H6140493   3.117   2.226   6.217 -0.4803  3.3328  0.3589
   57MOL    H6240494   3.125   2.212   6.045  0.2028  0.7379  0.4434
   57MOL    H6340495   2.887   2.111   6.194  0.9068 -3.1232  0.5871
   57MOL    H6440496   2.936   2.086   6.024  3.3976 -1.9467 -0.4127
   57MOL    H6540497   3.109   1.984   6.265 -0.5525 -1.4226  0.2526
   57MOL    H6640498   3.152   1.970   6.108 -0.9375  0.8438 -0.5868
   57MOL    H6740499   2.968   1.793   6.071 -0.3937  0.2443  0.2703
   57MOL    H6840500   2.896   1.839   6.220  0.8005 -0.0982  1.1477
   57MOL    H6940501   3.159   1.694   6.190  0.3361 -0.9254  0.8755
   57MOL    H7040502   3.105   1.764   6.333 -1.6531  0.4614  0.3131
   57MOL    H7140503   2.898   1.597   6.216 -0.2931 -0.5831  0.4188
   57MOL    H7240504   3.073   2.734   5.790  0.8205 -0.8654 -0.8421
   57MOL    H7340505   3.233   2.929   5.781  1.6694  0.6275  0.9593
   57MOL    C7440506   3.026   1.499   6.329 -0.1944 -0.3137  0.4242
   57MOL    O7540507   3.137   1.488   6.376 -0.7890  0.7362  0.2963
   57MOL    C7640508   2.920   1.392   6.352 -0.1369 -0.3410  0.6447
   57MOL    C7740509   2.803   1.396   6.272  0.1146 -0.2684 -0.5501
   57MOL    C7840510   2.702   1.298   6.292  0.0884 -0.0461  0.2330
   57MOL    C7940511   2.728   1.188   6.382  0.2390 -0.1217  0.3567
   57MOL    C8040512   2.626   1.075   6.398 -0.1173 -0.0708  0.1022
   57MOL    O8140513   2.620   1.015   6.506  0.4014 -0.6975 -0.6290
   57MOL    N8240514   2.546   1.047   6.294  0.1562  1.2698  0.3706
   57MOL    C8340515   2.428   0.962   6.297  0.9892 -0.3969 -0.0223
   57MOL    C8440516   2.302   1.036   6.242 -0.5563  0.8438  0.2957
   57MOL    C8540517   2.313   1.089   6.093 -0.1643  0.4714 -0.2195
   57MOL    C8640518   2.176   1.123   6.035  0.5719 -0.7477  0.1825
   57MOL    C8740519   2.182   1.176   5.891  0.5493 -1.2444  0.6016
   57MOL    C8840520   2.047   1.215   5.836  0.5185 -0.2980  0.2060
   57MOL    N8940521   2.058   1.279   5.705 -0.0385  0.2030  0.2879
   57MOL    C9040522   2.843   1.193   6.467 -0.2384  0.1231  0.7985
   57MOL    C9140523   2.943   1.291   6.447  0.6789 -0.1088 -0.4329
   57MOL    H9240524   2.781   1.472   6.199 -0.6586 -1.4015 -1.5156
   57MOL    H9340525   2.614   1.299   6.230 -0.0070  2.0874  0.3728
   57MOL    H9440526   2.565   1.101   6.210  0.2638  2.5896  1.2212
   57MOL    H9540527   2.455   0.873   6.241  0.2747  0.1928 -1.3344
   57MOL    H9640528   2.407   0.919   6.394 -1.5283  3.3658  1.2207
   57MOL    H9740529   2.272   1.114   6.311 -0.9895  0.9534 -0.0102
   57MOL    H9840530   2.228   0.956   6.239  1.5617 -1.1824  0.6339
   57MOL    H9940531   2.373   1.180   6.087  1.0386 -0.2989  0.0229
   57MOL   H10040532   2.352   1.008   6.031 -0.6537  1.0218 -1.2657
   57MOL   H10140533   2.127   1.199   6.096  2.1261  1.1798 -0.9472
   57MOL   H10240534   2.108   1.037   6.041 -1.9738  1.3014  1.4881
   57MOL   H10340535   2.240   1.108   5.828  1.1088 -2.0384  1.9425
   57MOL   H10440536   2.236   1.271   5.891 -0.7151 -0.4412 -3.1189
   57MOL   H10540537   1.997   1.119   5.826  1.0370 -0.4426 -1.1488
   57MOL   H10640538   1.983   1.277   5.899  0.1270  0.1791 -0.6433
   57MOL   H10740539   2.096   1.223   5.631 -0.1889 -0.8049  0.9683
   57MOL   H10840540   2.872   1.111   6.531  0.2932  0.0940  0.5227
   57MOL   H10940541   3.038   1.280   6.497  0.5103  1.7753  0.3289
   57MOL   C11040542   2.011   1.399   5.671 -0.2611  0.0050 -0.6119
   57MOL   O11140543   2.009   1.491   5.755  0.3801 -0.0937  0.0379
   57MOL   C11240544   1.974   1.418   5.532  0.0017 -0.7375  0.5030
   57MOL   C11340545   1.961   1.317   5.440 -0.2865  0.6593 -0.5694
   57MOL   C11440546   1.936   1.344   5.305  0.2305  0.1856 -0.4315
   57MOL   C11540547   1.902   1.479   5.258  0.1400 -0.2356 -0.8461
   57MOL   C11640548   1.870   1.508   5.122  0.6581 -0.1422  0.0565
   57MOL   O11740549   1.866   1.625   5.083  0.2479 -0.0454 -0.1143
   57MOL   N11840550   1.830   1.399   5.056 -0.0762 -0.5112 -0.2387
   57MOL   C11940551   1.739   1.400   4.937 -0.1572  0.1003  0.3932
   57MOL   C12040552   1.595   1.391   4.976  0.0416 -0.6130  0.1488
   57MOL   C12140553   1.510   1.398   4.851 -0.2159 -0.1374 -0.2262
   57MOL   C12240554   1.366   1.379   4.873  0.5061 -0.5453  0.0606
   57MOL   C12340555   1.282   1.426   4.764  0.2411 -0.3888 -0.4804
   57MOL   C12440556   1.321   1.369   4.628  1.0716 -0.4493  0.3180
   57MOL   N12540557   1.236   1.426   4.527  0.4708 -0.8019  0.3093
   57MOL   C12640558   1.913   1.583   5.357  0.4236 -0.0688 -0.1391
   57MOL   C12740559   1.944   1.552   5.491 -0.3756 -0.3796 -0.1079
   57MOL   H12840560   1.971   1.213   5.468  1.5129  0.6758 -1.1355
   57MOL   H12940561   1.935   1.261   5.237  0.3920  0.0054 -0.2164
   57MOL   H13040562   1.826   1.316   5.113  3.2574  0.2721  1.2950
   57MOL   H13140563   1.754   1.497   4.890  1.0359 -0.6514 -0.8104
   57MOL   H13240564   1.770   1.330   4.860  3.5729  0.4468  1.4958
   57MOL   H13340565   1.567   1.480   5.033 -1.8065 -1.2535  0.2797
   57MOL   H13440566   1.573   1.305   5.039  0.7132  0.3272  1.7057
   57MOL   H13540567   1.535   1.495   4.808  2.1247 -0.3270  0.6645
   57MOL   H13640568   1.538   1.323   4.777 -0.3863  0.3090 -0.7432
   57MOL   H13740569   1.337   1.434   4.963 -0.3586  0.9460 -1.1084
   57MOL   H13840570   1.351   1.277   4.908  3.6273 -0.8020  0.7934
   57MOL   H13940571   1.290   1.535   4.760  0.3242 -0.4154 -1.0207
   57MOL   H14040572   1.181   1.402   4.798  1.4486  0.2663  3.8988
   57MOL   H14140573   1.420   1.405   4.602  0.6937  2.3380  2.4925
   57MOL   H14240574   1.318   1.260   4.632  0.6498 -0.4991 -0.8880
   57MOL   H14340575   1.267   1.513   4.486 -0.2298 -0.6649  0.0622
   57MOL   H14440576   1.883   1.684   5.334 -2.0479 -1.3304 -2.7992
   57MOL   H14540577   1.948   1.632   5.564  2.0970  0.6725 -1.3231
   57MOL   C14640578   1.116   1.387   4.490 -0.3535 -0.1165  0.6798
   57MOL   O14740579   1.065   1.286   4.528  0.0528 -0.4295 -0.4372
   57MOL   C14840580   1.035   1.487   4.421  0.1478  0.3415  0.3443
   57MOL   C14940581   1.080   1.621   4.406 -0.4029 -0.1333  0.0531
   57MOL   C15040582   0.995   1.706   4.337 -0.3046 -0.3547 -0.6659
   57MOL   C15140583   0.870   1.667   4.283 -0.4534 -0.2506 -0.3516
   57MOL   C15240584   0.783   1.762   4.210 -0.4632 -0.4703  0.2480
   57MOL   O15340585   0.717   1.717   4.120  0.3601 -0.3305  0.0975
   57MOL   N15440586   0.789   1.891   4.248  0.1933 -0.8192  0.2378
   57MOL   C15540587   0.705   1.983   4.171 -0.1869  0.7213  0.3652
   57MOL   C15640588   0.720   2.115   4.235 -0.7452  0.3598 -0.0013
   57MOL   C15740589   0.636   2.230   4.174  0.1503  0.2405  0.5909
   57MOL   C15840590   0.668   2.364   4.235  0.3462  0.2454  0.1400
   57MOL   C15940591   0.803   2.412   4.182 -0.5308  0.2345 -0.0816
   57MOL   C16040592   0.860   2.533   4.260  0.5390  0.1411 -0.2783
   57MOL   N16140593   0.990   2.574   4.207 -0.7714  0.0879 -0.0555
   57MOL   C16240594   0.833   1.534   4.292 -0.6477 -0.0891 -1.1563
   57MOL   C16340595   0.912   1.447   4.368  0.1969 -0.1275 -0.4973
   57MOL   H16440596   1.176   1.660   4.437 -1.2269  1.9946  0.0377
   57MOL   H16540597   1.032   1.806   4.318  0.6235 -0.0145  2.6683
   57MOL   H16640598   0.844   1.921   4.328 -1.5681  1.5829  0.6173
   57MOL   H16740599   0.744   1.991   4.069 -3.2499 -0.4870 -0.9639
   57MOL   H16840600   0.601   1.954   4.182 -0.4999  1.5126 -0.4712
   57MOL   H16940601   0.826   2.139   4.225  0.3321 -3.2290  2.1505
   57MOL   H17040602   0.694   2.103   4.340 -0.2738 -2.4701 -0.1803
   57MOL   H17140603   0.640   2.235   4.065  0.1702  0.2141  0.5906
   57MOL   H17240604   0.529   2.209   4.181 -0.0118  0.5381 -0.7554
   57MOL   H17340605   0.664   2.361   4.344 -2.2903 -0.1184  0.0526
   57MOL   H17440606   0.595   2.439   4.204 -1.6879 -1.0787  1.6609
   57MOL   H17540607   0.788   2.446   4.080 -1.6287 -1.3623 -0.4594
   57MOL   H17640608   0.878   2.335   4.165 -1.4027 -0.7030  0.3145
   57MOL   H17740609   0.786   2.613   4.252  0.5470  0.4833  2.4831
   57MOL   H17840610   0.880   2.517   4.366 -0.1843  0.0296 -0.1538
   57MOL   H17940611   1.011   2.552   4.111 -1.3209 -2.5210  0.3727
   57MOL   H18040612   0.740   1.499   4.249 -0.1862 -2.2892 -0.4083
   57MOL   H18140613   0.873   1.347   4.378 -0.6878  0.2548 -0.0590
   57MOL   C18240614   1.084   2.647   4.264  0.5913  1.0184 -0.2510
   57MOL   O18340615   1.073   2.690   4.380 -0.1509 -0.4713  0.4474
   57MOL   C18440616   1.205   2.677   4.183 -0.0019 -0.5912 -0.5312
   57MOL   C18540617   1.297   2.778   4.235  0.0719  1.1140  0.4817
   57MOL   C18640618   1.406   2.812   4.155  0.4584 -0.1330  0.6788
   57MOL   C18740619   1.433   2.748   4.039  0.5420 -0.8169 -0.8611
   57MOL   C18840620   1.550   2.792   3.953 -0.9016 -0.3060  0.4066
   57MOL   O18940621   1.632   2.872   4.000  0.0264  0.0953  0.5592
   57MOL   N19040622   1.564   2.738   3.833 -0.1950  0.4676  0.3046
   57MOL   C19140623   1.667   2.767   3.735  0.5198  0.0705  0.6141
   57MOL   C19240624   1.794   2.686   3.764  0.0681 -0.4793 -0.0117
   57MOL   C19340625   1.899   2.691   3.649  0.3479  0.0219 -0.5329
   57MOL   C19440626   1.897   2.592   3.533 -0.4447  0.4070 -0.0296
   57MOL   C19540627   1.775   2.575   3.441  0.2430  0.2295 -0.0034
   57MOL   C19640628   1.794   2.471   3.339 -0.1516 -0.0733 -0.2956
   57MOL   N19740629   1.802   2.329   3.380  0.4976 -0.2196 -0.0180
   57MOL   C19840630   1.339   2.661   3.980  0.2433  0.0791  0.0046
   57MOL   C19940631   1.233   2.611   4.060  0.0121  0.3069  0.5650
   57MOL   H20040632   1.271   2.827   4.327 -0.7155  0.6297  0.5270
   57MOL   H20140633   1.474   2.886   4.195  0.6438 -0.3187  0.7079
   57MOL   H20240634   1.494   2.671   3.804 -0.2823  1.3276 -1.5437
   57MOL   H20340635   1.613   2.741   3.643  0.3742 -0.5354  0.8728
   57MOL   H20440636   1.688   2.873   3.720 -0.7433 -0.1141 -3.0965
   57MOL   H20540637   1.766   2.583   3.786 -3.0553  0.4731  0.7523
   57MOL   H20640638   1.840   2.722   3.856 -1.3713  1.2439  0.0439
   57MOL   H20740639   1.917   2.792   3.612 -1.8823  0.5032 -0.3875
   57MOL   H20840640   1.996   2.685   3.697 -0.9422 -1.0442  2.0137
   57MOL   H20940641   1.929   2.493   3.567  1.7423  1.4237  0.9153
   57MOL   H21040642   1.982   2.622   3.471 -0.0460 -0.4787  0.0686
   57MOL   H21140643   1.744   2.670   3.398  1.3325  0.9012  0.6636
   57MOL   H21240644   1.681   2.553   3.493  1.2951 -1.4805  1.2237
   57MOL   H21340645   1.728   2.491   3.254 -1.1826 -0.1807  0.4726
   57MOL   H21440646   1.887   2.498   3.289  0.5643  0.2034  1.1645
   57MOL   H21540647   1.790   2.308   3.478 -0.2048 -1.7013 -0.4026
   57MOL   H21640648   1.343   2.627   3.877 -1.7123  1.3730 -0.5209
   57MOL   H21740649   1.172   2.532   4.019  0.4203  0.2961 -0.0249
   57MOL   C21840650   1.807   2.221   3.301 -1.3132 -0.7202  0.6608
   57MOL   O21940651   1.834   2.222   3.183  0.3806  0.2679  0.6026
   57MOL   C22040652   1.773   2.090   3.365 -0.0770 -0.3229 -0.0879
   57MOL   C22140653   1.742   1.982   3.280  0.4568 -0.1327  0.2359
   57MOL   C22240654   1.715   1.857   3.340 -0.5011 -0.3733  0.3870
   57MOL   C22340655   1.722   1.842   3.475  0.1536  0.3130  0.2861
   57MOL   C22440656   1.723   1.702   3.536  0.2906 -0.1590  0.3601
   57MOL   O22540657   1.725   1.684   3.658  0.1688  0.3820  0.4153
   57MOL   N22640658   1.742   1.594   3.451  0.2400  0.0226  0.1759
   57MOL   C22740659   1.791   1.465   3.501 -0.2784  0.5337 -0.1000
   57MOL   C22840660   1.761   1.350   3.404  0.7544 -0.1004  0.7685
   57MOL   C22940661   1.802   1.219   3.469 -0.0129  0.3352  0.0152
   57MOL   C23040662   1.763   1.101   3.377  0.0961  0.0825 -0.3761
   57MOL   C23140663   1.777   0.979   3.459  0.2654  0.3395 -0.4309
   57MOL   C23240664   1.764   0.850   3.378 -0.3321 -0.5992 -0.5324
   57MOL   N23340665   1.777   0.732   3.454 -0.0917 -0.3667 -0.0792
   57MOL   C23440666   1.749   1.942   3.565  0.1571 -0.2669  0.3408
   57MOL   C23540667   1.771   2.069   3.507 -0.7702 -0.1690  0.2022
   57MOL   H23640668   1.738   1.979   3.172 -2.1838 -1.6908  0.3333
   57MOL   H23740669   1.705   1.773   3.273 -0.9185  0.1877 -0.2604
   57MOL   H23840670   1.762   1.610   3.353  1.0475  0.8075  0.4646
   57MOL   H23940671   1.898   1.484   3.517  0.0841 -1.1664 -0.3984
   57MOL   H24040672   1.742   1.453   3.597  0.2732  0.7095  0.2082
   57MOL   H24140673   1.827   1.365   3.318  1.4911  3.3851  1.8850
   57MOL   H24240674   1.656   1.348   3.372  0.7262 -3.8269  0.7948
   57MOL   H24340675   1.909   1.211   3.491 -0.3674 -0.9447  1.2959
   57MOL   H24440676   1.753   1.221   3.566  2.7886  1.8751  1.4703
   57MOL   H24540677   1.837   1.103   3.297 -0.9587  1.9566 -1.3390
   57MOL   H24640678   1.661   1.105   3.339 -0.2884 -0.1786  0.6044
   57MOL   H24740679   1.696   0.984   3.531 -1.9993  2.4658 -3.0055
   57MOL   H24840680   1.878   0.974   3.499  0.1324 -0.9107 -0.2474
   57MOL   H24940681   1.665   0.852   3.332 -0.7678  0.4185  0.4302
   57MOL   H25040682   1.841   0.842   3.302 -0.6002 -1.9210 -0.6807
   57MOL   H25140683   1.781   0.744   3.554 -2.4701  0.4856 -0.0482
   57MOL   H25240684   1.782   1.941   3.668  1.9071  1.3199 -0.1606
   57MOL   H25340685   1.790   2.153   3.572 -2.0518  0.3726 -0.1153
   57MOL   C25440686   1.792   0.610   3.409  0.9538  0.0506  0.5895
   57MOL   O25540687   1.779   0.587   3.285  0.1935  0.1993 -0.2599
   57MOL   C25640688   1.806   0.505   3.517  0.0139 -0.0787 -0.5269
   57MOL   C25740689   1.798   0.368   3.488 -0.6496  0.2741 -0.3819
   57MOL   C25840690   1.798   0.276   3.597  0.3030 -0.0135  0.0071
   57MOL   C25940691   1.803   0.324   3.734 -0.9046  0.1832  0.5994
   57MOL   C26040692   1.777   0.232   3.847 -0.1560  0.0938 -0.4285
   57MOL   O26140693   1.801   0.108   3.832  0.0856 -0.4008  0.1254
   57MOL   N26240694   1.723   0.280   3.956 -0.1827 -0.8429  0.0697
   57MOL   C26340695   1.694   0.203   4.077  0.7925 -0.3195  0.4797
   57MOL   C26440696   1.705   0.293   4.205 -0.7174  0.4779 -0.3089
   57MOL   C26540697   1.842   0.359   4.235 -0.3974 -0.1948 -0.5193
   57MOL   C26640698   1.833   0.476   4.341  0.4054  0.4486 -0.6617
   57MOL   C26740699   1.762   0.602   4.284  0.1023  0.4788  0.6513
   57MOL   C26840700   1.779   0.721   4.382  0.6350 -0.4716 -0.0284
   57MOL   N26940701   1.701   0.840   4.347 -0.2635  0.2247  0.3813
   57MOL   C27040702   1.822   0.458   3.758 -0.2651 -0.2544 -0.4237
   57MOL   C27140703   1.824   0.551   3.651 -0.2847  0.6688 -0.4917
   57MOL   H27240704   1.804   0.317   3.393  2.0216  1.8318 -1.0987
   57MOL   H27340705   1.792   0.170   3.582  2.2140  0.1737 -2.4073
   57MOL   H27440706   1.701   0.378   3.964  0.0691 -0.7317 -0.6240
   57MOL   H27540707   1.593   0.163   4.071  0.0802  1.7277 -2.1467
   57MOL   H27640708   1.748   0.109   4.086 -0.2139 -0.7805  1.9516
   57MOL   H27740709   1.677   0.233   4.292  1.1071  0.3787  0.2281
   57MOL   H27840710   1.627   0.367   4.191 -1.3580 -0.0382  0.4694
   57MOL   H27940711   1.906   0.277   4.268 -0.8402  0.0542  1.0075
   57MOL   H28040712   1.879   0.409   4.146  0.9945 -0.1267  0.0767
   57MOL   H28140713   1.931   0.511   4.374 -0.8447  0.9858  2.7206
   57MOL   H28240714   1.789   0.440   4.435  2.5518  1.4943  0.7874
   57MOL   H28340715   1.658   0.570   4.277  0.8076 -2.4015  2.4847
   57MOL   H28440716   1.795   0.643   4.188  0.5529 -0.3776  0.4453
   57MOL   H28540717   1.737   0.688   4.478 -1.4272  1.8366 -0.0990
   57MOL   H28640718   1.882   0.752   4.393 -0.0991  1.1921  2.7219
   57MOL   H28740719   1.707   0.878   4.254  0.9764 -1.1850 -0.1289
   57MOL   H28840720   1.829   0.496   3.859  1.6323 -1.3809 -0.1172
   57MOL   H28940721   1.829   0.657   3.666 -1.7829  0.3925  2.3507
   57MOL   C29040722   1.635   0.917   4.434 -0.5689 -0.0632  0.8045
   57MOL   O29140723   1.630   0.898   4.558  0.5002  0.5486  0.3351
   57MOL   C29240724   1.561   1.031   4.362  0.7737 -0.1022 -0.9029
   57MOL   C29340725   1.606   1.090   4.241 -0.2563 -0.2941 -0.2478
   57MOL   C29440726   1.525   1.180   4.167 -0.7838  0.6422  0.0818
   57MOL   C29540727   1.407   1.223   4.218  1.1376  0.7490 -0.0013
   57MOL   C29640728   1.316   1.314   4.135 -0.2780 -0.1615 -0.5854
   57MOL   O29740729   1.299   1.284   4.018  0.3964 -0.0824 -0.3567
   57MOL   N29840730   1.279   1.431   4.185  0.4626  0.4109  0.4013
   57MOL   C29940731   1.195   1.523   4.114 -0.0432 -0.3550 -0.4913
   57MOL   C30040732   1.248   1.668   4.093 -0.3203 -0.1177  0.6207
   57MOL   C30140733   1.155   1.751   4.006 -0.4787  0.5289 -0.0246
   57MOL   C30240734   1.173   1.899   4.014 -0.7148 -0.6622 -0.4872
   57MOL   C30340735   1.091   1.976   3.907  0.5395 -0.4017 -0.3549
   57MOL   C30440736   1.130   2.127   3.889 -0.1071  0.4834  0.1915
   57MOL   N30540737   1.061   2.196   3.778 -0.4137 -0.2104 -0.0265
   57MOL   C30640738   1.369   1.184   4.346  0.0876 -0.5689  1.1514
   57MOL   C30740739   1.441   1.088   4.420 -0.1952  0.8260  0.0040
   57MOL   H30840740   1.692   1.065   4.179  0.4124  0.2156  0.4705
   57MOL   H30940741   1.567   1.221   4.077  3.5472 -1.5734  0.9411
   57MOL   H31040742   1.307   1.464   4.276 -0.7773  2.5418  0.0255
   57MOL   H31140743   1.165   1.484   4.017 -1.8052  0.2183 -0.1997
   57MOL   H31240744   1.103   1.521   4.173  0.5265  1.4482  0.4928
   57MOL   H31340745   1.339   1.667   4.034 -0.5194 -1.2741  0.3278
   57MOL   H31440746   1.285   1.714   4.185  1.0249  0.7557 -0.3273
   57MOL   H31540747   1.177   1.712   3.906  1.8982 -1.6894  1.3194
   57MOL   H31640748   1.053   1.731   4.039  0.3502  0.4900  2.6174
   57MOL   H31740749   1.276   1.927   3.992 -0.0157 -1.7463  1.2775
   57MOL   H31840750   1.149   1.935   4.114 -0.4375  0.7016 -0.9067
   57MOL   H31940751   0.985   1.967   3.930  0.6168 -1.9028 -0.5416
   57MOL   H32040752   1.105   1.927   3.811  0.5931  1.7045 -1.4376
   57MOL   H32140753   1.099   2.172   3.984 -3.1948 -1.0183 -0.0657
   57MOL   H32240754   1.239   2.132   3.899  0.0270  1.1653 -1.4917
   57MOL   H32340755   1.120   2.229   3.704  1.1928 -3.1917 -0.1409
   57MOL   H32440756   1.270   1.199   4.386 -0.6097  0.2851 -0.8268
   57MOL   H32540757   1.413   1.066   4.522  0.2397  2.3652  0.4702
   57MOL   C32640758   0.943   2.256   3.795 -0.3666  0.4579  0.8697
   57MOL   O32740759   0.884   2.267   3.903 -0.1014  0.3298  0.2099
   57MOL   C32840760   0.883   2.318   3.670 -0.0398  0.6605 -0.0234
   57MOL   C32940761   0.950   2.319   3.547 -0.6984  0.5356  0.5436
   57MOL   C33040762   0.895   2.371   3.429  0.2380 -0.2184  0.5205
   57MOL   C33140763   0.768   2.438   3.442  0.2263 -0.0207 -0.3109
   57MOL   C33240764   0.697   2.500   3.324  0.3254 -0.8149  0.3425
   57MOL   O33340765   0.572   2.512   3.314  0.0279 -0.8451  0.1841
   57MOL   N33440766   0.783   2.558   3.239 -0.3778 -0.3162 -0.0821
   57MOL   C33540767   0.725   2.635   3.126  0.2381  0.4475  0.3230
   57MOL   C33640768   0.835   2.702   3.045  0.6907 -0.4610  0.5410
   57MOL   C33740769   0.946   2.605   3.005 -0.0470  0.0375  0.5960
   57MOL   C33840770   1.061   2.665   2.923 -0.1497  0.1044  0.4029
   57MOL   C33940771   1.135   2.777   2.984  0.1556 -0.3202  0.0391
   57MOL   C34040772   1.217   2.728   3.102 -0.0565  0.1628 -0.5041
   57MOL   N34140773   1.275   2.841   3.180 -0.2670  0.2004 -0.6248
   57MOL   C34240774   0.699   2.434   3.565  0.2059  0.1983 -0.0936
   57MOL   C34340775   0.756   2.378   3.678  0.5006 -0.0281  0.0404
   57MOL   H34440776   1.050   2.278   3.543 -1.2677 -0.7076 -0.8761
   57MOL   H34540777   0.946   2.373   3.334 -0.3516 -2.3146  0.1191
   57MOL   H34640778   0.881   2.559   3.263 -0.0451  1.9912 -1.4016
   57MOL   H34740779   0.664   2.576   3.058 -1.8232 -1.3184  3.5768
   57MOL   H34840780   0.655   2.710   3.162 -0.5695  0.6792 -1.6487
   57MOL   H34940781   0.878   2.787   3.098  0.2417 -0.8103  1.4663
   57MOL   H35040782   0.781   2.744   2.960 -0.7634  1.3861  2.3180
   57MOL   H35140783   0.993   2.562   3.094 -1.0517 -1.9454  0.1987
   57MOL   H35240784   0.911   2.518   2.949  0.5573 -0.1940  0.5685
   57MOL   H35340785   1.009   2.686   2.830 -1.3085  1.7712  1.4188
   57MOL   H35440786   1.126   2.579   2.906  1.9818  1.6103  0.7106
   57MOL   H35540787   1.068   2.853   3.025 -0.1425 -0.7648  0.3878
   57MOL   H35640788   1.198   2.820   2.906 -0.5468 -0.9591 -0.8971
   57MOL   H35740789   1.152   2.670   3.167  0.1261 -0.1618 -0.6104
   57MOL   H35840790   1.300   2.665   3.071  0.0568  0.6294 -1.1586
   57MOL   H35940791   1.248   2.933   3.151 -1.1191 -0.3695 -1.6693
   57MOL   H36040792   0.601   2.479   3.569 -0.5479 -1.2362 -1.7559
   57MOL   H36140793   0.706   2.393   3.772  0.4260 -1.7070  0.2812
   57MOL   C36240794   1.380   2.835   3.262  0.5741 -0.5473 -0.3631
   57MOL   O36340795   1.442   2.730   3.290  0.4412 -0.6698 -0.4902
   57MOL   C36440796   1.430   2.968   3.305  0.2111  0.2761  0.1960
   57MOL   C36540797   1.567   2.980   3.330 -0.4149 -0.0552 -0.2215
   57MOL   C36640798   1.614   3.109   3.361 -0.0262 -0.9204 -0.0314
   57MOL   C36740799   1.538   3.229   3.365  0.3002  0.9323  0.7394
   57MOL   C36840800   1.601   3.362   3.360 -1.2474  0.9857  0.8463
   57MOL   O36940801   1.721   3.382   3.385 -0.2959  0.1000 -0.3535
   57MOL   N37040802   1.521   3.466   3.334  0.3864 -0.1965 -0.3221
   57MOL   C37140803   1.550   3.605   3.335 -0.7249 -0.1009  0.7655
   57MOL   C37240804   1.430   3.693   3.369 -0.4214 -0.2475 -0.1155
   57MOL   C37340805   1.437   3.842   3.341  0.2817 -0.1960 -0.2819
   57MOL   C37440806   1.329   3.937   3.395  0.0035 -0.2107 -0.2114
   57MOL   C37540807   1.184   3.884   3.404  0.2000  0.4308  0.0723
   57MOL   C37640808   1.105   3.865   3.274  0.3311  0.1130  0.2134
   57MOL   N37740809   1.123   3.738   3.203  0.7550 -0.1867  1.3067
   57MOL   C37840810   1.398   3.210   3.333  0.6647  1.0048 -0.6084
   57MOL   C37940811   1.346   3.080   3.312  0.1152 -0.4859  0.5567
   57MOL   H38040812   1.637   2.898   3.322 -1.7642 -1.1257 -1.3816
   57MOL   H38140813   1.720   3.113   3.383 -0.0735 -0.3522  0.1216
   57MOL   H38240814   1.423   3.448   3.317  0.7739 -1.3757 -1.3739
   57MOL   H38340815   1.645   3.631   3.382  0.3502  0.9506 -1.8704
   57MOL   H38440816   1.558   3.629   3.229 -0.4748 -1.1721  0.5347
   57MOL   H38540817   1.409   3.691   3.476 -0.7747 -0.0820 -0.1809
   57MOL   H38640818   1.338   3.652   3.329 -0.8449  0.1760  0.4235
   57MOL   H38740819   1.534   3.872   3.381  0.7171 -0.4841 -1.1076
   57MOL   H38840820   1.441   3.852   3.233 -1.5523 -1.2531 -0.4499
   57MOL   H38940821   1.315   4.018   3.324  0.7086  0.9011  0.9087
   57MOL   H39040822   1.370   3.979   3.487  2.0298  0.8111 -1.5531
   57MOL   H39140823   1.126   3.958   3.460 -0.2480  0.1597 -0.0337
   57MOL   H39240824   1.182   3.794   3.465 -0.9955  0.0769 -0.4871
   57MOL   H39340825   1.001   3.855   3.306 -0.4320 -1.2854 -2.5850
   57MOL   H39440826   1.120   3.949   3.206 -1.2469 -0.1707 -0.5132
   57MOL   H39540827   1.080   3.656   3.244 -0.3909 -0.3025 -0.0965
   57MOL   H39640828   1.343   3.302   3.325 -1.4273 -0.1287  0.2302
   57MOL   H39740829   1.243   3.072   3.283  0.0872 -0.1899  0.5731
   57MOL   C39840830   1.203   3.728   3.100 -0.1282  0.2787  0.2333
   57MOL   O39940831   1.262   3.820   3.039 -0.3439  0.1854 -0.1362
   57MOL   C40040832   1.243   3.594   3.056 -0.2607 -0.4633 -0.2979
   57MOL   C40140833   1.159   3.485   3.073  0.3259 -0.4425 -0.2281
   57MOL   C40240834   1.190   3.357   3.035  0.8073  0.3247 -0.8485
   57MOL   C40340835   1.317   3.317   2.986  0.3500 -0.4479 -0.5118
   57MOL   C40440836   1.352   3.173   2.963  0.4171 -0.1277 -0.3858
   57MOL   O40540837   1.268   3.089   2.993  0.1207 -0.6975  0.2557
   57MOL   N40640838   1.467   3.151   2.899  0.1507 -0.2792  0.7847
   57MOL   C40740839   1.507   3.021   2.849  1.3194  0.2216 -0.1526
   57MOL   C40840840   1.572   2.929   2.958  0.0958  0.2728 -0.1661
   57MOL   C40940841   1.623   2.803   2.893  0.2900 -0.4048  0.2522
   57MOL   C41040842   1.709   2.715   2.988  0.3761  0.0241  0.3336
   57MOL   C41140843   1.783   2.601   2.923  0.3727  0.3885 -0.1159
   57MOL   C41240844   1.707   2.484   2.855 -0.3407 -0.1872 -0.1158
   57MOL   N41340845   1.639   2.406   2.948 -0.3795  0.1793  0.3277
   57MOL   C41440846   1.412   3.423   2.967  0.4128  0.5261 -0.2191
   57MOL   C41540847   1.374   3.561   3.007  0.1365 -0.1411 -0.3376
   57MOL   H41640848   1.063   3.507   3.117  0.7826  0.8999  0.0999
   57MOL   H41740849   1.116   3.280   3.054  0.7340  0.7031  0.4451
   57MOL   H41840850   1.522   3.231   2.874 -0.4299 -0.1402 -0.0550
   57MOL   H41940851   1.429   2.967   2.795  2.4379 -0.3210 -1.2497
   57MOL   H42040852   1.582   3.029   2.771  1.9925 -0.4151  0.4249
   57MOL   H42140853   1.503   2.904   3.039 -1.0033 -0.9057 -1.4370
   57MOL   H42240854   1.663   2.969   3.004  0.7372 -0.3637 -0.8774
   57MOL   H42340855   1.535   2.745   2.865  1.6771 -1.9010 -1.0631
   57MOL   H42440856   1.679   2.823   2.801 -1.5599  0.2902 -0.7563
   57MOL   H42540857   1.647   2.693   3.074  0.0944  0.3965  0.2266
   57MOL   H42640858   1.796   2.763   3.032  0.8123  0.0810 -0.5756
   57MOL   H42740859   1.850   2.561   2.999 -1.2038  0.9610  1.6032
   57MOL   H42840860   1.830   2.652   2.839  1.5013  1.3815  1.1012
   57MOL   H42940861   1.635   2.516   2.779 -2.0265 -1.6333  0.8129
   57MOL   H43040862   1.776   2.424   2.796 -0.5435 -0.2933 -0.2444
   57MOL   H43140863   1.694   2.342   3.004  0.3199  0.2944 -0.2262
   57MOL   H43240864   1.507   3.408   2.917  0.7797  0.2578  0.5522
   57MOL   H43340865   1.444   3.643   3.003  1.2913 -1.0361  0.8943
   57MOL   C43440866   1.505   2.415   2.967  0.1529  0.8220  0.4183
   57MOL   O43540867   1.432   2.492   2.904 -0.1122  0.1944  0.1269
   57MOL   C43640868   1.450   2.322   3.068 -0.0186 -0.4264 -0.0525
   57MOL   C43740869   1.511   2.199   3.094 -0.4398  0.5279 -0.9858
   57MOL   C43840870   1.459   2.118   3.196 -0.0149 -0.2422 -0.5113
   57MOL   C43940871   1.350   2.153   3.269  0.5702  0.0799  0.3205
   57MOL   C44040872   1.291   2.056   3.368  1.1671  0.3668 -0.3373
   57MOL   O44140873   1.272   2.082   3.488  0.1607 -0.2856  0.1374
   57MOL   N44240874   1.268   1.931   3.315  0.2043 -0.1157 -0.1666
   57MOL   C44340875   1.243   1.809   3.393 -0.0033 -0.1914  0.2407
   57MOL   C44440876   1.357   1.705   3.373 -0.3343  0.4941 -0.1545
   57MOL   C44540877   1.331   1.574   3.462 -0.4304 -0.7549 -0.1463
   57MOL   C44640878   1.351   1.594   3.618 -0.1749  0.0082 -0.0087
   57MOL   C44740879   1.340   1.466   3.689  0.2973  0.1162 -0.1439
   57MOL   C44840880   1.464   1.387   3.671  0.6999  0.0196 -0.0284
   57MOL   N44940881   1.447   1.249   3.724  0.0535 -0.0279  0.0961
   57MOL   C45040882   1.278   2.272   3.244  0.3030  0.2465  0.6132
   57MOL   C45140883   1.335   2.358   3.140 -0.1683 -0.4576 -1.1048
   57MOL   H45240884   1.590   2.166   3.028  1.0840 -0.8964  1.4699
   57MOL   H45340885   1.501   2.020   3.215  1.1358  0.2349 -0.5391
   57MOL   H45440886   1.272   1.926   3.214 -1.6289 -3.1268 -0.1479
   57MOL   H45540887   1.217   1.833   3.495 -1.2262 -0.6925  0.0528
   57MOL   H45640888   1.155   1.767   3.343  0.2696 -1.6206  0.9215
   57MOL   H45740889   1.451   1.749   3.403 -0.3490  1.5872 -1.6882
   57MOL   H45840890   1.367   1.674   3.269 -0.7604  3.0839 -1.0062
   57MOL   H45940891   1.233   1.528   3.448 -2.1306  2.3423  1.0310
   57MOL   H46040892   1.402   1.498   3.431 -0.5321 -1.4017  1.1689
   57MOL   H46140893   1.283   1.668   3.660  0.4663  0.0142  1.0312
   57MOL   H46240894   1.449   1.638   3.636 -0.9178  1.5485  0.3515
   57MOL   H46340895   1.258   1.405   3.651  0.3725 -1.0231  1.4769
   57MOL   H46440896   1.331   1.485   3.796  1.6368  0.7262 -0.1358
   57MOL   H46540897   1.500   1.384   3.569  1.2633  0.0227  0.1707
   57MOL   H46640898   1.542   1.437   3.729 -1.2277  0.8404  1.9583
   57MOL   H46740899   1.370   1.201   3.679  2.1241 -0.6223 -3.0025
   57MOL   H46840900   1.184   2.297   3.291 -1.1705 -1.6812 -1.2081
   57MOL   H46940901   1.282   2.450   3.123 -0.5700  0.1071  2.7286
   57MOL   C47040902   1.538   1.191   3.803  0.2989  0.2173  0.1011
   57MOL   O47140903   1.631   1.254   3.850 -0.1885  0.0234 -0.1645
   57MOL   C47240904   1.521   1.040   3.832  0.4501 -0.7034  0.2760
   57MOL   C47340905   1.639   0.967   3.848 -0.4824  0.2112  0.6192
   57MOL   C47440906   1.629   0.830   3.873 -0.0243  0.1016  0.6210
   57MOL   C47540907   1.500   0.773   3.894 -1.0686  0.1685  0.2454
   57MOL   C47640908   1.492   0.622   3.923  0.1876  0.1790 -0.8451
   57MOL   O47740909   1.587   0.555   3.963 -0.0641 -0.0183  0.4177
   57MOL   N47840910   1.370   0.569   3.896 -0.3607  0.0626 -0.1290
   57MOL   C47940911   1.324   0.438   3.928  0.1243 -0.3945 -0.1231
   57MOL   C48040912   1.381   0.330   3.836  0.5022 -0.0427  0.1418
   57MOL   C48140913   1.335   0.189   3.893  0.0805 -0.0280  0.4139
   57MOL   C48240914   1.382   0.073   3.799 -0.3385  0.1115  0.4261
   57MOL   C48340915   1.349   7.821   3.854  0.4731 -0.0533 -0.3820
   57MOL   C48440916   1.356   7.700   3.763 -0.2129  0.3257  0.5069
   57MOL   N48540917   1.494   7.688   3.714  0.1991 -0.2525  0.0309
   57MOL   C48640918   1.381   0.849   3.886 -0.0488  0.2839 -0.4755
   57MOL   C48740919   1.392   0.986   3.848 -0.8245 -0.4121 -0.1315
   57MOL   H48840920   1.733   1.016   3.827 -1.3127  1.0344 -1.2754
   57MOL   H48940921   1.723   0.777   3.875 -0.0717  0.0388  1.1891
   57MOL   H49040922   1.295   0.633   3.877  0.4262  0.5960 -1.5245
   57MOL   H49140923   1.362   0.410   4.026  1.2424  1.4278 -0.0129
   57MOL   H49240924   1.216   0.430   3.933  0.0621 -1.1194 -1.9571
   57MOL   H49340925   1.488   0.341   3.852  0.2801  0.8260  1.1126
   57MOL   H49440926   1.355   0.335   3.730 -0.5253 -1.4529  0.3174
   57MOL   H49540927   1.368   0.161   3.993  1.3793 -0.3285 -0.0793
   57MOL   H49640928   1.227   0.191   3.902  0.0958  3.7427  0.5495
   57MOL   H49740929   1.487   0.075   3.771 -1.0157 -2.2634 -2.5976
   57MOL   H49840930   1.321   0.088   3.710 -0.0279 -1.0246  0.0160
   57MOL   H49940931   1.244   7.821   3.884  0.8405  1.2936  0.9930
   57MOL   H50040932   1.411   7.815   3.943  0.2077  0.0785 -0.1881
   57MOL   H50140933   1.318   7.611   3.812 -2.2787  1.0774  0.3459
   57MOL   H50240934   1.284   7.724   3.685 -1.1992  0.9699  1.5882
   57MOL   H50340935   1.563   7.735   3.771 -0.3312  0.4198  0.1303
   57MOL   H50440936   1.288   0.810   3.923 -0.8152  2.0204 -0.5214
   57MOL   H50540937   1.311   1.057   3.843 -1.0229 -0.6033  0.4088
   57MOL   C50640938   1.539   7.604   3.624 -0.4199  0.2230  0.2179
   57MOL   O50740939   1.452   7.538   3.566  0.0560  0.0222  0.2482
   57MOL   C50840940   1.685   7.596   3.598 -0.4494 -0.4621 -0.0919
   57MOL   C50940941   1.783   7.700   3.625 -0.0854  0.2992 -0.4018
   57MOL   C51040942   1.923   7.675   3.600  0.2159 -0.2421 -0.2650
   57MOL   C51140943   1.967   7.557   3.538 -0.1593  0.4590 -0.3135
   57MOL   C51240944   2.115   7.536   3.505  0.5864  0.4503 -0.1661
   57MOL   O51340945   2.149   7.426   3.455 -0.6029 -0.1077  0.4417
   57MOL   N51440946   2.201   7.628   3.543 -0.4790 -0.0618  0.1581
   57MOL   C51540947   2.346   7.616   3.525 -0.5753  0.2969  0.6369
   57MOL   C51640948   2.420   7.688   3.638 -0.1281 -0.1584  0.4195
   57MOL   C51740949   2.375   7.838   3.655 -0.4194  0.7960 -0.3455
   57MOL   C51840950   2.243   7.868   3.735  0.5109 -0.3826 -0.2690
   57MOL   C51940951   2.216   0.127   3.759 -0.2464  0.1380  0.1812
   57MOL   C52040952   2.171   0.207   3.631  0.2842 -0.1232  0.5489
   57MOL   N52140953   2.164   0.349   3.661 -0.5444 -0.1721 -0.2044
   57MOL   C52240954   1.871   7.454   3.512 -0.0299  0.7298 -0.6695
   57MOL   C52340955   1.731   7.473   3.545  0.0737  0.8050  1.0761
   57MOL   H52440956   1.747   7.795   3.664 -2.0828 -1.1613  1.4770
   57MOL   H52540957   1.993   7.754   3.622  1.1250 -1.7466  2.5760
   57MOL   H52640958   2.152   7.714   3.566  1.3068  0.8769  0.5496
   57MOL   H52740959   2.387   7.516   3.508 -1.7574 -0.2895  1.1820
   57MOL   H52840960   2.370   7.668   3.432  3.1423 -0.1909  1.2333
   57MOL   H52940961   2.526   7.685   3.615 -0.3616 -2.1174 -0.5624
   57MOL   H53040962   2.413   7.643   3.737  0.4112 -1.4818 -0.1217
   57MOL   H53140963   2.458   0.008   3.697  1.9059 -1.3336 -1.9762
   57MOL   H53240964   2.364   0.003   3.559 -1.9293 -1.0512 -1.1941
   57MOL   H53340965   2.227   7.815   3.829 -2.7252 -1.8890 -1.5747
   57MOL   H53440966   2.161   7.823   3.679 -0.3557 -0.7895  1.2930
   57MOL   H53540967   2.309   0.174   3.791  1.0457 -2.6618  0.7264
   57MOL   H53640968   2.155   0.134   3.848  2.2606  0.4314  1.9254
   57MOL   H53740969   2.241   0.178   3.552 -0.6027 -0.4860 -0.1085
   57MOL   H53840970   2.071   0.191   3.591  1.1514 -0.9773 -1.3531
   57MOL   H53940971   2.096   0.376   3.731 -0.2451  1.4038 -0.5120
   57MOL   H54040972   1.898   7.354   3.481 -3.4298 -0.3432 -0.3736
   57MOL   H54140973   1.656   7.397   3.532 -1.3625  2.4694 -0.9256
   57MOL   C54240974   2.206   0.437   3.578 -0.3078 -0.4754  0.7811
   57MOL   O54340975   2.265   0.409   3.469  0.1259 -0.3033  0.2126
   57MOL   C54440976   2.181   0.578   3.609  0.1001  0.6233 -0.2309
   57MOL   C54540977   2.183   0.627   3.738 -0.1469 -0.9314  0.5421
   57MOL   C54640978   2.150   0.758   3.768 -0.5177  0.4836 -0.3008
   57MOL   C54740979   2.129   0.851   3.667 -0.0682 -0.2008  0.3111
   57MOL   C54840980   2.080   0.992   3.699 -0.5573 -0.1228 -0.2449
   57MOL   O54940981   2.010   1.010   3.795  0.1098  0.3134 -0.3799
   57MOL   N55040982   2.127   1.091   3.616 -0.2352 -0.0077 -0.6632
   57MOL   C55140983   2.123   1.227   3.635 -0.0107 -0.1432  0.3242
   57MOL   C55240984   2.189   1.295   3.510  0.3187  0.5560  0.2272
   57MOL   C55340985   2.337   1.267   3.492  0.0477 -0.7043  1.2653
   57MOL   C55440986   2.382   1.303   3.358 -0.5718  0.2934  0.3161
   57MOL   C55540987   2.536   1.265   3.343 -0.2591  0.3367 -0.5970
   57MOL   C55640988   2.608   1.349   3.233  0.6372 -0.3237 -0.4734
   57MOL   N55740989   2.565   1.312   3.098 -0.0986  0.3043 -0.2626
   57MOL   C55840990   2.129   0.806   3.528  0.7857 -0.2616  0.0154
   57MOL   C55940991   2.156   0.670   3.505  0.3134 -0.0778 -0.4187
   57MOL   H56040992   2.207   0.557   3.817  1.2569 -1.1802 -0.0932
   57MOL   H56140993   2.151   0.794   3.870 -1.2360  0.0266 -0.1303
   57MOL   H56240994   2.184   1.048   3.545 -2.6352 -2.5505 -1.1271
   57MOL   H56340995   2.017   1.248   3.655 -0.1712  0.6870 -1.2592
   57MOL   H56440996   2.176   1.261   3.723  3.3976 -0.6705 -1.4575
   57MOL   H56540997   2.180   1.403   3.523 -1.5694  0.6351 -1.4462
   57MOL   H56640998   2.126   1.265   3.426 -0.3548  2.7247 -0.0588
   57MOL   H56740999   2.390   1.329   3.564  0.9318  0.3741 -0.2972
   57MOL   H56841000   2.363   1.162   3.509 -1.6939 -1.2289  0.8285
   57MOL   H56941001   2.367   1.410   3.346 -1.0338  0.1478 -0.5301
   57MOL   H57041002   2.334   1.246   3.278 -0.1659 -0.9054  0.9040
   57MOL   H57141003   2.550   1.158   3.325  0.5018  0.4480 -0.6787
   57MOL   H57241004   2.584   1.287   3.439  2.0148  0.2601 -1.6788
   57MOL   H57341005   2.608   1.457   3.242 -1.8755 -0.2120 -1.5389
   57MOL   H57441006   2.714   1.323   3.227  0.9160  0.8065 -0.4152
   57MOL   H57541007   2.597   1.221   3.069 -2.3071 -0.2229 -1.1941
   57MOL   H57641008   2.101   0.868   3.445  2.4791  0.0586 -0.3352
   57MOL   H57741009   2.150   0.628   3.406  4.5756  1.4664 -1.4589
   57MOL   C57841010   2.477   1.375   3.019 -0.0530  0.8419  0.0810
   57MOL   O57941011   2.400   1.463   3.059  0.1522  0.4232  0.2057
   57MOL   C58041012   2.480   1.335   2.871 -0.0689 -0.5758 -0.6717
   57MOL   C58141013   2.388   1.377   2.770 -0.4119 -0.0861 -0.1519
   57MOL   C58241014   2.406   1.354   2.627  0.6901 -0.0406 -1.4697
   57MOL   C58341015   2.513   1.280   2.580 -1.0028 -0.1324  0.4352
   57MOL   C58441016   2.533   1.251   2.435 -0.1225 -0.2393  0.1598
   57MOL   O58541017   2.466   1.306   2.345 -0.3827  0.6322 -0.0461
   57MOL   N58641018   2.628   1.168   2.406  0.0165  0.4555  0.5163
   57MOL   C58741019   2.652   1.130   2.263  0.2235  0.4258  0.0856
   57MOL   C58841020   2.683   0.978   2.246  0.1056  0.2759  0.0134
   57MOL   C58941021   2.571   0.882   2.302 -0.9668 -0.7830  0.0539
   57MOL   C59041022   2.441   0.895   2.223 -0.3696  0.4113 -0.2391
   57MOL   C59141023   2.352   0.770   2.225  0.3025 -0.1179  0.4059
   57MOL   C59241024   2.205   0.796   2.161 -0.3736  0.0073 -0.0598
   57MOL   N59341025   2.123   0.673   2.168  0.4621 -0.0622  0.0689
   57MOL   C59441026   2.608   1.245   2.681 -0.1361  0.7237 -0.2302
   57MOL   C59541027   2.592   1.271   2.819  0.0355  0.4642 -0.7304
   57MOL   H59641028   2.295   1.428   2.793  1.0741  1.3397  3.0027
   57MOL   H59741029   2.327   1.390   2.562 -0.9571 -0.3225  0.3154
   57MOL   H59841030   2.669   1.110   2.478 -1.5436 -2.0310 -0.5724
   57MOL   H59941031   2.575   1.167   2.195  1.0922 -0.9805 -1.7063
   57MOL   H60041032   2.739   1.175   2.215  0.1311 -1.9041 -2.3908
   57MOL   H60141033   2.774   0.954   2.300 -0.1334 -0.0232  0.2858
   57MOL   H60241034   2.706   0.963   2.140  2.6573 -0.8373  0.6866
   57MOL   H60341035   2.619   0.784   2.299  1.5989  0.4866 -1.5052
   57MOL   H60441036   2.548   0.895   2.408  1.2685 -1.4616  0.6529
   57MOL   H60541037   2.463   0.927   2.121  1.2838  0.2522  0.0556
   57MOL   H60641038   2.391   0.979   2.270  3.2610  2.0571  0.8742
   57MOL   H60741039   2.341   0.749   2.331  2.3198  2.2762  1.1447
   57MOL   H60841040   2.404   0.692   2.169  1.1266  2.5832 -2.7999
   57MOL   H60941041   2.149   0.874   2.213 -0.9582 -3.1819  4.4427
   57MOL   H61041042   2.214   0.832   2.059 -1.0121  2.7963  0.8159
   57MOL   H61141043   2.176   0.588   2.181  0.4774  0.0807  1.0453
   57MOL   H61241044   2.697   1.192   2.651 -0.2775  0.5799 -0.3956
   57MOL   H61341045   2.671   1.236   2.883 -1.3280  1.9370  1.8654
   57MOL   C61441046   1.988   0.662   2.192 -1.0989 -0.2639 -0.2488
   57MOL   O61541047   1.911   0.761   2.191  0.1284 -0.1445 -0.2183
   57MOL   C61641048   1.934   0.525   2.227  0.0052  0.0330 -0.0461
   57MOL   C61741049   1.807   0.510   2.279 -1.1478  0.4006  0.0496
   57MOL   C61841050   1.771   0.378   2.316 -0.5712 -0.6764 -0.4759
   57MOL   C61941051   1.853   0.265   2.304  0.3274  0.1305  0.5221
   57MOL   C62041052   1.795   0.135   2.347 -0.6635 -0.4143 -0.5120
   57MOL   O62141053   1.708   0.127   2.434 -0.5554 -0.4601 -0.0148
   57MOL   N62241054   1.833   0.025   2.284  0.7668  0.7405 -0.2461
   57MOL   C62341055   1.770   7.777   2.294 -0.0667  0.6051  0.1223
   57MOL   C62441056   1.757   7.709   2.160  0.3360 -1.0097  0.4067
   57MOL   C62541057   1.682   7.575   2.168 -0.1644 -0.1526 -0.2814
   57MOL   C62641058   1.702   7.480   2.046  0.4892 -0.7617  0.6810
   57MOL   C62741059   1.637   7.342   2.072  0.4707  0.1487 -0.1989
   57MOL   C62841060   1.738   7.236   2.119  0.4963  0.5464 -0.2616
   57MOL   N62941061   1.788   7.274   2.247 -0.2295  0.7005  0.0422
   57MOL   C63041062   1.977   0.285   2.239  0.1030  0.2493 -0.2985
   57MOL   C63141063   2.017   0.415   2.207 -0.6734 -0.2931  0.3786
   57MOL   H63241064   1.746   0.599   2.284 -0.3257  1.0355 -1.0819
   57MOL   H63341065   1.677   0.368   2.368  0.1923 -3.7365  0.3746
   57MOL   H63441066   1.894   0.043   2.205 -1.3757  2.0965 -1.6507
   57MOL   H63541067   1.834   7.715   2.356  0.0373 -1.6184 -2.1154
   57MOL   H63641068   1.671   7.780   2.338 -0.4858 -0.1483 -0.7728
   57MOL   H63741069   1.855   7.688   2.118 -1.1849 -1.6188 -3.0694
   57MOL   H63841070   1.701   7.762   2.083 -2.1595 -1.2703  1.9637
   57MOL   H63941071   1.706   7.513   2.255 -1.2327  1.2435  1.0561
   57MOL   H64041072   1.575   7.588   2.183  0.3399  2.4136  1.4184
   57MOL   H64141073   1.801   7.483   2.001 -0.8914  1.9900 -2.3548
   57MOL   H64241074   1.637   7.512   1.964  0.3959 -2.7795 -0.0838
   57MOL   H64341075   1.602   7.311   1.973  0.8156  3.2387 -1.3297
   57MOL   H64441076   1.552   7.341   2.141  0.7717  2.0046  0.2095
   57MOL   H64541077   1.687   7.140   2.127  0.1965  0.3714 -3.4999
   57MOL   H64641078   1.826   7.229   2.055  1.0157 -0.5472  0.5663
   57MOL   H64741079   1.722   7.258   2.322  0.4335 -1.4160  0.2001
   57MOL   H64841080   2.036   0.194   2.236 -3.0303 -1.8503 -0.9055
   57MOL   H64941081   2.113   0.427   2.160 -0.5551  3.0158  1.3542
   57MOL   C65041082   1.917   7.316   2.279 -0.1202 -0.1558  0.0167
   57MOL   O65141083   2.003   7.330   2.190 -0.4263 -0.0840 -0.1134
   57MOL   C65241084   1.963   7.334   2.420  0.0827 -1.3312 -0.0338
   57MOL   C65341085   1.883   7.278   2.521  0.4125 -0.4914  0.0485
   57MOL   C65441086   1.925   7.288   2.653 -0.1112  0.2494  0.1332
   57MOL   C65541087   2.035   7.361   2.697 -0.7778  0.1114  0.1973
   57MOL   C65641088   2.066   7.376   2.843 -0.3274  0.2235  0.1569
   57MOL   O65741089   2.025   7.296   2.924  0.8768 -0.2880 -0.0450
   57MOL   N65841090   2.145   7.477   2.874  0.2976  0.9712  0.1999
   57MOL   C65941091   2.189   7.518   3.005 -0.1106 -0.3560  0.5593
   57MOL   C66041092   2.342   7.528   3.008  0.1465  0.7388 -0.8575
   57MOL   C66141093   2.403   7.579   3.135 -0.2224 -1.2350 -0.5188
   57MOL   C66241094   2.555   7.598   3.137  0.2708 -0.4272 -0.0515
   57MOL   C66341095   2.617   7.667   3.263  0.0294 -0.0599 -0.6630
   57MOL   C66441096   2.578   7.821   3.264  0.6227 -0.3714  0.5754
   57MOL   N66541097   2.647   7.880   3.377  0.0546  0.5183 -0.9314
   57MOL   C66641098   2.114   7.420   2.593 -0.1389  0.0058 -0.1902
   57MOL   C66741099   2.074   7.416   2.460  0.2493  0.0767 -0.0072
   57MOL   H66841100   1.792   7.227   2.495 -0.0796 -0.2679  1.2821
   57MOL   H66941101   1.869   7.232   2.725  0.7151  2.4838  2.5992
   57MOL   H67041102   2.165   7.546   2.803  0.2617  0.8092  0.0294
   57MOL   H67141103   2.150   7.617   3.028  0.3623  0.2750 -1.2274
   57MOL   H67241104   2.140   7.454   3.078 -1.0510 -1.1905 -0.7829
   57MOL   H67341105   2.364   7.596   2.925  0.1575  0.8504 -0.7620
   57MOL   H67441106   2.380   7.429   2.982 -0.0969  1.2086 -3.1112
   57MOL   H67541107   2.350   7.671   3.164  1.2804 -1.0226  1.6920
   57MOL   H67641108   2.376   7.519   3.222 -0.3484  0.2492  0.4961
   57MOL   H67741109   2.592   7.659   3.055 -2.0902  0.8505 -0.2101
   57MOL   H67841110   2.593   7.496   3.130  0.5841 -0.4433  1.5109
   57MOL   H67941111   2.724   7.655   3.276  0.1958  2.8282  1.1744
   57MOL   H68041112   2.581   7.614   3.352  1.6337  1.0247  0.6571
   57MOL   H68141113   2.612   7.863   3.170  0.2171  0.5101  0.8181
   57MOL   H68241114   2.470   7.834   3.277  0.6088 -1.8317  2.0578
   57MOL   H68341115   2.603   7.872   3.468 -0.7148 -1.1847 -1.4447
   57MOL   H68441116   2.207   7.468   2.618  0.9629 -2.5689  0.7995
   57MOL   H68541117   2.151   7.449   2.392  1.3075  1.7087  1.9401
   57MOL   C68641118   2.761   0.061   3.381  0.4595  0.0300 -0.3287
   57MOL   O68741119   2.824   0.086   3.281 -0.7025 -1.0042 -0.4304
   57MOL   C68841120   2.804   0.116   3.515 -0.1283 -0.2666  0.7100
   57MOL   C68941121   2.903   0.216   3.528  0.0232 -0.0089  0.3381
   57MOL   C69041122   2.934   0.276   3.652  0.4316  0.6217  0.6959
   57MOL   C69141123   2.871   0.229   3.769  0.8946  0.8330 -0.4458
   57MOL   C69241124   2.896   0.294   3.902 -0.6567  0.1003  0.3048
   57MOL   O69341125   2.878   0.229   4.006 -0.2868 -0.6946 -0.4857
   57MOL   N69441126   2.920   0.428   3.891 -0.1974  0.4477  0.0101
   57MOL   C69541127   2.935   0.515   4.005  0.0716 -0.5383  0.5314
   57MOL   C69641128   2.938   0.665   3.961 -0.2702  0.1680  0.1010
   57MOL   C69741129   2.964   0.748   4.086  0.1331  0.2308 -0.3046
   57MOL   C69841130   3.010   0.893   4.057  0.2587 -0.3895 -0.1370
   57MOL   C69941131   2.899   0.981   4.001 -0.0799  0.1368 -0.4750
   57MOL   C70041132   2.940   1.121   3.964 -0.0395  0.2122 -0.1173
   57MOL   N70141133   2.834   1.216   3.974  0.4179  0.1208  0.7931
   57MOL   C70241134   2.788   0.117   3.755 -0.1044  0.5003  0.6839
   57MOL   C70341135   2.745   0.062   3.631  0.1055 -0.7640  0.6091
   57MOL   H70441136   2.949   0.264   3.443  2.6119 -4.7949 -1.1704
   57MOL   H70541137   2.996   0.364   3.648  0.9634  0.3191  2.0801
   57MOL   H70641138   2.923   0.473   3.801  0.5417  1.7626  0.6926
   57MOL   H70741139   2.870   0.490   4.088 -3.0913  0.6292 -1.5301
   57MOL   H70841140   3.035   0.490   4.040 -0.3866 -0.9456  1.5606
   57MOL   H70941141   2.837   0.692   3.929  0.1068  0.6116 -0.7276
   57MOL   H71041142   3.014   0.681   3.885  1.3620  0.1233  1.6950
   57MOL   H71141143   2.869   0.733   4.137  0.8470 -0.0328  0.9461
   57MOL   H71241144   3.029   0.694   4.154  1.4920  2.8022  0.5162
   57MOL   H71341145   3.091   0.893   3.984 -0.6254 -1.6420 -1.1363
   57MOL   H71441146   3.063   0.937   4.142  0.7145 -0.8500 -0.1778
   57MOL   H71541147   2.834   0.990   4.088 -0.1085 -0.9364 -0.3786
   57MOL   H71641148   2.850   0.923   3.923 -1.4179  3.1329 -1.9032
   57MOL   H71741149   3.019   1.150   4.034 -1.4623 -1.3915  2.2369
   57MOL   H71841150   2.992   1.117   3.868  1.5492  1.1028  0.6785
   57MOL   H71941151   2.859   1.285   4.043  2.1241 -0.4988  0.8214
   57MOL   H72041152   2.735   0.084   3.843 -2.0925  0.5839 -0.4463
   57MOL   H72141153   2.675   7.866   3.636  0.1990 -0.7257  2.9037
   57MOL   H72241154   2.822   1.268   3.888  2.0914  0.7045  0.9036
   58MOL     C141155   0.321   7.708   6.485  0.1677 -0.3017  0.8426
   58MOL     O241156   0.392   7.784   6.557 -0.0451 -0.1046 -0.0920
   58MOL     C341157   0.188   7.649   6.517  0.0309 -0.7142 -0.2505
   58MOL     C441158   0.126   7.570   6.419  0.7917  0.0246 -0.0806
   58MOL     C541159   7.881   7.523   6.440 -0.1195 -0.3244 -0.0372
   58MOL     C641160   7.826   7.544   6.566  0.1257 -0.4883  0.9239
   58MOL     C741161   7.701   7.466   6.593 -0.1869 -0.8159 -0.0839
   58MOL     O841162   7.665   7.369   6.527 -0.3284  0.6931 -0.1981
   58MOL     N941163   7.627   7.507   6.693  0.3692 -0.2175 -0.0823
   58MOL    C1041164   7.498   7.457   6.738  0.1554 -0.1957  0.3047
   58MOL    C1141165   7.401   7.576   6.771 -0.0224 -0.0883  0.7507
   58MOL    C1241166   7.253   7.533   6.791  0.0087 -0.0072  0.3070
   58MOL    C1341167   7.154   7.649   6.814  0.5678  0.0102 -0.9331
   58MOL    C1441168   7.000   7.613   6.819 -0.7684  0.4506  0.1948
   58MOL    C1541169   6.918   7.735   6.865 -0.1558  0.4256 -0.6753
   58MOL    N1641170   6.785   7.702   6.909 -0.2705  0.1688 -0.2014
   58MOL    C1741171   7.886   7.628   6.662  0.1994  0.8731  0.4134
   58MOL    C1841172   0.128   7.681   6.642 -0.0839  0.0934  0.1537
   58MOL    H1941173   0.177   7.534   6.332  1.4607 -3.0057  1.4852
   58MOL    H2041174   7.837   7.455   6.368  2.1534  1.4171 -3.2039
   58MOL    H2141175   7.661   7.596   6.728  0.7999 -1.7049  3.5829
   58MOL    H2241176   7.454   7.417   6.647  0.2078  0.8407 -0.1841
   58MOL    H2341177   7.509   7.382   6.816  0.2608 -0.1618  0.3230
   58MOL    H2441178   7.389   7.643   6.686  1.3171 -0.3803  0.3255
   58MOL    H2541179   7.432   7.640   6.853 -0.5399  0.8850  0.1925
   58MOL    H2641180   7.227   7.460   6.714 -1.2789  2.4683 -1.7116
   58MOL    H2741181   7.257   7.472   6.881  0.5824  0.8905  0.9025
   58MOL    H2841182   7.165   7.723   6.735 -1.2614  0.2120 -1.0123
   58MOL    H2941183   7.180   7.709   6.901 -2.0886 -1.2079  0.7902
   58MOL    H3041184   6.985   7.534   6.892  0.2926  1.6228  1.7240
   58MOL    H3141185   6.963   7.565   6.728  2.5677 -1.5759 -0.1910
   58MOL    H3241186   6.954   7.797   6.948 -2.0125  0.1004  0.4070
   58MOL    H3341187   6.914   7.798   6.776 -3.1443  1.8459  0.3896
   58MOL    H3441188   6.776   7.682   7.007 -0.4938  2.6532  0.3172
   58MOL    H3541189   7.842   7.647   6.759  1.9435 -0.5110  1.5129
   58MOL    H3641190   0.182   7.739   6.715  2.5306 -1.1481 -0.7343
   58MOL    H3741191   0.370   7.671   6.394  0.1452 -0.8803  1.0629
   58MOL    C3841192   6.675   7.711   6.833 -0.2751 -0.4578 -0.9233
   58MOL    O3941193   6.677   7.728   6.711  0.4619 -0.2236  0.0745
   58MOL    C4041194   6.546   7.727   6.908 -0.1960 -0.1972 -0.1306
   58MOL    C4141195   6.529   7.684   7.040  0.1570  0.3768  0.1781
   58MOL    C4241196   6.411   7.716   7.112 -0.0163 -0.2716 -0.0591
   58MOL    C4341197   6.303   7.782   7.045  1.0353 -0.0692 -0.1100
   58MOL    C4441198   6.183   7.829   7.122 -0.1071 -0.1338  0.0451
   58MOL    O4541199   6.109   0.029   7.072 -0.3251  0.1159  0.5706
   58MOL    N4641200   6.171   7.783   7.250 -0.0084 -0.4034  0.5808
   58MOL    C4741201   6.071   7.827   7.351  0.1667  0.2488  0.0487
   58MOL    C4841202   5.932   7.847   7.299  0.3983 -0.0834  0.2277
   58MOL    C4941203   5.834   0.002   7.412 -0.1234 -0.2880  0.4161
   58MOL    C5041204   5.861   0.130   7.499  0.5086 -0.3544 -0.1267
   58MOL    C5141205   5.742   0.164   7.585  0.2005 -0.0348 -0.1009
   58MOL    C5241206   5.778   0.290   7.676 -0.2050  0.7252 -0.2937
   58MOL    N5341207   5.800   0.411   7.593 -0.0287  0.3203  0.9397
   58MOL    C5441208   6.323   7.830   6.912 -0.5106 -0.1025  0.2762
   58MOL    C5541209   6.440   7.799   6.844 -0.7478  0.2595  0.7558
   58MOL    H5641210   6.603   7.626   7.093  1.5997  0.8060 -1.3221
   58MOL    H5741211   6.401   7.679   7.213  2.8049 -0.7169  0.0830
   58MOL    H5841212   6.244   7.722   7.286  1.1109  0.6371  0.1143
   58MOL    H5941213   6.058   7.753   7.430 -1.5778 -0.9293 -1.3051
   58MOL    H6041214   6.119   0.028   7.396 -0.9535  0.7018  0.3997
   58MOL    H6141215   5.892   7.764   7.241 -0.0617  0.2096  0.1173
   58MOL    H6241216   5.929   0.044   7.227 -2.0915 -2.1332 -2.1487
   58MOL    H6341217   5.735   0.007   7.367  0.1519 -2.4942 -0.5261
   58MOL    H6441218   5.837   7.803   7.480  0.6714 -1.1540 -0.6703
   58MOL    H6541219   5.881   0.215   7.434 -0.4779 -0.7631 -1.0001
   58MOL    H6641220   5.946   0.106   7.562  2.6305 -1.3037 -3.2466
   58MOL    H6741221   5.713   0.079   7.646 -4.0725  2.7741  2.0104
   58MOL    H6841222   5.649   0.195   7.538 -0.8502 -0.8194  1.4259
   58MOL    H6941223   5.690   0.324   7.731 -0.2501  1.6519 -0.9269
   58MOL    H7041224   5.861   0.262   7.741  0.3754  0.2187 -1.2500
   58MOL    H7141225   5.891   0.425   7.552  0.0512  0.7505  1.2611
   58MOL    H7241226   6.245   0.002   6.866  0.2104  0.5336 -0.1573
   58MOL    H7341227   6.451   7.835   6.743  1.1883  1.4892  1.3764
   58MOL    C7441228   5.713   0.506   7.556 -0.1884  0.2592 -0.7127
   58MOL    O7541229   5.599   0.504   7.604 -0.4251 -0.1747  0.1190
   58MOL    C7641230   5.758   0.605   7.455  0.4220  0.0852  0.3060
   58MOL    C7741231   5.886   0.602   7.397 -0.6976 -0.6981 -0.7774
   58MOL    C7841232   5.924   0.689   7.294 -0.1311 -0.5544 -0.7769
   58MOL    C7941233   5.837   0.794   7.253  0.5268 -0.2118  0.6426
   58MOL    C8041234   5.871   0.890   7.146  0.6776  0.0042 -0.5181
   58MOL    O8141235   5.839   1.013   7.151  0.1076 -0.0826  0.2352
   58MOL    N8241236   5.941   0.840   7.042  0.4885  0.1867  0.6858
   58MOL    C8341237   5.976   0.915   6.919  0.2011  0.4189  0.9428
   58MOL    C8441238   5.917   0.852   6.788 -0.1449  0.3384 -0.3240
   58MOL    C8541239   5.943   0.946   6.663  0.5109  0.2190  0.5304
   58MOL    C8641240   5.884   0.884   6.538 -0.3089 -0.7972  0.8010
   58MOL    C8741241   5.940   0.957   6.413 -0.1199 -0.1035  0.2174
   58MOL    C8841242   5.914   1.111   6.398 -0.1748  0.5187  0.2021
   58MOL    N8941243   6.041   1.187   6.389  0.2963 -0.1277  0.6564
   58MOL    C9041244   5.699   0.794   7.306 -0.3055 -0.0604 -0.3176
   58MOL    C9141245   5.667   0.704   7.407 -0.7377 -0.1376  0.0770
   58MOL    H9241246   5.953   0.524   7.432 -1.4023 -1.9968 -2.2413
   58MOL    H9341247   6.022   0.682   7.249  1.0832  0.3683  1.6329
   58MOL    H9441248   5.979   0.747   7.050 -0.2231 -0.1852 -0.1833
   58MOL    H9541249   5.942   1.018   6.927 -0.4367  0.1975  1.1144
   58MOL    H9641250   6.084   0.914   6.908 -0.0680 -1.7195 -2.0576
   58MOL    H9741251   5.810   0.835   6.806  0.2074  0.0484  1.6634
   58MOL    H9841252   5.968   0.756   6.776 -0.6088  0.0721 -0.1878
   58MOL    H9941253   5.913   1.049   6.686  1.6619  1.4607 -3.2188
   58MOL   H10041254   6.052   0.950   6.657  0.6404  0.1001  2.4411
   58MOL   H10141255   5.777   0.901   6.536 -0.2295 -0.3899  0.1275
   58MOL   H10241256   5.897   0.775   6.536  1.5526 -0.5825  0.1769
   58MOL   H10341257   5.901   0.903   6.327 -0.6971 -2.3870  1.8818
   58MOL   H10441258   6.047   0.936   6.419 -0.1143  0.3688  2.1727
   58MOL   H10541259   5.863   1.144   6.307 -1.0880  2.7108  1.4741
   58MOL   H10641260   5.856   1.154   6.479  0.9055  2.4931 -0.0550
   58MOL   H10741261   6.080   1.195   6.297 -1.7228 -0.7494 -0.2847
   58MOL   H10841262   5.632   0.874   7.278 -2.0310 -0.5439  2.3240
   58MOL   H10941263   5.568   0.701   7.450 -0.3027  1.7820  1.2698
   58MOL   C11041264   6.116   1.245   6.484  0.4226 -0.2545  0.2403
   58MOL   O11141265   6.075   1.249   6.602 -0.0385  0.3484  0.2000
   58MOL   C11241266   6.248   1.302   6.435 -0.1834 -0.4313 -0.1058
   58MOL   C11341267   6.297   1.423   6.485  0.6040  0.1412 -0.2587
   58MOL   C11441268   6.419   1.484   6.446  0.2678  0.4878 -0.0266
   58MOL   C11541269   6.501   1.414   6.352 -0.1353 -0.3863  0.0681
   58MOL   C11641270   6.631   1.471   6.311  0.3636  0.4295 -0.2486
   58MOL   O11741271   6.631   1.576   6.245 -0.4940 -0.9078 -0.6672
   58MOL   N11841272   6.737   1.423   6.376 -0.5887  0.4860  0.2509
   58MOL   C11941273   6.864   1.490   6.406 -1.2900 -0.1666 -0.1845
   58MOL   C12041274   6.937   1.449   6.536  0.4126 -0.2283 -0.0763
   58MOL   C12141275   7.066   1.522   6.553 -0.4406  0.0086 -0.5066
   58MOL   C12241276   7.112   1.518   6.696  0.3221  0.0712 -0.4853
   58MOL   C12341277   7.229   1.607   6.728  0.2244  0.3978 -0.2217
   58MOL   C12441278   7.287   1.608   6.867  0.1660  0.2308  0.1728
   58MOL   N12541279   7.372   1.725   6.887  0.2973 -0.3234 -0.4387
   58MOL   C12641280   6.462   1.281   6.320  0.1864  0.0335  0.3144
   58MOL   C12741281   6.337   1.224   6.358  0.0692 -0.1526 -0.0629
   58MOL   H12841282   6.249   1.483   6.561 -1.0858 -1.3169 -0.1375
   58MOL   H12941283   6.447   1.583   6.479  2.1192  0.1433 -0.5085
   58MOL   H13041284   6.721   1.335   6.423  1.2228  0.5106  0.9784
   58MOL   H13141285   6.941   1.494   6.330 -0.3242 -1.2462  0.7230
   58MOL   H13241286   6.846   1.595   6.427 -2.4003 -0.6852  1.6075
   58MOL   H13341287   6.951   1.341   6.544  1.3648  0.0431  2.4403
   58MOL   H13441288   6.871   1.479   6.617 -0.6158 -1.7654 -0.3129
   58MOL   H13541289   7.148   1.484   6.492  1.0001  0.9036  0.8345
   58MOL   H13641290   7.065   1.624   6.516 -1.7679  0.4011  0.5768
   58MOL   H13741291   7.149   1.418   6.720 -0.2704  0.1638  0.8510
   58MOL   H13841292   7.031   1.551   6.761  0.8953  0.3887  0.0637
   58MOL   H13941293   7.197   1.708   6.703 -0.6122  0.0405 -0.6281
   58MOL   H14041294   7.312   1.593   6.659 -1.0198 -0.7385 -1.5361
   58MOL   H14141295   7.204   1.591   6.935  0.1634  0.1365  0.1464
   58MOL   H14241296   7.348   1.521   6.889  0.8697  0.3338 -1.3018
   58MOL   H14341297   7.333   1.805   6.934  0.1559 -1.8062  2.1049
   58MOL   H14441298   6.527   1.221   6.257  1.5602  2.3870 -0.5487
   58MOL   H14541299   6.311   1.125   6.324 -0.8787 -0.3481  1.2316
   58MOL   C14641300   7.503   1.734   6.857  0.5508 -0.3642 -0.0901
   58MOL   O14741301   7.568   1.639   6.810 -0.1838  0.3795  0.2398
   58MOL   C14841302   7.560   1.876   6.881 -0.5148 -0.5173  0.4217
   58MOL   C14941303   7.532   1.943   7.001  0.2056 -0.0861 -0.0069
   58MOL   C15041304   7.572   2.080   7.016 -0.3030  0.4199  0.2825
   58MOL   C15141305   7.633   2.145   6.911  0.1850 -0.4678  0.1829
   58MOL   C15241306   7.676   2.288   6.932 -1.1010  0.3021 -0.0052
   58MOL   O15341307   7.623   2.364   7.010  0.0990  0.7025 -0.5751
   58MOL   N15441308   7.775   2.328   6.843  0.4795 -0.5177  0.3241
   58MOL   C15541309   7.793   2.469   6.804  0.0971 -0.1668  0.3480
   58MOL   C15641310   7.884   2.554   6.897  0.0436 -0.6911 -0.3738
   58MOL   C15741311   0.016   2.706   6.855 -0.6956 -0.2365 -0.5119
   58MOL   C15841312   0.105   2.774   6.949  0.7364 -0.2778  0.0001
   58MOL   C15941313   0.152   2.908   6.895 -1.3547  0.1332 -0.6769
   58MOL   C16041314   0.256   2.969   6.985 -0.2133  0.2036  0.2127
   58MOL   N16141315   0.216   2.996   7.128 -0.0092 -0.1719 -0.3589
   58MOL   C16241316   7.673   2.073   6.796 -0.1102 -0.0324  0.1971
   58MOL   C16341317   7.631   1.942   6.786  0.6795  0.3478 -1.0691
   58MOL   H16441318   7.486   1.893   7.085  0.1474 -3.1786 -1.8011
   58MOL   H16541319   7.552   2.141   7.103  0.7522 -0.0886  0.8907
   58MOL   H16641320   7.822   2.261   6.783  1.3966 -0.3691  0.8628
   58MOL   H16741321   7.841   2.464   6.706  0.0787 -2.2209  0.4135
   58MOL   H16841322   7.699   2.524   6.798  1.2556  2.1756  2.7212
   58MOL   H16941323   0.098   2.513   6.886  0.6463  0.0090  2.1967
   58MOL   H17041324   7.858   2.530   7.000  1.6419 -0.0929  0.1728
   58MOL   H17141325   0.055   2.710   6.753 -1.1636 -0.4636 -0.7031
   58MOL   H17241326   7.803   2.752   6.853  0.0949  1.6036  1.2159
   58MOL   H17341327   0.191   2.708   6.959  0.7508 -0.1907  0.4430
   58MOL   H17441328   0.059   2.788   7.047 -0.9225  0.2353 -0.8224
   58MOL   H17541329   0.072   2.979   6.872 -0.9510  0.6118 -0.6220
   58MOL   H17641330   0.207   2.888   6.803  1.2598 -1.9862  1.2764
   58MOL   H17741331   0.337   2.897   6.983 -1.1160 -0.8817  1.9176
   58MOL   H17841332   0.309   3.059   6.953  0.7830 -0.3232  0.3954
   58MOL   H17941333   0.127   3.044   7.132  0.4425  0.6157  0.4084
   58MOL   H18041334   7.744   2.109   6.724  0.3388 -1.4036 -0.0445
   58MOL   H18141335   7.649   1.875   6.703 -2.6340 -2.2913  0.1935
   58MOL   C18241336   0.269   2.952   7.244  0.2576 -0.2984 -0.2364
   58MOL   O18341337   0.372   2.888   7.254  0.2066 -0.2613  0.1535
   58MOL   C18441338   0.186   2.979   7.359 -0.0697 -0.3610  0.3744
   58MOL   C18541339   0.227   3.051   7.467 -0.1984  0.1143  0.3031
   58MOL   C18641340   0.156   3.063   7.585  0.5459  0.3917  0.1557
   58MOL   C18741341   0.039   2.988   7.602  0.4753  0.2477 -0.4202
   58MOL   C18841342   7.845   2.983   7.732  0.1539 -0.0138 -0.1654
   58MOL   O18941343   7.789   2.886   7.774  0.3796  0.0268 -0.4579
   58MOL   N19041344   7.850   3.095   7.797 -0.2775  0.1907 -0.2672
   58MOL   C19141345   7.794   3.116   0.041 -0.4787  0.0054  0.2760
   58MOL   C19241346   7.703   3.241   0.043 -0.4409  0.5118  0.3858
   58MOL   C19341347   7.786   3.366   0.020  1.1114 -0.5617  0.3542
   58MOL   C19441348   7.721   3.476   0.101  0.8170 -0.5368  0.1688
   58MOL   C19541349   7.781   3.618   0.061  0.2291 -0.3059  0.1823
   58MOL   C19641350   7.725   3.727   0.144  0.2937 -0.2765  1.0248
   58MOL   N19741351   7.778   3.862   0.111 -0.0485  0.1881 -0.2132
   58MOL   C19841352   7.870   2.926   7.485 -0.4132  0.5034 -0.0441
   58MOL   C19941353   0.064   2.914   7.364  0.0679  0.2347 -1.4948
   58MOL   H20041354   0.327   3.092   7.463  0.3819 -1.0822  2.1428
   58MOL   H20141355   0.204   3.113   7.668  2.3695  0.1292 -0.7283
   58MOL   H20241356   0.003   3.180   7.759 -1.5361  0.7667 -0.3057
   58MOL   H20341357   7.742   3.028   0.079 -1.5615 -0.1108 -1.4162
   58MOL   H20441358   7.873   3.139   0.113 -0.9819  0.7173  0.5992
   58MOL   H20541359   7.657   3.242   0.142  1.6117 -2.5990  1.4464
   58MOL   H20641360   7.623   3.233   7.856  0.2074 -1.5326 -0.1507
   58MOL   H20741361   0.002   3.343   0.049  0.8434 -1.0419  0.9422
   58MOL   H20841362   7.787   3.400   7.802 -1.0786  1.6300  1.0043
   58MOL   H20941363   7.736   3.448   0.205  0.5102  0.5591  0.5127
   58MOL   H21041364   7.615   3.482   0.076  1.1190  1.6322 -0.6705
   58MOL   H21141365   7.740   3.628   7.847  0.0055 -2.1544  0.0622
   58MOL   H21241366   0.003   3.626   0.072  0.4379  1.1144 -2.5201
   58MOL   H21341367   7.618   3.725   0.120  0.7084 -1.3604 -0.8322
   58MOL   H21441368   7.742   3.711   0.250  4.1870  0.3278  0.5685
   58MOL   H21541369   7.819   3.880   0.020 -1.5865  0.9013 -0.7803
   58MOL   H21641370   7.776   2.872   7.490 -0.2867  0.4052  1.4956
   58MOL   H21741371   0.032   2.845   7.287 -1.4663  0.6564 -1.2492
   58MOL   C21841372   7.793   3.969   0.192  0.4297 -0.4590 -0.5417
   58MOL   O21941373   7.740   3.979   0.302 -1.0640  0.4771  0.1864
   58MOL   C22041374   0.000   4.077   0.148 -0.2861  0.3567  0.2108
   58MOL   C22141375   7.861   4.212   0.171 -0.5651  0.1247 -0.6141
   58MOL   C22241376   0.067   4.304   0.140  0.6884 -0.1225 -0.5857
   58MOL   C22341377   0.188   4.272   0.089  0.1148  0.4331 -0.3154
   58MOL   C22441378   0.295   4.378   0.071 -0.4737 -0.6503  0.4006
   58MOL   O22541379   0.393   4.357   0.003  0.5619 -0.4021 -0.5053
   58MOL   N22641380   0.269   4.500   0.129 -0.1207 -0.2669 -0.4988
   58MOL   C22741381   0.355   4.620   0.134 -0.3624  0.1585 -0.9483
   58MOL   C22841382   0.279   4.760   0.166  1.1529  0.2644  0.7591
   58MOL   C22941383   0.361   4.881   0.181 -0.0241  0.2670  0.1794
   58MOL   C23041384   0.291   5.017   0.160 -0.9254  0.3795 -0.4510
   58MOL   C23141385   0.197   5.063   0.272  0.3860  0.4757 -0.5683
   58MOL   C23241386   0.265   5.084   0.408  1.0335 -0.4303 -0.1378
   58MOL   N23341387   0.385   5.158   0.392  0.1526 -0.5695 -0.4578
   58MOL   C23441388   0.217   4.139   0.055 -0.6312  0.0189 -0.3557
   58MOL   C23541389   0.122   4.039   0.091 -0.3231  0.0119 -0.0939
   58MOL   H23641390   7.767   4.245   0.213  1.0564  0.6036  2.8105
   58MOL   H23741391   0.035   4.407   0.149 -0.7235 -0.6288  0.3751
   58MOL   H23841392   0.174   4.507   0.165  0.8476  1.1705  1.9460
   58MOL   H23941393   0.426   4.601   0.215 -1.3366  2.3897  0.4829
   58MOL   H24041394   0.415   4.632   0.044  2.0741 -1.3752  0.3964
   58MOL   H24141395   0.212   4.756   0.251 -0.9508  0.1042 -0.8759
   58MOL   H24241396   0.219   4.785   0.079  0.1918  0.0034  1.3482
   58MOL   H24341397   0.404   4.884   0.281  1.1227 -0.4550 -0.2839
   58MOL   H24441398   0.449   4.875   0.118 -2.3347  1.9660 -3.3258
   58MOL   H24541399   0.227   5.014   0.072  0.7067  1.0183 -1.6859
   58MOL   H24641400   0.376   5.085   0.152 -1.1925  0.7077 -0.4617
   58MOL   H24741401   0.122   4.988   0.297  1.8907 -0.4577  1.2893
   58MOL   H24841402   0.153   5.156   0.238 -1.8193  0.0200  0.9335
   58MOL   H24941403   0.206   5.153   0.468 -0.7721  0.2780 -2.6493
   58MOL   H25041404   0.280   4.998   0.473 -0.5357  0.4086  1.3739
   58MOL   H25141405   0.401   5.201   0.301  0.5492 -1.4082 -0.7894
   58MOL   H25241406   0.313   4.109   0.016  0.4048  1.3195  1.1437
   58MOL   H25341407   0.142   3.934   0.077  2.9047  0.3816  1.2539
   58MOL   C25441408   0.469   5.186   0.496  0.0524 -0.1912  0.1184
   58MOL   O25541409   0.464   5.152   0.617 -0.4775  0.7090  0.3592
   58MOL   C25641410   0.581   5.289   0.465 -0.5539  0.3443  0.4374
   58MOL   C25741411   0.589   5.396   0.551  0.8542 -0.6737  0.8597
   58MOL   C25841412   0.680   5.506   0.520 -0.4436  0.3184 -0.1019
   58MOL   C25941413   0.758   5.498   0.402  1.1615 -0.4462  0.4527
   58MOL   C26041414   0.842   5.611   0.361  0.6207  0.6185 -0.2733
   58MOL   O26141415   0.852   5.649   0.249  0.5936  0.5453  0.2144
   58MOL   N26241416   0.907   5.673   0.463 -0.0000  0.4684  0.1606
   58MOL   C26341417   0.981   5.794   0.440 -0.7779 -0.5665 -0.0678
   58MOL   C26441418   1.135   5.769   0.447  1.1403  0.9686 -0.3436
   58MOL   C26541419   1.214   5.893   0.405  0.9454 -0.0894 -0.9465
   58MOL   C26641420   1.364   5.862   0.424  0.0055 -0.1526 -0.1472
   58MOL   C26741421   1.456   5.980   0.386 -0.2245  0.2458 -0.0654
   58MOL   C26841422   1.607   5.941   0.391 -0.5075 -0.1904 -0.2813
   58MOL   N26941423   1.692   6.062   0.378 -0.3568  0.0854  0.6328
   58MOL   C27041424   0.739   5.390   0.313 -0.7153  0.2559  0.2759
   58MOL   C27141425   0.662   5.282   0.345  0.5728 -0.9490  0.2484
   58MOL   H27241426   0.520   5.400   0.634  1.0240  1.9153  0.9274
   58MOL   H27341427   0.679   5.597   0.579  0.4141  0.1108  0.2407
   58MOL   H27441428   0.900   5.631   0.555  2.0511 -1.2870 -0.4400
   58MOL   H27541429   0.951   5.853   0.353 -0.5729  2.5929  1.8940
   58MOL   H27641430   0.945   5.852   0.526 -0.8882 -1.6925  0.6565
   58MOL   H27741431   1.151   5.677   0.391 -2.0408 -0.2475  0.6624
   58MOL   H27841432   1.149   5.743   0.552  1.4071 -0.7155 -0.7769
   58MOL   H27941433   1.197   5.916   0.300  0.4345 -2.2184 -1.3598
   58MOL   H28041434   1.176   5.982   0.455 -1.2371 -0.1589 -2.4311
   58MOL   H28141435   1.390   5.779   0.358 -0.0332  1.0477 -1.6999
   58MOL   H28241436   1.380   5.819   0.523  2.9899  0.8452 -0.1578
   58MOL   H28341437   1.449   6.059   0.461 -0.1318 -1.2437  1.5567
   58MOL   H28441438   1.456   6.009   0.281 -1.5912  0.3424 -0.0365
   58MOL   H28541439   1.637   5.888   0.482 -0.2231  1.0076  0.3321
   58MOL   H28641440   1.628   5.887   0.299 -3.5304 -1.9659  0.0086
   58MOL   H28741441   1.662   6.133   0.313  2.0467  0.7717  0.2270
   58MOL   H28841442   0.788   5.397   0.217 -1.5099 -0.6299 -0.2023
   58MOL   H28941443   0.657   5.197   0.279 -1.6825 -1.4397  0.9940
   58MOL   C29041444   1.802   6.091   0.444 -0.5387 -0.4456  0.5338
   58MOL   O29141445   1.853   6.002   0.504 -0.4164  0.0102 -0.6069
   58MOL   C29241446   1.868   6.225   0.417  0.2015  0.4167 -0.1689
   58MOL   C29341447   2.006   6.236   0.431  0.1630 -0.3296 -1.0781
   58MOL   C29441448   2.066   6.363   0.420  0.1497 -0.3286 -0.4236
   58MOL   C29541449   1.993   6.473   0.382  0.4597  0.1021  0.4278
   58MOL   C29641450   2.056   6.607   0.368  0.3914 -0.4151  0.2271
   58MOL   O29741451   2.143   6.621   0.279  0.4455  0.1894  0.0687
   58MOL   N29841452   2.015   6.703   0.454  0.3291 -0.5635 -0.1867
   58MOL   C29941453   2.058   6.840   0.464  0.1163 -0.1940  0.3397
   58MOL   C30041454   1.960   6.921   0.556  0.5805  0.0206  0.2347
   58MOL   C30141455   1.823   6.941   0.492 -0.3717 -0.6067  0.1335
   58MOL   C30241456   1.721   6.825   0.512  0.4153  0.2114  0.0217
   58MOL   C30341457   1.591   6.848   0.441 -0.1769 -0.5036  0.7751
   58MOL   C30441458   1.470   6.777   0.511 -0.0402  0.1844  0.0932
   58MOL   N30541459   1.342   6.783   0.442 -0.0669  0.5365  0.2046
   58MOL   C30641460   1.850   6.463   0.370  0.2435  0.0880  0.5470
   58MOL   C30741461   1.792   6.338   0.388 -0.8043 -0.5708  0.5139
   58MOL   H30841462   2.067   6.149   0.451 -1.1169 -1.2023 -0.8750
   58MOL   H30941463   2.168   6.379   0.454 -0.1981 -2.0445  1.5372
   58MOL   H31041464   1.934   6.672   0.505 -0.3589  0.4230 -0.6697
   58MOL   H31141465   2.153   6.851   0.517 -0.3278  3.5253  0.5218
   58MOL   H31241466   2.079   6.876   0.364 -0.3701 -1.5556 -0.2571
   58MOL   H31341467   1.993   7.024   0.565  2.8714 -0.8790  2.7312
   58MOL   H31441468   1.953   6.878   0.656 -2.1585  2.0705  0.9894
   58MOL   H31541469   1.780   7.033   0.531  2.0064  0.6661 -0.1293
   58MOL   H31641470   1.841   6.958   0.386 -0.8938  0.1499  0.1677
   58MOL   H31741471   1.710   6.817   0.620  0.4714  2.5874  0.2110
   58MOL   H31841472   1.767   6.733   0.476 -0.0616  1.1278 -3.0675
   58MOL   H31941473   1.596   6.827   0.334  0.9261 -1.9503  1.1066
   58MOL   H32041474   1.565   6.954   0.442  2.0603  0.0517  1.2448
   58MOL   H32141475   1.500   6.672   0.516  1.1548  0.5592  0.8165
   58MOL   H32241476   1.452   6.811   0.613 -0.1434 -0.0533  0.1562
   58MOL   H32341477   1.345   6.778   0.341 -2.1805 -1.1041  0.1896
   58MOL   H32441478   1.775   6.541   0.363 -0.2459 -0.4607 -0.4015
   58MOL   H32541479   1.685   6.335   0.373 -0.6583  0.1359 -0.6836
   58MOL   C32641480   1.223   6.765   0.497 -0.1758 -0.2401  0.3747
   58MOL   O32741481   1.208   6.747   0.620 -0.2732 -0.3521  0.4340
   58MOL   C32841482   1.104   6.743   0.401  0.3086 -0.6558  0.2336
   58MOL   C32941483   1.123   6.747   0.260  0.1712  0.1701 -0.0838
   58MOL   C33041484   1.016   6.751   0.171  0.4945 -0.3721 -0.0212
   58MOL   C33141485   0.882   6.740   0.210 -0.4395  0.5378 -0.0822
   58MOL   C33241486   0.773   6.743   0.111  0.8143  0.3472  0.0408
   58MOL   O33341487   0.763   6.841   0.041 -0.1826 -0.2143  0.2233
   58MOL   N33441488   0.694   6.634   0.099 -0.3401  0.0038 -0.4028
   58MOL   C33541489   0.596   6.610   7.882 -0.0148 -0.5684  0.0612
   58MOL   C33641490   0.458   6.586   0.049  0.4603 -0.2641  0.3421
   58MOL   C33741491   0.433   6.448   0.103 -0.0352  0.4771  0.4202
   58MOL   C33841492   0.302   6.432   0.186  0.4991 -0.8088 -0.0365
   58MOL   C33941493   0.171   6.485   0.126 -0.7214  0.1913 -0.5624
   58MOL   C34041494   0.035   6.464   0.197 -0.5778 -0.0240  0.4248
   58MOL   N34141495   0.014   6.315   0.194 -1.2059 -0.4375  0.8806
   58MOL   C34241496   0.866   6.714   0.351  0.4285 -0.3489 -0.4488
   58MOL   C34341497   0.971   6.726   0.448 -0.2542  1.3606  0.1854
   58MOL   H34441498   1.225   6.768   0.229  0.4432 -0.6256  0.2621
   58MOL   H34541499   1.026   6.759   0.063 -0.2352  0.2016 -0.0469
   58MOL   H34641500   0.735   6.555   0.146 -1.0123 -0.5140 -0.6794
   58MOL   H34741501   0.605   6.691   7.809  2.0595  0.0318  0.9569
   58MOL   H34841502   0.624   6.520   7.826 -0.6662 -1.1167  0.6189
   58MOL   H34941503   0.394   6.600   7.849  0.4824 -0.7336  0.2512
   58MOL   H35041504   0.421   6.664   0.116  2.9513  1.7421 -0.5056
   58MOL   H35141505   0.436   6.371   0.026 -0.0332  1.9614 -1.0883
   58MOL   H35241506   0.520   6.419   0.162 -0.0410  1.6222  1.0142
   58MOL   H35341507   0.311   6.479   0.284  0.6639  0.9413 -0.8609
   58MOL   H35441508   0.290   6.336   0.236 -0.4834 -0.4145  0.5087
   58MOL   H35541509   0.156   6.442   0.027  2.0490 -3.6510  0.5946
   58MOL   H35641510   0.188   6.589   0.098  0.2748 -0.3902 -2.2168
   58MOL   H35741511   0.046   6.502   0.299 -1.0947 -0.3240  0.5938
   58MOL   H35841512   7.832   6.511   0.157 -0.3141 -0.7649 -1.0388
   58MOL   H35941513   0.057   6.258   0.266  0.5923 -0.4274 -0.1472
   58MOL   H36041514   0.764   6.698   0.383  0.4953 -0.0478 -0.0741
   58MOL   H36141515   0.947   6.722   0.554 -0.7502  0.5370  0.0404
   58MOL   C36241516   7.807   6.252   0.123  0.8444  0.4639  0.1823
   58MOL   O36341517   7.726   6.310   0.048 -0.4152  0.2099 -0.1250
   58MOL   C36441518   7.811   6.108   0.146 -0.0309 -0.2987 -1.1037
   58MOL   C36541519   7.699   6.041   0.195  0.4803  0.5149 -0.2007
   58MOL   C36641520   7.690   5.902   0.213  0.4911 -0.4796  0.3039
   58MOL   C36741521   7.810   5.832   0.187 -0.0738 -0.1364 -0.2722
   58MOL   C36841522   7.820   5.685   0.223 -0.2355  0.4018  0.5983
   58MOL   O36941523   7.756   5.647   0.316 -0.5097  0.4152  0.6545
   58MOL   N37041524   0.020   5.607   0.150 -0.8049  0.5943  0.0927
   58MOL   C37141525   0.025   5.471   0.177 -0.3914 -0.0573  0.8058
   58MOL   C37241526   0.084   5.388   0.056 -0.1195 -0.2017  0.8523
   58MOL   C37341527   0.213   5.453   7.884  0.4864  0.6102 -0.0690
   58MOL   C37441528   0.335   5.426   0.084  0.0011  0.3332 -0.3929
   58MOL   C37541529   0.433   5.543   0.109  0.6721  0.7876  0.3741
   58MOL   C37641530   0.406   5.606   0.248  0.0070  0.0815  0.7785
   58MOL   N37741531   0.484   5.729   0.274  0.0882 -0.7001  0.3055
   58MOL   C37841532   0.042   5.900   0.147  0.1487 -0.7239 -0.4496
   58MOL   C37941533   0.050   6.040   0.124  0.4041  0.1834 -0.0887
   58MOL   H38041534   7.611   6.102   0.205  0.6152  0.9237 -1.3885
   58MOL   H38141535   7.598   5.856   0.245 -0.8123  2.2919  0.7555
   58MOL   H38241536   0.044   5.636   0.056  2.0043  0.2474  0.6834
   58MOL   H38341537   0.084   5.448   0.266 -0.8782  1.5755  1.5754
   58MOL   H38441538   7.811   5.433   0.194 -1.1360  0.2487 -2.5896
   58MOL   H38541539   0.012   5.377   7.861 -0.4427 -1.2288  1.2775
   58MOL   H38641540   0.083   5.283   0.086  0.1967 -0.9336 -1.6117
   58MOL   H38741541   0.233   5.414   7.784 -0.7484  2.2412 -0.9694
   58MOL   H38841542   0.199   5.560   7.875  0.8888  0.6885  0.2342
   58MOL   H38941543   0.388   5.356   0.020 -0.7004  0.4575 -1.1248
   58MOL   H39041544   0.313   5.368   0.173 -0.4907  1.7414  0.4249
   58MOL   H39141545   0.432   5.609   0.023  2.4986  2.2930  1.4689
   58MOL   H39241546   0.540   5.519   0.114  0.3659 -1.5470 -2.9860
   58MOL   H39341547   0.299   5.626   0.248 -0.0552  0.0388 -2.2872
   58MOL   H39441548   0.447   5.530   0.314 -2.4804 -2.6685 -0.7285
   58MOL   H39541549   0.552   5.734   0.348 -0.6191 -1.9543  1.0630
   58MOL   H39641550   0.131   5.840   0.133  0.8025 -0.7190  3.0914
   58MOL   H39741551   0.144   6.078   0.085 -0.6019  2.5859 -0.3109
   58MOL   C39841552   0.471   5.839   0.198  0.5439  0.2137  0.2791
   58MOL   O39941553   0.388   5.847   0.108 -0.0799 -0.0846 -0.0286
   58MOL   C40041554   0.568   5.950   0.226 -0.1081 -0.5027  0.4035
   58MOL   C40141555   0.515   6.072   0.264 -0.4692  0.4209 -0.8267
   58MOL   C40241556   0.598   6.190   0.270 -0.5116 -0.2494  0.9244
   58MOL   C40341557   0.739   6.177   0.230 -0.6941 -0.1810 -0.9149
   58MOL   C40441558   0.836   6.294   0.239 -0.9838 -0.0614 -0.2159
   58MOL   O40541559   0.793   6.410   0.230 -0.0169  0.1341  0.1407
   58MOL   N40641560   0.966   6.261   0.277 -0.5466 -0.3164 -0.6768
   58MOL   C40741561   1.081   6.359   0.276  0.1268 -0.2280  0.0580
   58MOL   C40841562   1.220   6.278   0.292  0.2723 -0.2227  0.1702
   58MOL   C40941563   1.346   6.363   0.292  0.3172 -0.5960  0.1095
   58MOL   C41041564   1.398   6.420   0.159  0.8832 -0.2689  0.7680
   58MOL   C41141565   1.519   6.513   0.174 -0.0380 -1.2346 -0.3384
   58MOL   C41241566   1.566   6.584   0.049 -0.5898 -0.6030  0.2230
   58MOL   N41341567   1.474   6.661   7.854  0.1001  0.4447  0.0977
   58MOL   C41441568   0.786   6.048   0.195  0.4490 -0.0954  0.5976
   58MOL   C41541569   0.705   5.938   0.201 -0.1383 -0.3173 -0.7858
   58MOL   H41641570   0.413   6.085   0.298 -0.0747  1.2951  0.0436
   58MOL   H41741571   0.552   6.279   0.310 -0.5778 -0.3291  1.0264
   58MOL   H41841572   0.968   6.170   0.321  3.3044 -0.1839 -0.4331
   58MOL   H41941573   1.084   6.411   0.180  0.9749  0.8371  0.6524
   58MOL   H42041574   1.064   6.440   0.347  1.1478 -1.5761  1.8860
   58MOL   H42141575   1.227   6.197   0.219 -0.9945 -0.7813  0.6595
   58MOL   H42241576   1.207   6.219   0.383 -0.2619  0.3559  0.4725
   58MOL   H42341577   1.323   6.441   0.365  0.7422  1.7510 -2.1622
   58MOL   H42441578   1.415   6.297   0.345 -3.0422 -1.0681  4.1004
   58MOL   H42541579   1.312   6.464   0.108  1.1250  1.5238  1.8760
   58MOL   H42641580   1.434   6.333   0.104  2.3190  0.5098  0.4492
   58MOL   H42741581   1.605   6.466   0.220  1.5365  1.8487 -0.0371
   58MOL   H42841582   1.485   6.597   0.235  0.0369 -0.4204 -1.3973
   58MOL   H42941583   1.643   6.655   0.078 -1.9039 -0.1008  2.6390
   58MOL   H43041584   1.602   6.512   7.861  0.6488  1.6900 -1.4545
   58MOL   H43141585   1.433   6.608   7.779 -1.5851 -1.7580  2.4932
   58MOL   H43241586   0.884   6.031   0.151 -0.6854  0.1004 -2.0827
   58MOL   H43341587   0.739   5.841   0.167 -0.2180 -0.9826  0.9719
   58MOL   C43441588   1.420   6.781   7.874 -0.3221  0.0220 -0.2718
   58MOL   O43541589   1.443   6.846   0.092  0.3157  0.0465 -0.7663
   58MOL   C43641590   1.310   6.818   7.786 -0.5970 -0.3989 -0.4469
   58MOL   C43741591   1.214   6.915   7.833 -0.2189  0.1781 -0.7306
   58MOL   C43841592   1.101   6.939   7.759  0.1624 -0.2052 -0.5298
   58MOL   C43941593   1.068   6.864   7.648 -0.2297 -0.4162 -0.5295
   58MOL   C44041594   0.945   6.897   7.564  0.6698 -0.2703  0.2697
   58MOL   O44141595   0.949   6.920   7.447  0.3325 -0.4176  0.2324
   58MOL   N44241596   0.831   6.889   7.636  0.4487  0.3776  0.3392
   58MOL   C44341597   0.704   6.939   7.594  0.5354 -0.5676 -0.1717
   58MOL   C44441598   0.694   7.092   7.593 -0.4083  0.0124  0.0954
   58MOL   C44541599   0.691   7.138   7.743 -0.1703 -0.6513  0.1500
   58MOL   C44641600   0.667   7.285   7.774 -0.1984 -0.5347  0.1500
   58MOL   C44741601   0.757   7.384   7.694  0.2220  0.4685  0.5211
   58MOL   C44841602   0.907   7.383   7.723  0.0272  0.9296 -0.2875
   58MOL   N44941603   0.981   7.480   7.643 -0.8337 -0.6142 -0.8116
   58MOL   C45041604   1.164   6.773   7.598 -0.7383 -0.0890 -0.3441
   58MOL   C45141605   1.284   6.746   7.670  0.0540 -0.2938 -0.6919
   58MOL   H45241606   1.234   6.971   0.037 -3.9491  1.3078 -0.5325
   58MOL   H45341607   1.034   7.017   7.791 -0.0322 -0.5441 -0.0935
   58MOL   H45441608   0.835   6.860   7.732 -0.1376  0.4677  0.3918
   58MOL   H45541609   0.694   6.908   7.490 -0.3459 -1.2452  0.1076
   58MOL   H45641610   0.622   6.899   7.655 -0.8404  2.3014 -0.0398
   58MOL   H45741611   0.600   7.111   7.542 -1.2033 -1.7360  0.8556
   58MOL   H45841612   0.774   7.135   7.532 -0.9594 -0.2683 -0.8344
   58MOL   H45941613   0.614   7.077   7.789 -0.2894 -0.2681  0.4624
   58MOL   H46041614   0.781   7.108   7.797 -0.9149  1.2539  2.5476
   58MOL   H46141615   0.684   7.304   7.880 -0.6548 -1.8422  0.4592
   58MOL   H46241616   0.566   7.312   7.742 -0.5268 -1.3446  0.4899
   58MOL   H46341617   0.718   7.481   7.726  0.6275  1.3617 -1.5458
   58MOL   H46441618   0.729   7.361   7.591 -0.3311  0.5091  0.6583
   58MOL   H46541619   0.928   7.389   7.830 -1.6842 -0.0624  0.1196
   58MOL   H46641620   0.942   7.287   7.683  2.4751  2.1829 -1.2753
   58MOL   H46741621   0.915   7.543   7.598 -1.6682 -0.1072  1.0575
   58MOL   H46841622   1.139   6.713   7.512 -0.8266 -0.8544  0.2106
   58MOL   H46941623   1.356   6.679   7.627 -0.8438 -2.2612  0.7845
   58MOL   C47041624   1.111   7.502   7.640 -0.2652 -0.2650 -0.2268
   58MOL   O47141625   1.190   7.450   7.714 -0.1934  0.0351 -0.0201
   58MOL   C47241626   1.151   7.607   7.537  0.5923  0.0610 -0.0905
   58MOL   C47341627   1.063   7.653   7.442 -0.3464  0.5422  0.4342
   58MOL   C47441628   1.112   7.750   7.348  0.3055  0.0795 -0.3601
   58MOL   C47541629   1.243   7.806   7.356 -0.5131  0.4638  0.9124
   58MOL   C47641630   1.275   0.033   7.261 -0.4908  0.6030  0.6733
   58MOL   O47741631   1.184   0.101   7.214 -0.0395  0.1316  0.1537
   58MOL   N47841632   1.408   0.056   7.242  0.6023 -0.6141 -0.2099
   58MOL   C47941633   1.460   0.160   7.154 -0.2557 -0.0995 -0.7263
   58MOL   C48041634   1.503   0.111   7.016 -0.2158 -0.0753  0.2400
   58MOL   C48141635   1.533   0.234   6.931 -0.0525  0.7305  1.2468
   58MOL   C48241636   1.414   0.297   6.854  0.0318  0.0728  0.2427
   58MOL   C48341637   1.457   0.415   6.770 -0.3291 -0.3942 -1.3311
   58MOL   C48441638   1.340   0.484   6.692  0.0877  0.4628 -0.1705
   58MOL   N48541639   1.333   0.445   6.557  0.1563 -0.5633  0.2434
   58MOL   C48641640   1.329   7.757   7.460  0.4992  0.9492  0.4808
   58MOL   C48741641   1.280   7.660   7.543  0.0271 -0.3382  0.0226
   58MOL   H48841642   0.969   7.604   7.422 -0.1126  0.3490 -0.2250
   58MOL   H48941643   1.048   7.784   7.267 -1.9002 -0.9008  0.9311
   58MOL   H49041644   1.467   7.868   7.279  1.5708  1.2502  2.1320
   58MOL   H49141645   1.395   0.247   7.147 -0.8076 -0.4410  0.0549
   58MOL   H49241646   1.550   0.198   7.204 -0.3604 -0.0579 -0.5667
   58MOL   H49341647   1.422   0.052   6.971 -0.0839 -0.0979  0.0327
   58MOL   H49441648   1.588   0.044   7.012 -0.8756 -0.8609 -1.3097
   58MOL   H49541649   1.588   0.310   6.985  0.9667  1.2789 -0.5384
   58MOL   H49641650   1.603   0.196   6.856 -0.6931  0.3515  0.8252
   58MOL   H49741651   1.337   0.341   6.917  0.0507 -0.6684  0.7898
   58MOL   H49841652   1.368   0.222   6.789 -0.1418  0.1858  0.2346
   58MOL   H49941653   1.547   0.396   6.712  0.3126 -1.4057 -0.0068
   58MOL   H50041654   1.481   0.494   6.841  2.2187 -1.2157 -1.2403
   58MOL   H50141655   1.246   0.477   6.746  0.0067 -1.2450 -0.5034
   58MOL   H50241656   1.360   0.592   6.693 -0.4589  0.6285 -2.4565
   58MOL   H50341657   1.365   0.511   6.488 -0.3275  0.1953  0.7268
   58MOL   H50441658   1.426   7.805   7.469  0.8165  0.1235  1.5119
   58MOL   H50541659   1.340   7.631   7.628  0.5836  1.4387  0.2564
   58MOL   C50641660   1.270   0.336   6.510  0.6502 -0.1783  0.1969
   58MOL   O50741661   1.254   0.242   6.574 -0.1806 -0.0964 -0.2978
   58MOL   C50841662   1.221   0.337   6.370  0.5319  0.2474 -1.2293
   58MOL   C50941663   1.226   0.222   6.293 -0.4529 -0.2238  0.4252
   58MOL   C51041664   1.164   0.209   6.169 -0.4581  0.6969  0.1895
   58MOL   C51141665   1.118   0.325   6.104  0.1477  0.0008 -0.7740
   58MOL   C51241666   1.058   0.314   5.962  0.1966 -0.0195 -0.3357
   58MOL   O51341667   1.039   0.204   5.907  0.1713 -0.6133  0.1047
   58MOL   N51441668   1.038   0.429   5.890  0.3966  0.0958 -0.1703
   58MOL   C51541669   1.021   0.438   5.745 -0.3845  0.9586 -0.3279
   58MOL   C51641670   1.129   0.528   5.683 -0.1376 -0.0321  0.6344
   58MOL   C51741671   1.262   0.451   5.666  0.2166 -0.2203  0.0139
   58MOL   C51841672   1.271   0.353   5.558  0.6311 -0.3212 -0.0345
   58MOL   C51941673   1.369   0.239   5.572  0.1835  0.3787 -0.2467
   58MOL   C52041674   1.353   0.136   5.458 -0.0257 -0.2230  0.7397
   58MOL   N52141675   1.421   0.190   5.340  0.4745 -0.1701  0.0900
   58MOL   C52241676   1.133   0.449   6.170  0.3278 -0.1432  0.4281
   58MOL   C52341677   1.179   0.452   6.305  0.1852 -0.5217  0.4043
   58MOL   H52441678   1.264   0.133   6.341  0.3249 -0.1743 -0.0918
   58MOL   H52541679   1.149   0.114   6.120  1.0353  2.1371 -3.2672
   58MOL   H52641680   1.066   0.510   5.944  2.4897 -0.3405 -0.5470
   58MOL   H52741681   1.023   0.339   5.700 -0.5239  0.2605  1.1566
   58MOL   H52841682   0.915   0.457   5.731 -0.5564  0.9562  0.9311
   58MOL   H52941683   1.138   0.626   5.732  0.5582  1.4888 -2.4198
   58MOL   H53041684   1.097   0.566   5.586 -0.3169 -0.4248  0.5421
   58MOL   H53141685   1.344   0.523   5.660 -0.4490  0.5825  0.4711
   58MOL   H53241686   1.269   0.400   5.763 -0.0934  0.2269  0.2741
   58MOL   H53341687   1.295   0.403   5.464 -0.7215 -1.3808 -0.9571
   58MOL   H53441688   1.174   0.305   5.547 -0.5400  1.2874  2.7077
   58MOL   H53541689   1.355   0.192   5.669  2.7305  2.1093  1.0501
   58MOL   H53641690   1.472   0.277   5.575  0.9438 -1.7458  1.6507
   58MOL   H53741691   1.407   0.047   5.489  0.5338 -0.6681 -1.4640
   58MOL   H53841692   1.249   0.114   5.435  0.2692 -1.6765  0.7606
   58MOL   H53941693   1.468   0.279   5.347  0.0579  0.5342 -4.4682
   58MOL   H54041694   1.092   0.535   6.118 -0.2227 -1.6102 -1.6218
   58MOL   H54141695   1.182   0.545   6.359 -0.5728  0.7252 -1.6534
   58MOL   C54241696   1.448   0.119   5.232 -0.0384  0.1783 -0.5164
   58MOL   O54341697   1.394   0.014   5.208 -0.0995  0.6549  0.0354
   58MOL   C54441698   1.536   0.181   5.132 -0.2191  0.6416  0.2780
   58MOL   C54541699   1.535   0.135   4.998 -0.3120  0.1318  0.5409
   58MOL   C54641700   1.645   0.176   4.918  0.1854 -0.2898  1.4671
   58MOL   C54741701   1.754   0.253   4.956  0.0748 -0.6156  0.1727
   58MOL   C54841702   1.871   0.285   4.871  0.4743  0.6460 -0.4777
   58MOL   O54941703   1.907   0.406   4.858  0.2953  0.0173 -0.4847
   58MOL   N55041704   1.931   0.179   4.817  0.8297 -0.7018  0.0596
   58MOL   C55141705   2.062   0.194   4.747  0.1296  0.5973  0.0410
   58MOL   C55241706   2.131   0.056   4.713  0.3364 -0.3683 -0.2789
   58MOL   C55341707   2.040   7.838   4.650  0.3994  0.6188  0.3055
   58MOL   C55441708   1.959   7.886   4.528  0.2915 -0.7246 -0.8163
   58MOL   C55541709   1.900   7.773   4.439 -0.2627 -0.2060 -0.3220
   58MOL   C55641710   1.828   7.830   4.310 -0.1356  0.4040  0.4789
   58MOL   N55741711   1.761   7.724   4.239 -0.2124  0.1307 -0.2956
   58MOL   C55841712   1.744   0.304   5.086  1.0165 -0.0654 -0.0308
   58MOL   C55941713   1.646   0.262   5.175  0.4070  0.2542  0.1259
   58MOL   H56041714   1.461   0.064   4.963  0.1715 -0.9359  1.6399
   58MOL   H56141715   1.663   0.137   4.819  4.9299  1.8154  1.4089
   58MOL   H56241716   1.906   0.084   4.842 -1.9209 -0.4613 -1.5341
   58MOL   H56341717   2.034   0.249   4.657 -0.3126 -2.2208 -1.6020
   58MOL   H56441718   2.132   0.258   4.801  0.1552  1.6560 -1.2177
   58MOL   H56541719   2.166   0.008   4.804 -1.2938  0.1511  0.6587
   58MOL   H56641720   2.219   0.078   4.653 -1.6222 -0.7240 -3.4093
   58MOL   H56741721   2.101   7.753   4.619  1.5056  0.2452  3.3479
   58MOL   H56841722   1.975   7.796   4.726  2.4308  0.2508  1.8885
   58MOL   H56941723   2.022   0.067   4.471  1.0655  1.2181  2.1961
   58MOL   H57041724   1.878   0.062   4.567  0.9715  0.8135 -1.8051
   58MOL   H57141725   1.822   7.720   4.495  0.3965 -0.7877  0.0671
   58MOL   H57241726   1.983   7.705   4.421  0.9600  0.5175  2.2295
   58MOL   H57341727   1.755   0.020   4.337  1.9324  3.1329 -1.2745
   58MOL   H57441728   1.897   7.882   4.243 -0.3333 -0.5257 -0.4602
   58MOL   H57541729   1.819   7.664   4.182  0.6702 -0.4222  1.1390
   58MOL   H57641730   1.817   0.376   5.120 -1.0035  3.1573 -2.2539
   58MOL   H57741731   1.659   0.302   5.274  0.2681 -0.6562  0.5126
   58MOL   C57841732   1.628   7.704   4.240  0.5426  0.2394 -0.6642
   58MOL   O57941733   1.545   7.771   4.302  0.2576 -0.0692 -0.0424
   58MOL   C58041734   1.583   7.583   4.154  0.2180  0.1410 -0.7904
   58MOL   C58141735   1.484   7.499   4.210  0.7430  1.0355 -0.0834
   58MOL   C58241736   1.416   7.410   4.134 -0.0723  0.1157 -0.4811
   58MOL   C58341737   1.465   7.382   4.003  0.0905  0.3606  0.1831
   58MOL   C58441738   1.409   7.278   3.917  0.2787  0.3183 -0.9063
   58MOL   O58541739   1.447   7.254   3.807 -0.0911 -0.0164 -0.0372
   58MOL   N58641740   1.296   7.227   3.967  0.0303 -0.4401 -0.1856
   58MOL   C58741741   1.199   7.154   3.882  0.0571  0.4901 -0.4686
   58MOL   C58841742   1.109   7.255   3.799  0.0665  0.2949  0.1781
   58MOL   C58941743   1.073   7.385   3.871 -0.3739  0.2811 -0.3101
   58MOL   C59041744   1.007   7.367   4.004  0.1041  0.6382 -0.1487
   58MOL   C59141745   1.033   7.484   4.096 -0.6483  0.3933 -0.6924
   58MOL   C59241746   0.996   7.618   4.043 -0.2042 -0.6139  0.1883
   58MOL   N59341747   1.068   7.738   4.103  0.6295 -0.8602  0.3582
   58MOL   C59441748   1.574   7.465   3.953 -0.3706 -0.2442  0.2870
   58MOL   C59541749   1.632   7.569   4.026 -0.2538  0.0735  0.3923
   58MOL   H59641750   1.445   7.513   4.310 -1.0290 -0.0938 -0.5973
   58MOL   H59741751   1.332   7.355   4.176  0.8401  0.2660  1.5791
   58MOL   H59841752   1.255   7.261   4.053  2.5762  2.6478 -0.1006
   58MOL   H59941753   1.242   7.073   3.823  1.5152  0.3218  0.8087
   58MOL   H60041754   1.135   7.100   3.952  1.8082 -0.5352  0.3713
   58MOL   H60141755   1.022   7.204   3.758 -0.2270 -0.2073  1.3837
   58MOL   H60241756   1.170   7.293   3.717  1.8766 -2.2680  0.2706
   58MOL   H60341757   1.167   7.440   3.884  0.1193 -1.2921  3.2343
   58MOL   H60441758   1.022   7.447   3.798  0.7582 -0.0657 -1.4231
   58MOL   H60541759   1.061   7.292   4.063  0.6412 -0.1775 -1.6365
   58MOL   H60641760   0.905   7.330   3.998  0.4616 -0.3739 -0.1434
   58MOL   H60741761   1.132   7.472   4.141 -0.8690 -1.6348 -0.6977
   58MOL   H60841762   0.964   7.479   4.180 -0.9109  1.0186 -0.8662
   58MOL   H60941763   1.009   7.627   3.935  1.2689 -0.1607  0.3818
   58MOL   H61041764   0.888   7.621   4.047 -0.1932  0.5539 -0.3735
   58MOL   H61141765   1.139   7.709   4.169  1.5177 -1.7228 -0.9711
   58MOL   H61241766   1.605   7.450   3.850 -1.1827 -1.6988  0.2378
   58MOL   H61341767   1.698   7.640   3.979  1.1557 -1.0537  0.6574
   58MOL   C61441768   1.040   7.867   4.090 -0.1886  0.0384  0.7830
   58MOL   O61541769   0.941   0.023   4.018  0.3643  0.3046 -0.7663
   58MOL   C61641770   1.128   0.083   4.164 -0.5828 -0.0205 -0.4656
   58MOL   C61741771   1.253   0.048   4.216 -0.2169  0.1767 -0.0565
   58MOL   C61841772   1.338   0.153   4.266 -0.1031  0.1955 -0.3177
   58MOL   C61941773   1.300   0.288   4.263  0.9142  0.2122  0.2929
   58MOL   C62041774   1.391   0.394   4.324  0.3741  0.0808  0.0397
   58MOL   O62141775   1.484   0.366   4.401 -0.1413 -0.5562 -0.2440
   58MOL   N62241776   1.355   0.519   4.284  0.1908 -0.4432 -0.0974
   58MOL   C62341777   1.406   0.639   4.347  0.0235 -0.0385  0.2898
   58MOL   C62441778   1.313   0.758   4.380  0.7056 -0.3304 -0.5545
   58MOL   C62541779   1.254   0.823   4.257  0.1150  0.0856  0.6199
   58MOL   C62641780   1.133   0.915   4.285 -0.0621 -0.2529 -0.1710
   58MOL   C62741781   1.117   0.998   4.159  0.5551 -0.2578 -0.4537
   58MOL   C62841782   1.007   1.107   4.179 -0.2522 -1.0771 -0.8582
   58MOL   N62941783   0.990   1.191   4.063 -0.1473  0.4533  0.0786
   58MOL   C63041784   1.170   0.313   4.213  0.1959  0.2622  0.5128
   58MOL   C63141785   1.091   0.213   4.154  0.2090  0.1682 -0.5526
   58MOL   H63241786   1.287   7.833   4.229  0.4999  0.6486  1.8487
   58MOL   H63341787   1.435   0.127   4.308 -1.4366 -2.8265  1.0140
   58MOL   H63441788   1.265   0.521   4.239 -0.5465 -3.4088  1.1182
   58MOL   H63541789   1.479   0.620   4.427  0.2875  2.1220  0.5808
   58MOL   H63641790   1.465   0.685   4.268  1.1585 -3.8808 -1.2150
   58MOL   H63741791   1.369   0.834   4.435  0.1635 -0.3147 -0.0299
   58MOL   H63841792   1.238   0.726   4.451  0.9068  4.1918  1.8993
   58MOL   H63941793   1.337   0.874   4.209  0.3222 -0.1037  0.7727
   58MOL   H64041794   1.218   0.755   4.181 -0.6507  0.3721  0.7257
   58MOL   H64141795   1.158   0.975   4.373 -2.2490 -0.5447  0.6786
   58MOL   H64241796   1.041   0.864   4.315  0.4603 -0.2447  1.4643
   58MOL   H64341797   1.114   0.933   4.071  0.5295  1.3106 -1.6367
   58MOL   H64441798   1.212   1.050   4.150  1.6577 -2.5067 -2.1897
   58MOL   H64541799   0.911   1.063   4.209 -1.3918  0.9052 -1.5603
   58MOL   H64641800   1.026   1.175   4.262  0.0263 -1.4458 -0.6200
   58MOL   H64741801   1.071   1.217   4.008 -1.3230  2.6331 -0.7034
   58MOL   H64841802   1.132   0.415   4.211 -2.0600 -0.5554 -1.3135
   58MOL   H64941803   0.992   0.228   4.112 -0.0626  0.9585  0.3478
   58MOL   C65041804   0.886   1.272   4.047 -0.1916  0.5874  0.0525
   58MOL   O65141805   0.783   1.251   4.118 -0.1971 -0.1212  0.1257
   58MOL   C65241806   0.886   1.366   3.932 -0.4020  0.5072  0.3001
   58MOL   C65341807   0.985   1.361   3.838  0.5241 -0.4010 -0.3702
   58MOL   C65441808   0.986   1.451   3.730 -0.3467 -0.8723 -0.3365
   58MOL   C65541809   0.901   1.554   3.726 -0.2198 -0.4734 -0.1273
   58MOL   C65641810   0.911   1.633   3.600  0.3778  0.6402 -0.4525
   58MOL   O65741811   0.953   1.588   3.493  0.5850  0.4425  0.1292
   58MOL   N65841812   0.881   1.765   3.604  0.8034  0.0797  0.4631
   58MOL   C65941813   0.871   1.856   3.490  0.5996 -0.0846  0.0721
   58MOL   C66041814   0.726   1.898   3.476  0.2194  0.3610  0.2327
   58MOL   C66141815   0.696   1.978   3.346 -0.3054 -0.3925 -0.4505
   58MOL   C66241816   0.554   2.032   3.336  0.3652  0.0633  0.0539
   58MOL   C66341817   0.522   2.149   3.430  0.0244 -0.7167 -0.2157
   58MOL   C66441818   0.379   2.210   3.422  0.0652 -0.3885  0.5285
   58MOL   N66541819   0.357   2.289   3.295 -0.0579  0.6905  0.1846
   58MOL   C66641820   0.798   1.562   3.822  0.2270  0.9138 -0.4428
   58MOL   C66741821   0.784   1.468   3.927 -0.2636 -0.8678  0.4574
   58MOL   H66841822   1.060   1.283   3.834  1.5155  0.5576 -0.4293
   58MOL   H66941823   1.061   1.439   3.653  2.3508  0.6731  1.9874
   58MOL   H67041824   0.815   1.784   3.678 -1.0906 -0.1954 -1.1130
   58MOL   H67141825   0.936   1.942   3.504  0.0578  0.2193  0.7057
   58MOL   H67241826   0.912   1.811   3.399  1.3347  0.5721  0.0758
   58MOL   H67341827   0.699   1.954   3.566 -0.8698 -0.1692  0.2492
   58MOL   H67441828   0.665   1.807   3.475 -1.6220  1.4591  3.4867
   58MOL   H67541829   0.767   2.060   3.346 -1.1174  0.3779  3.1754
   58MOL   H67641830   0.724   1.920   3.258 -0.1166  1.3338 -1.5584
   58MOL   H67741831   0.487   1.946   3.337 -1.0749  1.1633  1.6644
   58MOL   H67841832   0.547   2.073   3.236  0.5392  1.4358  0.5868
   58MOL   H67941833   0.597   2.226   3.410  0.6301 -1.5149 -1.0294
   58MOL   H68041834   0.529   2.130   3.537 -0.6839 -2.1733 -0.4200
   58MOL   H68141835   0.309   2.128   3.436  1.2616 -1.3183  1.2402
   58MOL   H68241836   0.359   2.265   3.514 -0.8785 -0.4793  0.3812
   58MOL   H68341837   0.411   2.374   3.282 -0.0542  0.7587  0.6469
   58MOL   H68441838   0.723   1.639   3.813 -0.4416  0.2003 -1.1022
   58MOL   H68541839   0.711   1.481   4.005  2.2831 -0.9336  2.9251
   58MOL   C68641840   0.275   2.247   3.193  0.8856  0.0905  0.7165
   58MOL   O68741841   0.227   2.135   3.200  0.5400  0.4736 -0.2967
   58MOL   C68841842   0.259   2.335   3.072 -0.2403 -0.0003  0.1489
   58MOL   C68941843   0.339   2.446   3.056 -0.6512 -0.6989  0.0265
   58MOL   C69041844   0.317   2.535   2.944  1.4015 -1.1040  0.1110
   58MOL   C69141845   0.232   2.496   2.841 -0.0023  0.3220 -0.5273
   58MOL   C69241846   0.206   2.578   2.720 -0.7307  0.8138  0.1168
   58MOL   O69341847   0.122   2.543   2.633 -0.2777 -0.5292 -0.2862
   58MOL   N69441848   0.273   2.688   2.710 -0.2343 -0.6722 -0.0751
   58MOL   C69541849   0.230   2.792   2.616 -0.2402  0.0333 -0.4202
   58MOL   C69641850   0.360   2.876   2.579 -0.0037 -0.2632  0.2523
   58MOL   C69741851   0.341   2.970   2.451  0.1539 -1.5446  0.2004
   58MOL   C69841852   0.444   3.085   2.446 -0.1682  0.4073  0.7458
   58MOL   C69941853   0.584   3.035   2.391 -0.1219 -0.2511  0.2690
   58MOL   C70041854   0.691   3.154   2.380 -0.0411 -0.2829 -0.6150
   58MOL   N70141855   0.722   3.213   2.507  0.2015  1.0668 -0.1492
   58MOL   C70241856   0.154   2.380   2.862 -0.0316  0.7552  0.5128
   58MOL   C70341857   0.165   2.301   2.975 -0.2638 -0.5722  0.5915
   58MOL   H70441858   0.412   2.467   3.132 -0.0974 -0.3439 -0.5966
   58MOL   H70541859   0.370   2.629   2.938 -0.1917  0.0162  2.6724
   58MOL   H70641860   0.347   2.711   2.775 -1.2510  0.6323  0.6539
   58MOL   H70741861   0.192   2.748   2.524  1.1876  0.1934 -1.0919
   58MOL   H70841862   0.151   2.855   2.656 -1.4015 -0.6630 -1.5985
   58MOL   H70941863   0.445   2.810   2.562  0.1129 -0.0240 -0.1156
   58MOL   H71041864   0.379   2.935   2.668 -1.5163 -2.0696  1.8295
   58MOL   H71141865   0.340   2.910   2.359 -1.9880  0.7722 -1.3441
   58MOL   H71241866   0.244   3.018   2.450  1.4439  1.1165 -1.2947
   58MOL   H71341867   0.454   3.120   2.549 -3.1217  0.1170  1.1676
   58MOL   H71441868   0.415   3.170   2.385 -0.6479  0.2689  0.7814
   58MOL   H71541869   0.574   3.005   2.287 -1.3802  1.0585 -0.0008
   58MOL   H71641870   0.627   2.950   2.445  1.4173  0.0042 -0.5252
   58MOL   H71741871   0.785   3.106   2.355 -0.6626 -2.4877  1.1418
   58MOL   H71841872   0.659   3.215   2.295  0.4759  1.1220  0.1855
   58MOL   H71941873   0.769   3.145   2.565 -0.7998  2.8571  2.8640
   58MOL   H72041874   0.081   2.346   2.789  1.2322 -0.0503 -0.4027
   58MOL   H72141875   0.097   2.217   2.978  0.1610 -0.9176  0.6332
   58MOL   H72241876   0.635   3.235   2.555  0.9560  0.0281  1.7681
   59MOL     C141877   6.681   3.931   0.131  0.0636 -0.1563 -0.9447
   59MOL     O241878   6.670   3.926   0.254  0.1611 -0.0453  0.0710
   59MOL     C341879   6.558   3.961   0.038 -0.2149  0.9499  0.1367
   59MOL     C441880   6.446   4.039   0.071  0.4177  0.4583  0.1457
   59MOL     C541881   6.335   4.047   7.866  0.6355  0.5829 -0.3597
   59MOL     C641882   6.327   3.968   7.743  0.1635  0.3816 -0.2833
   59MOL     C741883   6.204   3.974   7.658  0.0394 -0.0116 -0.5577
   59MOL     O841884   6.104   4.039   7.691  0.5298 -0.2073 -0.0607
   59MOL     N941885   6.212   3.903   7.545  0.0001  0.2066  0.2837
   59MOL    C1041886   6.096   3.881   7.458  0.4929 -0.3102  0.7164
   59MOL    C1141887   6.087   3.993   7.347 -0.1642  0.1153 -0.5719
   59MOL    C1241888   5.966   3.972   7.259  0.1536 -0.3178 -0.0408
   59MOL    C1341889   5.957   4.103   7.163 -0.4050  0.3382 -0.3192
   59MOL    C1441890   5.885   4.077   7.034  0.3506 -0.1195 -0.1603
   59MOL    C1541891   5.886   4.201   6.941  0.2678  0.3313  0.0091
   59MOL    N1641892   5.822   4.173   6.810  0.8200 -0.2802  0.3564
   59MOL    C1741893   6.446   3.904   7.706  0.4860  0.3169 -0.3774
   59MOL    C1841894   6.560   3.908   7.793 -0.4031  0.1348  0.2082
   59MOL    H1941895   6.444   4.078   0.171 -0.9997 -1.7243  1.0077
   59MOL    H2041896   6.250   4.099   0.020  0.0080  0.1593 -1.1057
   59MOL    H2141897   6.304   3.874   7.516  0.7128  0.0209  2.6037
   59MOL    H2241898   6.121   3.791   7.402 -1.1964 -0.6198  0.4371
   59MOL    H2341899   6.008   3.870   7.522  0.6258 -0.6671  0.8393
   59MOL    H2441900   6.178   4.003   7.288 -1.3058 -1.4935 -2.6915
   59MOL    H2541901   6.075   4.093   7.387  0.8300 -1.7132  4.7611
   59MOL    H2641902   5.972   3.883   7.197  0.2091 -1.3250  1.3878
   59MOL    H2741903   5.877   3.968   7.320 -0.5936  0.3531 -1.0675
   59MOL    H2841904   6.056   4.131   7.129 -0.0808 -2.2736 -1.6004
   59MOL    H2941905   5.915   4.192   7.211 -0.9910 -0.3384  0.4330
   59MOL    H3041906   5.781   4.054   7.059 -0.2445  0.7660 -1.7395
   59MOL    H3141907   5.934   3.993   6.985 -2.2432 -2.8117  1.6592
   59MOL    H3241908   5.843   4.287   6.991  2.1477  1.1727  0.2131
   59MOL    H3341909   5.986   4.238   6.918  0.5333  0.0146  0.6596
   59MOL    H3441910   5.721   4.169   6.811  0.7914  0.0917 -0.7824
   59MOL    H3541911   6.457   3.846   7.615  0.2597  0.1972 -0.3289
   59MOL    H3641912   6.643   3.849   7.756  0.2287  0.7613  0.6037
   59MOL    H3741913   6.768   3.920   0.065 -0.1560  0.7898 -1.4055
   59MOL    C3841914   5.878   4.161   6.692 -0.2448 -0.6869  0.2941
   59MOL    O3941915   5.993   4.197   6.674  0.4416 -0.3699  0.1183
   59MOL    C4041916   5.792   4.106   6.580  0.4196  0.1679 -0.6537
   59MOL    C4141917   5.838   4.124   6.450  0.3844 -0.0132 -0.1141
   59MOL    C4241918   5.772   4.056   6.346  0.3666 -0.2867  0.3197
   59MOL    C4341919   5.663   3.970   6.371  0.7955  0.4311 -0.0279
   59MOL    C4441920   5.582   3.911   6.262 -0.5343  0.0554  0.7597
   59MOL    O4541921   5.463   3.879   6.270  0.0460 -0.2376  0.0897
   59MOL    N4641922   5.648   3.885   6.149 -0.1513  0.6164 -0.0075
   59MOL    C4741923   5.586   3.857   6.022  0.1771 -0.1231 -0.5407
   59MOL    C4841924   5.600   3.977   5.932  0.6835  0.2451  0.3079
   59MOL    C4941925   5.750   4.008   5.887 -0.7216  0.1341  0.0565
   59MOL    C5041926   5.751   4.118   5.783 -0.4521  0.4710  0.2101
   59MOL    C5141927   5.687   4.246   5.839  0.0320 -0.2358 -0.2376
   59MOL    C5241928   5.719   4.357   5.742  0.1971 -0.0296 -0.0569
   59MOL    N5341929   5.665   4.480   5.796  0.5421  0.0823  0.0278
   59MOL    C5441930   5.619   3.951   6.504 -0.4293 -0.7215  0.7674
   59MOL    C5541931   5.686   4.020   6.609 -0.3465  0.1323  0.3680
   59MOL    H5641932   5.926   4.186   6.440 -0.4676  1.2740  0.2659
   59MOL    H5741933   5.799   4.077   6.244 -0.7418 -0.8659 -0.0999
   59MOL    H5841934   5.745   3.910   6.140  0.1411 -0.3454  0.3561
   59MOL    H5941935   5.629   3.765   5.980  0.9880  0.2838 -0.6123
   59MOL    H6041936   5.480   3.835   6.032 -0.0576  1.7438  1.1800
   59MOL    H6141937   5.561   4.059   5.992 -1.0487  0.9577 -1.7243
   59MOL    H6241938   5.531   3.961   5.848  0.4982 -0.6187  0.6216
   59MOL    H6341939   5.816   4.043   5.967 -0.8443  1.8385 -0.5746
   59MOL    H6441940   5.807   3.924   5.847 -0.5508  0.8478 -1.2203
   59MOL    H6541941   5.700   4.092   5.690 -0.9751 -1.7717  1.0914
   59MOL    H6641942   5.857   4.130   5.758 -0.1705 -1.8135  0.2001
   59MOL    H6741943   5.740   4.269   5.931  0.9468 -1.5111 -0.4256
   59MOL    H6841944   5.578   4.246   5.846  0.0834  1.3795  0.7132
   59MOL    H6941945   5.825   4.357   5.718  0.4874  2.1159  1.0979
   59MOL    H7041946   5.667   4.337   5.648  0.5351 -0.0453 -0.2422
   59MOL    H7141947   5.728   4.532   5.855 -0.3994  2.6448 -1.1450
   59MOL    H7241948   5.528   3.893   6.513 -1.1038 -0.0253 -1.2708
   59MOL    H7341949   5.651   4.006   6.710 -2.1440 -0.9815 -0.3781
   59MOL    C7441950   5.539   4.520   5.802 -0.5992  0.0439  0.0353
   59MOL    O7541951   5.449   4.469   5.736 -0.1043 -0.4829 -0.3110
   59MOL    C7641952   5.509   4.642   5.886 -0.2855 -0.0557 -0.2498
   59MOL    C7741953   5.380   4.698   5.884 -0.1378 -0.2163 -0.3377
   59MOL    C7841954   5.355   4.817   5.954 -0.6743  0.0615 -0.2023
   59MOL    C7941955   5.454   4.880   6.037  0.2335 -0.0429 -0.0570
   59MOL    C8041956   5.421   5.011   6.113 -0.2853 -0.0524 -0.1445
   59MOL    O8141957   5.518   5.093   6.147  0.1580 -0.0759 -0.3882
   59MOL    N8241958   5.290   5.042   6.131  0.0964  0.3772  0.5728
   59MOL    C8341959   5.240   5.168   6.182 -0.4140  0.1919 -0.6196
   59MOL    C8441960   5.274   5.194   6.328  0.6409 -0.3422  0.0347
   59MOL    C8541961   5.208   5.325   6.371 -0.6213  0.0135  0.2247
   59MOL    C8641962   5.228   5.358   6.520 -0.2747 -0.3855 -0.2782
   59MOL    C8741963   5.375   5.419   6.557  0.3406 -0.2465  0.0822
   59MOL    C8841964   5.391   5.442   6.705 -0.2476  0.0882 -0.9624
   59MOL    N8941965   5.508   5.527   6.741  0.3717  0.3699 -0.0661
   59MOL    C9041966   5.587   4.820   6.042  0.0934  0.5550  0.4538
   59MOL    C9141967   5.611   4.705   5.967  0.0506  0.8701  0.2590
   59MOL    H9241968   5.310   4.650   5.818  0.6937 -2.2686  0.2444
   59MOL    H9341969   5.258   4.864   5.944 -0.8725 -0.3246 -0.0826
   59MOL    H9441970   5.226   4.975   6.090  1.7352 -0.1660 -1.1447
   59MOL    H9541971   5.283   5.260   6.144  0.5026  0.4879  1.0981
   59MOL    H9641972   5.132   5.180   6.173 -0.2433  0.8297 -1.8427
   59MOL    H9741973   5.382   5.194   6.343  0.5738 -1.3199  0.5627
   59MOL    H9841974   5.238   5.109   6.386  1.5012 -2.1083 -1.9301
   59MOL    H9941975   5.225   5.419   6.319 -3.0038 -0.0022 -0.6291
   59MOL   H10041976   5.102   5.307   6.352 -0.2478 -1.5338 -0.4929
   59MOL   H10141977   5.212   5.270   6.583 -0.3735  1.5481  2.4881
   59MOL   H10241978   5.143   5.422   6.546 -0.8764 -1.5196  0.6222
   59MOL   H10341979   5.390   5.519   6.515 -0.1742 -0.1338  0.1621
   59MOL   H10441980   5.453   5.356   6.516 -0.6304  0.8932 -3.7716
   59MOL   H10541981   5.298   5.481   6.746 -0.6076  1.1932 -2.7749
   59MOL   H10641982   5.402   5.349   6.762 -0.8834  0.2189 -0.6265
   59MOL   H10741983   5.545   5.574   6.659  0.1802  0.4019 -0.1331
   59MOL   H10841984   5.661   4.865   6.106  0.2064 -1.2290  1.6045
   59MOL   H10941985   5.709   4.661   5.976  1.1390  3.5066  1.8810
   59MOL   C11041986   5.553   5.557   6.866 -0.4995 -0.4035  0.0970
   59MOL   O11141987   5.505   5.507   6.971  0.2097  0.4878  0.5233
   59MOL   C11241988   5.674   5.644   6.870  0.0867  0.5810 -0.5760
   59MOL   C11341989   5.701   5.736   6.768 -0.0695  0.1870 -0.6483
   59MOL   C11441990   5.809   5.822   6.774  0.2720 -0.1942  0.1135
   59MOL   C11541991   5.891   5.817   6.887 -0.5761  0.3676  0.1005
   59MOL   C11641992   6.015   5.901   6.896 -0.2052 -0.7699 -0.1966
   59MOL   O11741993   6.041   5.980   6.804  0.3522 -0.0069 -0.3775
   59MOL   N11841994   6.096   5.884   7.006 -0.6549  0.1736 -0.4445
   59MOL   C11941995   6.239   5.927   7.006  0.0954 -0.4736 -0.6968
   59MOL   C12041996   6.275   5.979   7.149 -0.0642 -0.0871 -0.2153
   59MOL   C12141997   6.417   6.038   7.161 -0.0175 -0.2627 -0.3088
   59MOL   C12241998   6.427   6.180   7.087  0.8310  0.2081  0.6798
   59MOL   C12341999   6.560   6.239   7.081  0.1588 -1.1984 -0.1520
   59MOL   C12442000   6.583   6.378   7.031  0.4181 -0.5084 -0.2730
   59MOL   N12542001   6.521   6.468   7.130  0.0031  0.1082 -0.2210
   59MOL   C12642002   5.859   5.733   6.997  0.4622 -0.3196 -0.0033
   59MOL   C12742003   5.750   5.650   6.986 -0.5508  0.3920 -0.9958
   59MOL   H12842004   5.646   5.737   6.675 -1.3337 -0.5807  0.0718
   59MOL   H12942005   5.830   5.875   6.682 -1.3797 -0.1922 -0.2802
   59MOL   H13042006   6.071   5.817   7.077  4.8073 -0.1755  1.3799
   59MOL   H13142007   6.311   5.847   6.990  1.3608  0.1908  1.4601
   59MOL   H13242008   6.261   6.005   6.934 -0.1887 -0.6078 -0.9285
   59MOL   H13342009   6.270   5.892   7.215 -1.2401 -0.0365 -0.2279
   59MOL   H13442010   6.201   6.050   7.184  2.4037  1.1645  2.7465
   59MOL   H13542011   6.438   6.060   7.266 -0.6988  0.1435 -0.2525
   59MOL   H13642012   6.494   5.969   7.126  0.1019 -0.6584  0.7032
   59MOL   H13742013   6.346   6.241   7.128  0.2987  0.1462 -0.2670
   59MOL   H13842014   6.394   6.170   6.983 -0.4898 -1.5788  1.2500
   59MOL   H13942015   6.627   6.182   7.016 -2.5967 -1.6543 -2.6710
   59MOL   H14042016   6.601   6.238   7.182  0.0484 -2.0643 -0.1195
   59MOL   H14142017   6.687   6.408   7.020  0.2200  0.5879  0.7483
   59MOL   H14242018   6.548   6.393   6.929  1.1705  2.1237 -0.1803
   59MOL   H14342019   6.530   6.439   7.226  0.0170  0.5896 -0.0758
   59MOL   H14442020   5.918   5.734   7.087  0.5686 -1.8441 -0.0408
   59MOL   H14542021   5.725   5.578   7.063  3.0464  0.6265  0.5105
   59MOL   C14642022   6.511   6.602   7.105  0.7101  0.2790 -0.3725
   59MOL   O14742023   6.504   6.643   6.992  0.2130 -0.0888 -0.0211
   59MOL   C14842024   6.509   6.711   7.220 -0.2507  0.4321  0.2380
   59MOL   C14942025   6.442   6.690   7.348 -0.0152 -0.0959  0.2594
   59MOL   C15042026   6.459   6.785   7.448 -0.5397  1.1621 -0.6181
   59MOL   C15142027   6.524   6.907   7.420  0.1418 -0.3913  0.0499
   59MOL   C15242028   6.537   7.010   7.528  0.0653  0.8551 -0.2820
   59MOL   O15342029   6.624   7.089   7.519  0.1703 -0.5068  0.2815
   59MOL   N15442030   6.437   7.015   7.615  0.5544  0.0722  0.3857
   59MOL   C15542031   6.427   7.125   7.715 -0.1620 -0.2864  0.8027
   59MOL   C15642032   6.294   7.195   7.698 -0.2809 -0.0350  0.4382
   59MOL   C15742033   6.241   7.210   7.552 -0.3950  0.7229 -0.2140
   59MOL   C15842034   6.117   7.303   7.549 -0.2698  0.0083 -0.4617
   59MOL   C15942035   6.069   7.333   7.414  0.2801  0.1881  0.6150
   59MOL   C16042036   5.978   7.451   7.411 -0.1567 -0.5107 -0.2303
   59MOL   N16142037   5.870   7.445   7.506  0.1311 -0.1869 -0.2687
   59MOL   C16242038   6.585   6.934   7.294 -0.1283  0.4908  0.2510
   59MOL   C16342039   6.578   6.830   7.196 -0.0543 -0.1609 -0.0678
   59MOL   H16442040   6.378   6.606   7.371  0.8315 -0.8323 -0.0352
   59MOL   H16542041   6.422   6.759   7.546 -1.7783 -1.0402 -1.6191
   59MOL   H16642042   6.353   6.962   7.596  0.7251  0.0261 -0.2646
   59MOL   H16742043   6.435   7.093   7.819 -0.8559  0.3226  1.0465
   59MOL   H16842044   6.505   7.199   7.696 -0.5620 -0.3674 -1.3200
   59MOL   H16942045   6.308   7.293   7.745 -0.7773  0.7716 -1.0468
   59MOL   H17042046   6.226   7.134   7.757  0.6327 -0.4684  1.0558
   59MOL   H17142047   6.323   7.252   7.493 -0.6122  0.2262 -0.8677
   59MOL   H17242048   6.213   7.114   7.510 -1.4863 -0.1817  2.4500
   59MOL   H17342049   6.124   7.398   7.602 -1.0084 -0.7100  0.9712
   59MOL   H17442050   6.050   7.247   7.615  1.5180 -2.7310 -0.8850
   59MOL   H17542051   6.027   7.248   7.360  0.3223 -1.4168  3.0118
   59MOL   H17642052   6.155   7.361   7.353  0.1130  0.7168  0.6265
   59MOL   H17742053   6.032   7.542   7.438 -1.0940  0.3783 -1.3245
   59MOL   H17842054   5.937   7.465   7.311  0.7882 -0.0054 -0.5571
   59MOL   H17942055   5.805   7.369   7.495  0.0694 -0.2207  0.3088
   59MOL   H18042056   6.644   7.024   7.284  0.3110  0.0747 -1.0846
   59MOL   H18142057   6.640   6.833   7.107 -1.0901  2.0262 -0.7433
   59MOL   C18242058   5.868   7.498   7.631 -0.1096  0.5339  0.7762
   59MOL   O18342059   5.958   7.576   7.671 -0.2504 -0.4004  0.2780
   59MOL   C18442060   5.750   7.462   7.721  0.1606 -0.8898 -0.5404
   59MOL   C18542061   5.669   7.352   7.695 -0.3052  0.0134  0.0233
   59MOL   C18642062   5.558   7.321   7.775 -0.8596 -0.6644  0.3936
   59MOL   C18742063   5.536   7.395   0.005 -0.3697  0.0307 -0.5197
   59MOL   C18842064   5.433   7.352   0.105 -0.4655  0.6969 -0.3684
   59MOL   O18942065   5.326   7.298   0.078 -0.1240 -0.0823 -0.4458
   59MOL   N19042066   5.474   7.360   0.232 -0.1417 -0.4643  0.3403
   59MOL   C19142067   5.387   7.332   0.345 -0.2079  0.6787 -0.0939
   59MOL   C19242068   5.457   7.321   0.487 -0.0975 -0.4924 -0.0108
   59MOL   C19342069   5.551   7.199   0.494  0.1009  0.2679 -0.4351
   59MOL   C19442070   5.641   7.196   0.617  0.0213 -0.1723  0.1175
   59MOL   C19542071   5.691   7.067   0.644 -0.5422  0.3151 -0.9058
   59MOL   C19642072   5.784   6.998   0.539  0.2383  0.2543  0.0059
   59MOL   N19742073   5.911   7.063   0.527  0.6664  0.3632  0.0572
   59MOL   C19842074   5.610   7.510   0.034 -0.0173 -0.1399  0.2079
   59MOL   C19942075   5.713   7.545   7.830 -0.4463  0.7039  0.3721
   59MOL   H20042076   5.697   7.291   7.611  0.9772 -1.1553  1.2652
   59MOL   H20142077   5.497   7.234   7.751 -2.5234  0.1567  1.5274
   59MOL   H20242078   5.565   7.401   0.248 -0.8992  1.2912  0.1652
   59MOL   H20342079   5.312   7.410   0.348  0.8666  1.7515 -0.8110
   59MOL   H20442080   5.340   7.234   0.331 -0.7814  0.6239  2.0920
   59MOL   H20542081   5.385   7.306   0.568 -1.6856  2.0727 -0.9017
   59MOL   H20642082   5.503   7.415   0.516  1.5991 -1.3255  0.0675
   59MOL   H20742083   5.498   7.105   0.480  1.3642 -0.4734 -0.2534
   59MOL   H20842084   5.624   7.208   0.414  0.4660 -2.9726 -0.5338
   59MOL   H20942085   5.588   7.227   0.707  0.6407  2.2841 -0.3322
   59MOL   H21042086   5.725   7.265   0.613 -1.8830  2.1528 -0.6430
   59MOL   H21142087   5.607   7.008   0.681  0.1901  1.1005  2.1212
   59MOL   H21242088   5.756   7.083   0.731 -0.7619  1.0211 -0.8672
   59MOL   H21342089   5.798   6.891   0.558 -1.1375  0.1664  0.6236
   59MOL   H21442090   5.729   7.017   0.446  0.6904  1.2343 -0.0592
   59MOL   H21542091   5.932   7.120   0.607 -1.2428  0.3487  0.5971
   59MOL   H21642092   5.602   7.575   0.120  1.3575 -2.1882  1.9193
   59MOL   H21742093   5.773   7.632   7.856 -0.4217  0.2808  1.7596
   59MOL   C21842094   5.987   7.051   0.416 -0.1595  0.5839 -0.2177
   59MOL   O21942095   5.949   6.981   0.325  0.1364 -0.0853 -0.0206
   59MOL   C22042096   6.125   7.112   0.405 -0.2127 -0.3115 -0.1956
   59MOL   C22142097   6.224   7.076   0.502 -0.6447 -0.9837 -0.4569
   59MOL   C22242098   6.358   7.123   0.483 -0.1930  0.5266  0.4518
   59MOL   C22342099   6.395   7.209   0.373 -0.4090  0.1595  0.5630
   59MOL   C22442100   6.533   7.259   0.352  0.7945  0.0905  0.2728
   59MOL   O22542101   6.617   7.214   0.423  0.1859 -0.4562 -0.0379
   59MOL   N22642102   6.549   7.341   0.245 -0.7769  0.2744 -0.7125
   59MOL   C22742103   6.681   7.391   0.196 -0.0484 -0.8653  0.2893
   59MOL   C22842104   6.719   7.316   0.066  0.4861 -0.4807  0.3490
   59MOL   C22942105   6.757   7.171   0.089 -0.0486 -0.2117 -0.7746
   59MOL   C23042106   6.784   7.094   7.842  0.1085 -0.1063 -0.2842
   59MOL   C23142107   6.918   7.134   7.790  0.2024  0.1491  0.5180
   59MOL   C23242108   6.942   7.078   7.650 -0.2242  0.2640  0.1477
   59MOL   N23342109   7.076   7.088   7.607  0.4879  0.4487  1.1637
   59MOL   C23442110   6.291   7.244   0.283 -0.2552  0.0051  0.1142
   59MOL   C23542111   6.161   7.195   0.295 -0.0496 -0.4513 -0.6761
   59MOL   H23642112   6.191   7.007   0.579  1.2759 -0.3941  0.9643
   59MOL   H23742113   6.434   7.102   0.557 -1.9477  1.2685  2.5508
   59MOL   H23842114   6.474   7.363   0.181  0.8525 -1.7713 -3.4561
   59MOL   H23942115   6.665   7.496   0.173  4.1110 -0.2738 -0.2315
   59MOL   H24042116   6.751   7.385   0.279 -1.0652  0.1428  1.2449
   59MOL   H24142117   6.810   7.368   0.035 -0.9179  1.4248 -0.6663
   59MOL   H24242118   6.643   7.335   7.877 -1.0247 -1.9323  1.4733
   59MOL   H24342119   6.839   7.172   0.161 -2.2515 -0.1091  1.7916
   59MOL   H24442120   6.676   7.119   0.140  1.3858 -0.5740  1.1917
   59MOL   H24542121   6.697   7.103   7.777  0.3376  0.0741 -0.5632
   59MOL   H24642122   6.796   6.987   7.861  1.6172  0.4351  2.0440
   59MOL   H24742123   7.003   7.098   7.849 -0.1364  1.2991  1.7120
   59MOL   H24842124   6.924   7.242   7.775  0.9693  0.0727  0.2262
   59MOL   H24942125   6.931   6.970   7.641 -1.3920  0.1541  2.7062
   59MOL   H25042126   6.873   7.124   7.579 -0.4739  1.5184  1.1737
   59MOL   H25142127   7.142   7.028   7.654  0.0433 -2.1256 -1.3505
   59MOL   H25242128   6.308   7.314   0.203  0.8845 -1.0188 -0.5539
   59MOL   H25342129   6.087   7.229   0.224  0.4035 -0.4792 -1.1609
   59MOL   C25442130   7.128   7.174   7.522  0.2881 -0.3149  0.2005
   59MOL   O25542131   7.066   7.266   7.476 -0.2851 -0.5015  0.1428
   59MOL   C25642132   7.274   7.151   7.478 -0.1610  0.2257  0.2337
   59MOL   C25742133   7.352   7.060   7.559  1.0906 -0.1858  0.4138
   59MOL   C25842134   7.488   7.045   7.524  0.6834 -0.4309 -0.0569
   59MOL   C25942135   7.544   7.114   7.419  0.5743 -0.7574 -0.3871
   59MOL   C26042136   7.686   7.096   7.382 -0.7522  0.1647 -0.5752
   59MOL   O26142137   7.750   6.997   7.426 -0.3963 -0.1531  0.1465
   59MOL   N26242138   7.747   7.186   7.304  0.2583 -0.3076  0.0653
   59MOL   C26342139   7.882   7.178   7.279  0.3839  0.5521  0.1052
   59MOL   C26442140   0.029   7.258   7.156 -0.6478  0.1988 -0.1400
   59MOL   C26542141   7.819   7.267   7.049  0.3895 -0.2165  0.1137
   59MOL   C26642142   7.813   7.150   6.957  0.2851  0.2682 -0.2919
   59MOL   C26742143   7.744   7.028   7.008  0.5205 -0.4234  0.7220
   59MOL   C26842144   7.594   7.048   7.028  0.3578 -0.8510  0.7411
   59MOL   N26942145   7.542   6.935   7.088  0.1631 -0.0165  0.0765
   59MOL   C27042146   7.466   7.205   7.345  0.2350 -0.3297  0.4334
   59MOL   C27142147   7.330   7.221   7.369 -0.3136 -0.4683 -0.0709
   59MOL   H27242148   7.316   7.012   7.649 -4.5035 -0.8854 -1.9973
   59MOL   H27342149   7.550   6.979   7.583 -0.1592 -2.4999 -1.4097
   59MOL   H27442150   7.701   7.270   7.272  0.4628 -0.2813 -0.1630
   59MOL   H27542151   0.062   7.220   7.355 -0.1685  1.1918  0.2369
   59MOL   H27642152   0.035   7.077   7.268 -1.9734 -0.4156  0.3181
   59MOL   H27742153   0.124   7.223   7.115 -0.9394 -0.4729 -0.2594
   59MOL   H27842154   0.042   7.361   7.188  1.7306 -0.2099  0.3027
   59MOL   H27942155   7.719   7.287   7.088 -0.0112 -0.2264 -0.8860
   59MOL   H28042156   7.850   7.348   6.982 -0.7351 -0.8061 -1.1406
   59MOL   H28142157   0.021   7.123   6.908 -0.0997  0.0039 -0.8804
   59MOL   H28242158   7.751   7.164   6.869  2.2926  1.2034 -1.6100
   59MOL   H28342159   7.795   7.002   7.100 -1.7558  0.4714  2.2784
   59MOL   H28442160   7.770   6.950   6.936 -0.1217  0.0307 -0.0151
   59MOL   H28542161   7.572   7.132   7.093 -2.3289 -1.7659  1.0597
   59MOL   H28642162   7.553   7.072   6.930  0.6337 -0.9716  0.5922
   59MOL   H28742163   7.523   6.941   7.187  1.0953 -1.5784  0.3647
   59MOL   H28842164   7.506   7.249   7.255  0.4953  1.8194  1.5459
   59MOL   H28942165   7.262   7.278   7.308 -0.7732  0.4892  1.3254
   59MOL   C29042166   7.513   6.811   7.033  0.6814  0.7055 -0.2369
   59MOL   O29142167   7.542   6.776   6.917  0.2685 -0.2961 -0.2243
   59MOL   C29242168   7.457   6.721   7.138 -0.7783 -0.1991  0.3723
   59MOL   C29342169   7.368   6.769   7.234  1.3378 -0.2095  0.3206
   59MOL   C29442170   7.317   6.683   7.332 -0.1275  0.0265 -0.2600
   59MOL   C29542171   7.341   6.547   7.326 -0.2935  0.4932 -0.4119
   59MOL   C29642172   7.265   6.450   7.420 -0.5056 -0.1478 -0.1316
   59MOL   O29742173   7.156   6.483   7.470  0.6580 -0.1334  0.6245
   59MOL   N29842174   7.338   6.345   7.468  0.1743 -0.6998 -0.1808
   59MOL   C29942175   7.304   6.239   7.557 -0.3601 -0.0182  0.0030
   59MOL   C30042176   7.356   6.250   7.705  0.3295  0.0847 -0.0845
   59MOL   C30142177   7.352   6.119   7.778 -0.5577  0.3569  0.4522
   59MOL   C30242178   7.321   6.141   0.040 -0.3021  0.6652 -0.0050
   59MOL   C30342179   7.303   6.005   0.112 -0.1913  0.2192  0.1749
   59MOL   C30442180   7.271   6.034   0.255 -0.2282 -0.4132 -0.1447
   59MOL   N30542181   7.138   6.096   0.275 -0.3587  0.1276  0.2071
   59MOL   C30642182   7.438   6.503   7.231  0.2774  0.3897 -0.0879
   59MOL   C30742183   7.495   6.585   7.134 -0.3566 -0.2898 -0.6457
   59MOL   H30842184   7.340   6.873   7.239 -0.8837 -0.6586 -1.7656
   59MOL   H30942185   7.256   6.724   7.411 -0.0375 -0.3466  0.0057
   59MOL   H31042186   7.431   6.347   7.429  0.6576  0.1738  0.9701
   59MOL   H31142187   7.199   6.214   7.544  0.0033 -0.7968 -1.6391
   59MOL   H31242188   7.349   6.151   7.511  1.6954 -0.3703  2.6254
   59MOL   H31342189   7.307   6.326   7.767 -0.7975 -0.3521 -0.4164
   59MOL   H31442190   7.458   6.285   7.690 -0.0742  0.8046 -1.2638
   59MOL   H31542191   7.274   6.056   7.737 -1.3334  2.6120 -1.7050
   59MOL   H31642192   7.444   6.062   7.769 -1.3888 -0.7643 -1.3110
   59MOL   H31742193   7.228   6.198   0.050  1.1309  3.2878 -1.0405
   59MOL   H31842194   7.402   6.203   0.080  1.1522  0.2489 -2.1816
   59MOL   H31942195   7.392   5.942   0.107  0.1634  0.7298 -0.0803
   59MOL   H32042196   7.231   5.940   0.062 -2.3117  3.2526 -0.8802
   59MOL   H32142197   7.275   5.946   0.319  0.0597 -0.2202  0.1077
   59MOL   H32242198   7.340   6.108   0.296  1.1616 -0.1478 -2.8818
   59MOL   H32342199   7.068   6.078   0.204 -0.3307  0.8815 -0.0140
   59MOL   H32442200   7.474   6.402   7.219 -1.7686 -0.4650  0.6661
   59MOL   H32542201   7.576   6.552   7.071 -1.8834 -1.6953 -1.9106
   59MOL   C32642202   7.111   6.195   0.363  0.4390  0.6955 -0.6405
   59MOL   O32742203   7.186   6.224   0.451  0.0436 -0.3528  0.0474
   59MOL   C32842204   6.968   6.254   0.361 -0.6357  0.6143  0.3130
   59MOL   C32942205   6.929   6.341   0.468 -1.0115  0.0354  0.0458
   59MOL   C33042206   6.803   6.396   0.474  0.5547 -0.0857  0.7212
   59MOL   C33142207   6.700   6.369   0.382 -0.0142 -0.2828 -0.6969
   59MOL   C33242208   6.571   6.443   0.387  0.3118  0.2221 -0.6830
   59MOL   O33342209   6.546   6.518   0.479 -0.7278  0.2720 -0.5553
   59MOL   N33442210   6.477   6.415   0.293  0.2395 -0.8608  0.6412
   59MOL   C33542211   6.332   6.446   0.313  0.1747  0.2972  0.0031
   59MOL   C33642212   6.250   6.358   0.218  0.6785  0.1280 -0.0360
   59MOL   C33742213   6.233   6.210   0.261 -0.7270  0.2338 -0.8923
   59MOL   C33842214   6.152   6.139   0.156 -0.2230  0.3130  0.2258
   59MOL   C33942215   6.164   5.987   0.170  0.3650  0.2311  0.1557
   59MOL   C34042216   6.162   5.919   0.307  0.4996  0.5039 -0.5208
   59MOL   N34142217   6.162   5.778   0.284  0.6158  0.1132 -0.5125
   59MOL   C34242218   6.744   6.299   0.267  0.0298  0.0837 -0.0834
   59MOL   C34342219   6.873   6.243   0.254  0.5258  0.0548  0.1416
   59MOL   H34442220   6.999   6.355   0.548 -0.7800 -1.6528  0.1586
   59MOL   H34542221   6.788   6.470   0.551  2.0929  1.7130 -0.6800
   59MOL   H34642222   6.512   6.379   0.206 -0.2018  2.1520 -0.8292
   59MOL   H34742223   6.296   6.445   0.416  2.7664  2.4615  0.9837
   59MOL   H34842224   6.314   6.550   0.289  0.0354  0.2738  0.0062
   59MOL   H34942225   6.297   6.374   0.121  2.8542  0.7345  1.0937
   59MOL   H35042226   6.146   6.390   0.212  0.2721 -1.4811 -1.8628
   59MOL   H35142227   6.332   6.164   0.257 -0.7477  0.1614 -0.5760
   59MOL   H35242228   6.196   6.212   0.363 -1.3192 -1.4052 -1.0519
   59MOL   H35342229   6.190   6.168   0.058 -2.9971 -0.4354 -1.0977
   59MOL   H35442230   6.051   6.177   0.167 -0.7627 -0.4627 -1.7243
   59MOL   H35542231   6.244   5.952   0.105 -0.4090 -0.7339 -0.2866
   59MOL   H35642232   6.067   5.954   0.134 -0.6000  1.9975  1.0588
   59MOL   H35742233   6.248   5.944   0.370  0.2625  1.5533 -0.6036
   59MOL   H35842234   6.070   5.946   0.358  0.8889  2.7730 -0.9885
   59MOL   H35942235   6.180   5.747   0.190  1.1851 -0.3202 -0.2647
   59MOL   H36042236   6.687   6.290   0.176 -3.0283  0.0398  1.7904
   59MOL   H36142237   6.888   6.185   0.164  0.8814 -4.1989  2.7557
   59MOL   C36242238   6.156   5.678   0.373  1.2370 -0.3279 -0.0432
   59MOL   O36342239   6.156   5.705   0.491  0.0195  0.6767 -0.3966
   59MOL   C36442240   6.153   5.538   0.315  0.1579  0.7241  0.5203
   59MOL   C36542241   6.072   5.505   0.201  0.3696  0.3271 -0.0405
   59MOL   C36642242   6.057   5.379   0.151  0.3779 -0.2505  0.0797
   59MOL   C36742243   6.115   5.268   0.222 -0.5490 -0.5722 -0.0679
   59MOL   C36842244   6.102   5.129   0.167  0.4070 -0.1395  0.1461
   59MOL   O36942245   6.167   5.036   0.210  0.1485 -0.0482 -0.0181
   59MOL   N37042246   6.021   5.116   0.055 -0.0228  0.5555  0.2742
   59MOL   C37142247   6.009   5.002   7.856 -0.5257 -0.2993  0.2752
   59MOL   C37242248   5.881   5.000   7.765 -0.4976  0.2645 -0.2411
   59MOL   C37342249   5.869   4.881   7.662 -0.0749 -0.0398  0.7312
   59MOL   C37442250   5.740   4.909   7.585 -0.3130  0.3470 -0.2426
   59MOL   C37542251   5.730   4.818   7.453  0.4089 -0.3914 -0.7170
   59MOL   C37642252   5.643   4.895   7.357 -0.4293 -0.2746 -0.0065
   59MOL   N37742253   5.631   4.808   7.239 -0.1939 -0.1271 -0.4948
   59MOL   C37842254   6.199   5.292   0.337 -0.5298  0.3566 -0.6652
   59MOL   C37942255   6.220   5.428   0.378 -0.1346  0.2043 -0.0222
   59MOL   H38042256   6.026   5.593   0.157  1.2716  1.6686  1.6487
   59MOL   H38142257   6.008   5.369   0.055  0.3181 -1.3004  0.2208
   59MOL   H38242258   5.971   5.194   0.013 -0.9567 -1.4775 -2.5420
   59MOL   H38342259   6.098   5.019   7.794 -0.2491 -0.5360  0.6084
   59MOL   H38442260   6.022   4.911   0.027 -0.3136 -0.3449  0.1530
   59MOL   H38542261   5.885   5.092   7.708 -2.3721 -0.5250 -1.7138
   59MOL   H38642262   5.791   5.002   7.827 -0.4058  3.6645 -0.1217
   59MOL   H38742263   5.952   4.890   7.592 -0.4319  1.0612  0.4508
   59MOL   H38842264   5.863   4.782   7.707  0.7065  0.0408  1.0255
   59MOL   H38942265   5.740   5.012   7.549 -1.5792  1.0336  1.6637
   59MOL   H39042266   5.655   4.900   7.653 -0.5870 -1.4796 -0.7993
   59MOL   H39142267   5.700   4.716   7.477 -1.0482 -0.2227 -1.7194
   59MOL   H39242268   5.833   4.824   7.418  1.1877  0.3438  1.5807
   59MOL   H39342269   5.548   4.910   7.407 -0.9974  1.2395 -1.4766
   59MOL   H39442270   5.684   4.994   7.339 -1.7458  0.4216  0.7495
   59MOL   H39542271   5.542   4.760   7.234  0.9719 -2.4926  0.5564
   59MOL   H39642272   6.242   5.208   0.389 -0.5780  1.8445  1.8346
   59MOL   H39742273   6.274   5.455   0.468  1.4289  2.3932 -1.5673
   59MOL   C39842274   5.709   4.816   7.134 -0.7490  0.4260 -0.4946
   59MOL   O39942275   5.802   4.901   7.118 -0.0608  0.1545 -0.6854
   59MOL   C40042276   5.673   4.728   7.018 -0.2335  0.1535  0.8467
   59MOL   C40142277   5.721   4.748   6.890 -0.1776  0.2302  0.5063
   59MOL   C40242278   5.696   4.651   6.786 -0.2213 -0.7596 -0.2125
   59MOL   C40342279   5.612   4.535   6.812 -0.2349  0.4532  0.3917
   59MOL   C40442280   5.590   4.435   6.698 -0.4516 -0.1429  0.9128
   59MOL   O40542281   5.575   4.318   6.723  1.0457  0.1688  0.3927
   59MOL   N40642282   5.588   4.487   6.572  0.5993  0.0016 -0.1076
   59MOL   C40742283   5.590   4.407   6.453 -0.1131 -0.3504 -0.6862
   59MOL   C40842284   5.540   4.478   6.334  0.1511  0.2992  0.7199
   59MOL   C40942285   5.507   4.400   6.206  0.2946 -0.4626 -0.0497
   59MOL   C41042286   5.372   4.326   6.211  0.1643  1.5544 -0.1338
   59MOL   C41142287   5.320   4.253   6.085 -0.8023 -0.2735  0.9754
   59MOL   C41242288   5.183   4.184   6.115  0.4652  0.0405  0.1788
   59MOL   N41342289   5.195   4.086   6.220  0.6849 -0.3502  0.4775
   59MOL   C41442290   5.572   4.515   6.944 -0.6178 -0.1905 -0.2305
   59MOL   C41542291   5.602   4.607   7.043 -0.2268 -0.7836  0.3918
   59MOL   H41642292   5.770   4.842   6.870 -0.3433 -0.4082 -3.2064
   59MOL   H41742293   5.731   4.670   6.686  0.2220  0.1187  0.1027
   59MOL   H41842294   5.601   4.585   6.552  0.7808  0.0949  0.4495
   59MOL   H41942295   5.694   4.374   6.450 -0.1493 -0.3799 -2.7321
   59MOL   H42042296   5.535   4.314   6.470 -0.5752 -0.4397 -2.5654
   59MOL   H42142297   5.623   4.541   6.301  0.8510 -1.0343 -0.1345
   59MOL   H42242298   5.448   4.528   6.363  0.7752  2.3468 -0.7897
   59MOL   H42342299   5.504   4.472   6.125 -2.3967 -0.8743 -0.3622
   59MOL   H42442300   5.586   4.326   6.192 -1.0791 -2.0714  0.4311
   59MOL   H42542301   5.298   4.397   6.247 -2.0487  0.5502 -2.5695
   59MOL   H42642302   5.368   4.258   6.296  4.7497  0.1327 -0.8927
   59MOL   H42742303   5.392   4.178   6.054  0.9281  1.1134  1.5361
   59MOL   H42842304   5.315   4.320   5.999  0.2417  0.1144  1.2066
   59MOL   H42942305   5.115   4.266   6.137  1.0954  0.8777 -0.9286
   59MOL   H43042306   5.147   4.143   6.021 -2.3483 -0.4790  1.4386
   59MOL   H43142307   5.283   4.064   6.265  1.5870  0.8653 -0.6255
   59MOL   H43242308   5.522   4.424   6.974  0.0784 -1.6442 -3.2341
   59MOL   H43342309   5.557   4.598   7.141 -2.4375 -0.0870 -0.5386
   59MOL   C43442310   5.086   4.015   6.272 -0.0457  0.3782 -0.5479
   59MOL   O43542311   4.967   4.025   6.237  0.5501  0.0551 -0.4512
   59MOL   C43642312   5.119   3.911   6.376  0.4160  0.3963  0.0336
   59MOL   C43742313   5.035   3.799   6.392  0.6520  0.2340 -0.5528
   59MOL   C43842314   5.073   3.683   6.466 -0.4124 -0.4379 -0.4870
   59MOL   C43942315   5.188   3.696   6.543 -0.1115  0.0471  0.7624
   59MOL   C44042316   5.240   3.582   6.627  0.8611  0.1665  0.6344
   59MOL   O44142317   5.197   3.466   6.597 -0.0954 -0.0238 -0.4468
   59MOL   N44242318   5.320   3.610   6.730  0.2599  1.0834 -0.2543
   59MOL   C44342319   5.393   3.510   6.805  0.2885  0.0147  0.1929
   59MOL   C44442320   5.488   3.572   6.906 -1.1077  0.2062 -0.2432
   59MOL   C44542321   5.560   3.468   6.987 -0.1966 -0.2153  0.6399
   59MOL   C44642322   5.645   3.533   7.098  0.0318  0.5871 -0.7900
   59MOL   C44742323   5.557   3.614   7.189 -0.6905  0.4985 -0.6890
   59MOL   C44842324   5.630   3.632   7.329  0.5937  0.2454 -0.1407
   59MOL   N44942325   5.549   3.731   7.403 -0.2573 -0.3931  0.1996
   59MOL   C45042326   5.269   3.810   6.537  0.1065 -0.4180  0.2196
   59MOL   C45142327   5.234   3.920   6.456 -0.3775  1.0027  0.7555
   59MOL   H45242328   4.954   3.793   6.321  1.8021  1.3629 -1.9895
   59MOL   H45342329   5.014   3.593   6.463 -1.3936  0.1479  0.7806
   59MOL   H45442330   5.341   3.706   6.755  0.5848  0.7458  0.7783
   59MOL   H45542331   5.318   3.452   6.859 -1.7910  0.2479 -2.3219
   59MOL   H45642332   5.449   3.441   6.741  0.5771 -0.2665  0.7428
   59MOL   H45742333   5.420   3.643   6.954  0.7870  0.8563  1.5744
   59MOL   H45842334   5.563   3.627   6.849 -0.0950  0.0656  0.9273
   59MOL   H45942335   5.484   3.404   7.032 -2.3932  0.0510 -2.5149
   59MOL   H46042336   5.614   3.413   6.909 -0.4159 -0.7487  0.8636
   59MOL   H46142337   5.713   3.607   7.056 -0.2797  1.2513 -0.1388
   59MOL   H46242338   5.696   3.457   7.157 -0.6715  0.9048  0.2562
   59MOL   H46342339   5.462   3.567   7.213 -0.4753  1.3319  1.9084
   59MOL   H46442340   5.531   3.714   7.153 -2.1378  0.3136 -0.1787
   59MOL   H46542341   5.618   3.536   7.379  1.4956 -0.5100 -1.3376
   59MOL   H46642342   5.736   3.659   7.327  0.3039  1.4445 -0.0138
   59MOL   H46742343   5.450   3.709   7.407 -0.4331  0.6016  1.4847
   59MOL   H46842344   5.355   3.826   6.600  0.2122  0.2776 -0.0913
   59MOL   H46942345   5.287   4.013   6.441 -0.8753  0.9711 -1.4743
   59MOL   C47042346   5.594   3.844   7.463 -0.3936  0.6708 -0.3349
   59MOL   O47142347   5.709   3.887   7.452  0.3756 -0.2199  0.0905
   59MOL   C47242348   5.491   3.926   7.545 -0.0455  0.4461 -0.5212
   59MOL   C47342349   5.537   4.019   7.645  0.3990 -0.0257 -0.9519
   59MOL   C47442350   5.442   4.099   7.709  0.2213  0.5346  0.1003
   59MOL   C47542351   5.305   4.082   7.684 -0.6402  0.0203  0.3235
   59MOL   C47642352   5.200   4.179   7.734 -0.6002 -0.6521  0.2452
   59MOL   O47742353   5.237   4.290   7.775  0.5777 -0.6384  0.1299
   59MOL   N47842354   5.073   4.142   7.740 -0.1979 -0.5309 -0.0796
   59MOL   C47942355   4.958   4.219   7.786 -0.3265 -0.7057  0.5362
   59MOL   C48042356   4.852   4.214   7.670  0.2326 -0.1267 -0.3745
   59MOL   C48142357   4.793   4.073   7.652  0.2755  0.1575  0.0765
   59MOL   C48242358   4.680   4.084   7.552 -0.4382 -1.5398  0.3983
   59MOL   C48342359   4.598   3.959   7.538  0.0300 -0.0506  0.2671
   59MOL   C48442360   4.475   3.979   7.456 -0.0760 -0.5422  0.2942
   59MOL   N48542361   4.374   3.882   7.505  0.1111 -0.1600  0.0831
   59MOL   C48642362   5.262   3.987   7.587  0.2479  0.3780  0.5700
   59MOL   C48742363   5.353   3.901   7.521  0.3016  0.6237 -0.1213
   59MOL   H48842364   5.637   4.056   7.657 -0.2182  0.9206  1.5589
   59MOL   H48942365   5.475   4.186   7.764 -2.3363  1.9573 -0.5038
   59MOL   H49042366   5.046   4.053   7.700 -0.0587 -1.9748  2.9152
   59MOL   H49142367   4.921   4.180   7.880 -1.2989  3.7068  2.0756
   59MOL   H49242368   4.987   4.320   7.812  1.5386 -1.4999  1.6194
   59MOL   H49342369   4.895   4.264   7.583  1.0082 -0.1151  0.0084
   59MOL   H49442370   4.766   4.275   7.696  0.1979  0.4425 -1.7594
   59MOL   H49542371   4.853   3.987   7.622 -0.1881  0.0813 -0.6307
   59MOL   H49642372   4.747   4.043   7.746  0.1396  0.7240  0.1919
   59MOL   H49742373   4.716   4.124   7.457 -1.5554  0.3872  0.7773
   59MOL   H49842374   4.619   4.162   7.597 -1.1810 -0.7729 -1.8720
   59MOL   H49942375   4.573   3.914   7.634  0.6780 -0.2974  0.3226
   59MOL   H50042376   4.662   3.887   7.488 -0.4238  0.7308 -1.4887
   59MOL   H50142377   4.423   4.073   7.475 -1.9226 -1.3661 -0.5557
   59MOL   H50242378   4.495   3.963   7.350 -0.4887 -1.6488  0.3758
   59MOL   H50342379   4.354   3.885   7.604 -0.0300 -2.5477  0.1582
   59MOL   H50442380   5.160   3.981   7.550  0.3349 -0.0677  0.3995
   59MOL   H50542381   5.325   3.843   7.435  1.0293  0.5673 -0.3265
   59MOL   C50642382   4.318   3.782   7.431 -0.1285 -0.0482 -0.8315
   59MOL   O50742383   4.325   3.775   7.309 -0.1798  0.3104 -0.2983
   59MOL   C50842384   4.218   3.695   7.500 -0.4179 -0.7351 -0.1757
   59MOL   C50942385   4.107   3.636   7.437  0.0920 -0.5882 -0.5521
   59MOL   C51042386   4.026   3.547   7.506  0.5020 -0.1743 -0.8082
   59MOL   C51142387   4.060   3.506   7.635  0.0450 -0.0205 -0.4118
   59MOL   C51242388   3.970   3.419   7.721 -0.3668  0.2271  0.4764
   59MOL   O51342389   3.936   3.442   7.836 -0.8199  0.1101 -0.0776
   59MOL   N51442390   3.940   3.303   7.663  0.2263  0.7721  0.2988
   59MOL   C51542391   3.854   3.210   7.712  0.3695 -0.7029  0.1519
   59MOL   C51642392   3.821   3.110   7.601 -0.1419  0.1395 -0.1695
   59MOL   C51742393   3.665   3.064   7.580  0.0182 -0.7349  0.2402
   59MOL   C51842394   3.554   3.157   7.529  0.8104 -0.0194  0.3890
   59MOL   C51942395   3.413   3.094   7.514 -0.2864 -0.3211  0.0124
   59MOL   C52042396   3.323   3.201   7.451 -0.6842  0.5989 -0.0158
   59MOL   N52142397   3.182   3.191   7.447  0.4322 -0.2557 -0.3598
   59MOL   C52242398   4.176   3.554   7.694 -0.7030 -0.0663 -0.1055
   59MOL   C52342399   4.255   3.655   7.628 -0.1326  0.2804 -0.6310
   59MOL   H52442400   4.083   3.654   7.333  2.1569  1.1821 -0.7422
   59MOL   H52542401   3.935   3.508   7.463  0.3374  0.2313 -0.8250
   59MOL   H52642402   3.988   3.289   7.576 -0.2494  0.2045  0.1219
   59MOL   H52742403   3.904   3.159   7.794 -0.2754 -2.9757 -0.8303
   59MOL   H52842404   3.763   3.261   7.745  1.7716  1.1058  1.2928
   59MOL   H52942405   3.867   3.020   7.643 -0.0580  0.4461  0.3954
   59MOL   H53042406   3.855   3.123   7.498  0.2769  0.0956 -0.0394
   59MOL   H53142407   3.671   2.983   7.508  0.5587 -0.5226  0.0466
   59MOL   H53242408   3.622   3.017   7.669  1.2964 -0.0090  1.2726
   59MOL   H53342409   3.591   3.201   7.437 -2.2120  1.4964 -0.1825
   59MOL   H53442410   3.548   3.243   7.597  0.2377  0.2745 -0.0284
   59MOL   H53542411   3.382   3.064   7.614  2.0823  0.5092  1.0536
   59MOL   H53642412   3.428   3.006   7.452  0.8913 -0.5488  0.6026
   59MOL   H53742413   3.336   3.294   7.507 -0.4667  0.0778  0.8144
   59MOL   H53842414   3.366   3.207   7.351 -0.0277 -1.9284  0.0640
   59MOL   H53942415   3.130   3.272   7.476  3.0117  1.3545 -0.0571
   59MOL   H54042416   4.203   3.511   7.790 -0.2364  0.7290  0.1263
   59MOL   H54142417   4.339   3.698   7.681 -1.5235  1.5460  0.6008
   59MOL   C54242418   3.116   3.076   7.401 -0.4477 -0.6810 -0.1083
   59MOL   O54342419   3.184   2.988   7.349  0.3034  0.7009 -0.9816
   59MOL   C54442420   2.966   3.079   7.416  0.5472 -0.4275 -0.2755
   59MOL   C54542421   2.889   2.974   7.362  0.1064  0.4183  0.3596
   59MOL   C54642422   2.753   2.986   7.341  0.3933  0.6647 -0.1715
   59MOL   C54742423   2.683   3.103   7.372 -0.0090 -0.3491  0.1159
   59MOL   C54842424   2.536   3.116   7.349 -0.5948  1.3004  0.8696
   59MOL   O54942425   2.450   3.042   7.395 -0.7438  0.0516 -0.1775
   59MOL   N55042426   2.496   3.217   7.263 -0.2014 -0.2858  0.3018
   59MOL   C55142427   2.355   3.257   7.244 -0.1375 -0.0823 -0.0567
   59MOL   C55242428   2.347   3.408   7.231 -0.0061 -0.4816 -0.8536
   59MOL   C55342429   2.209   3.462   7.197 -0.3805  0.1525 -0.2525
   59MOL   C55442430   2.195   3.617   7.208  1.0717 -0.3973  0.0668
   59MOL   C55542431   2.045   3.659   7.215  0.4436  0.3521  0.2111
   59MOL   C55642432   2.017   3.787   7.291 -0.3930  0.4891  0.3882
   59MOL   N55742433   2.066   3.903   7.229  0.2336 -0.0987  0.4305
   59MOL   C55842434   2.754   3.209   7.427 -0.4924 -0.2993  0.2962
   59MOL   C55942435   2.895   3.202   7.441 -0.0569 -0.0139 -0.1201
   59MOL   H56042436   2.931   2.877   7.342 -1.9120 -1.0879  2.9667
   59MOL   H56142437   2.695   2.904   7.299 -1.7390  0.9725  2.0880
   59MOL   H56242438   2.569   3.275   7.224 -1.3875  1.0571  0.0196
   59MOL   H56342439   2.334   3.222   7.143  0.1021 -0.3070 -0.0288
   59MOL   H56442440   2.285   3.211   7.314 -0.5870  2.2227  1.0345
   59MOL   H56542441   2.426   3.446   7.166 -0.1785  3.2232  0.9274
   59MOL   H56642442   2.374   3.453   7.327 -1.5503  0.9062 -1.0358
   59MOL   H56742443   2.180   3.426   7.098  0.5296 -0.9928 -0.1235
   59MOL   H56842444   2.144   3.410   7.267 -1.2155  0.7243 -0.6057
   59MOL   H56942445   2.242   3.677   7.130 -0.7788 -0.2723 -0.9697
   59MOL   H57042446   2.240   3.658   7.299  0.9593 -0.5726  0.2036
   59MOL   H57142447   1.974   3.584   7.249  0.0686  1.1941  1.3385
   59MOL   H57242448   2.011   3.685   7.114  1.5377 -0.4296 -0.3667
   59MOL   H57342449   1.908   3.800   7.287 -0.5210 -0.3137  1.0416
   59MOL   H57442450   2.055   3.764   7.391 -0.4726  3.5939  1.1914
   59MOL   H57542451   2.000   3.947   7.167 -0.9632 -2.5760 -0.1206
   59MOL   H57642452   2.702   3.302   7.440  1.9704  1.2482 -0.4861
   59MOL   H57742453   2.950   3.290   7.471  1.1799 -0.8062 -0.0538
   59MOL   C57842454   2.181   3.963   7.257 -0.6308  0.5037 -0.6187
   59MOL   O57942455   2.258   3.930   7.352 -0.1209 -0.2767  0.0822
   59MOL   C58042456   2.210   4.082   7.171  0.6212  0.5806 -0.7578
   59MOL   C58142457   2.242   4.204   7.234  0.4434 -0.8159 -0.0290
   59MOL   C58242458   2.244   4.314   7.157 -0.2013 -0.1523  0.0513
   59MOL   C58342459   2.230   4.313   7.016  0.0638 -0.0797  0.0897
   59MOL   C58442460   2.219   4.437   6.937  0.3289 -0.4710  0.0682
   59MOL   O58542461   2.129   4.449   6.851  0.2052 -0.1713 -0.6775
   59MOL   N58642462   2.313   4.530   6.962 -0.1611  0.0796  0.5706
   59MOL   C58742463   2.311   4.666   6.912  0.0837 -0.3816 -0.1280
   59MOL   C58842464   2.452   4.719   6.895  0.6597  0.0692  0.4359
   59MOL   C58942465   2.468   4.865   6.850  0.1625  0.5371 -0.2089
   59MOL   C59042466   2.609   4.910   6.815 -0.4024  0.2859  0.6123
   59MOL   C59142467   2.615   5.043   6.751  0.5211 -0.2405  0.3671
   59MOL   C59242468   2.754   5.105   6.744  0.0673  0.2965  0.8413
   59MOL   N59342469   2.850   5.031   6.661  0.4437  0.4024  0.2471
   59MOL   C59442470   2.200   4.189   6.948 -0.4680 -0.2145 -0.1276
   59MOL   C59542471   2.187   4.079   7.027 -0.2091  0.4274  0.3943
   59MOL   H59642472   2.241   4.206   7.342  1.9757 -0.2798 -0.0191
   59MOL   H59742473   2.255   4.415   7.194 -0.4323  0.5960 -1.8518
   59MOL   H59842474   2.373   4.502   7.038  2.6049  2.9617 -0.3999
   59MOL   H59942475   2.271   4.671   6.811 -1.9302  4.1904  0.7824
   59MOL   H60042476   2.253   4.730   6.978  1.2119 -1.5299  2.0247
   59MOL   H60142477   2.506   4.650   6.830 -0.8874  0.6809 -1.5763
   59MOL   H60242478   2.512   4.712   6.986  0.0664  1.6134  0.9471
   59MOL   H60342479   2.413   4.880   6.757 -1.6693 -2.5035  0.3058
   59MOL   H60442480   2.410   4.921   6.923 -1.4687  0.0782 -1.1213
   59MOL   H60542481   2.637   4.835   6.740 -1.7401 -0.7284  1.1088
   59MOL   H60642482   2.672   4.907   6.904  1.4260 -1.3821 -0.6891
   59MOL   H60742483   2.556   5.116   6.805  2.5711  1.5048  0.3481
   59MOL   H60842484   2.561   5.045   6.656 -1.9237  1.2800  1.7448
   59MOL   H60942485   2.759   5.202   6.695  0.6675 -0.6571 -1.0548
   59MOL   H61042486   2.792   5.121   6.845  1.0040  0.9266  0.3998
   59MOL   H61142487   2.801   4.958   6.611 -1.6127  0.8414  1.5346
   59MOL   H61242488   2.169   4.189   6.845 -1.7786 -0.8931  0.2491
   59MOL   H61342489   2.158   3.985   6.983 -2.0303  0.3404  1.7506
   59MOL   C61442490   2.974   5.067   6.628 -0.0047 -0.0852 -0.2686
   59MOL   O61542491   3.036   5.164   6.678  0.0637 -0.3508  0.4847
   59MOL   C61642492   3.045   4.995   6.517  0.1965  0.3025 -0.0189
   59MOL   C61742493   3.145   5.061   6.438 -0.1361 -0.8340 -0.1849
   59MOL   C61842494   3.219   4.992   6.341  0.3688  0.7280 -0.1744
   59MOL   C61942495   3.196   4.856   6.317 -0.2729  0.0137  0.3196
   59MOL   C62042496   3.284   4.786   6.217  1.0039  0.1528 -0.1204
   59MOL   O62142497   3.381   4.837   6.166 -0.0467 -0.9173  0.6446
   59MOL   N62242498   3.248   4.656   6.199 -0.3730 -0.6070 -0.2304
   59MOL   C62342499   3.323   4.553   6.130  0.5627 -0.3116  0.1061
   59MOL   C62442500   3.440   4.503   6.209  0.0026  0.9086 -0.1713
   59MOL   C62542501   3.420   4.414   6.329 -0.1877  0.2929 -0.6179
   59MOL   C62642502   3.542   4.379   6.414 -0.6612 -0.0941 -0.0213
   59MOL   C62742503   3.510   4.292   6.543 -0.4490 -0.1979 -0.4879
   59MOL   C62842504   3.631   4.207   6.591  0.8433 -0.1127  0.0317
   59MOL   N62942505   3.607   4.138   6.720  0.0108 -0.2845 -0.5499
   59MOL   C63042506   3.097   4.795   6.396 -0.6408 -0.2377  0.7611
   59MOL   C63142507   3.030   4.857   6.498  0.2002  0.3119 -0.1222
   59MOL   H63242508   3.175   5.164   6.451 -1.3614 -0.4746 -0.1157
   59MOL   H63342509   3.292   5.046   6.282  1.5743  0.3273  0.9356
   59MOL   H63442510   3.173   4.626   6.260 -0.8500  1.9597  0.4734
   59MOL   H63542511   3.253   4.471   6.120 -1.5790  1.5099 -0.0906
   59MOL   H63642512   3.354   4.603   6.038  1.9216 -1.4007 -0.0552
   59MOL   H63742513   3.499   4.591   6.234  0.5984  0.8965 -1.5152
   59MOL   H63842514   3.502   4.438   6.149 -0.4373 -1.9155  2.3119
   59MOL   H63942515   3.356   4.472   6.396  0.0429 -1.2468  0.9511
   59MOL   H64042516   3.360   4.327   6.302  0.2465  1.0106 -4.2599
   59MOL   H64142517   3.611   4.458   6.442 -2.8356  1.2961  1.5608
   59MOL   H64242518   3.610   4.330   6.345  1.5209  1.1886  1.1612
   59MOL   H64342519   3.428   4.221   6.531 -0.1430 -0.4519 -1.0964
   59MOL   H64442520   3.467   4.347   6.627  1.1100 -1.3450  1.1001
   59MOL   H64542521   3.666   4.126   6.527  0.4304 -1.4079  1.4125
   59MOL   H64642522   3.716   4.275   6.599 -0.5125  1.2769  4.3128
   59MOL   H64742523   3.622   4.190   6.806 -1.0470 -1.0336  0.0976
   59MOL   H64842524   3.077   4.689   6.394 -2.2758  0.0624  0.7273
   59MOL   H64942525   2.948   4.812   6.552  1.0371 -1.8032 -0.5626
   59MOL   C65042526   3.568   4.009   6.731 -0.4244 -0.8553  0.0920
   59MOL   O65142527   3.541   3.938   6.634 -0.1018  0.9343 -0.2484
   59MOL   C65242528   3.551   3.966   6.880  0.6932  0.0520 -0.1723
   59MOL   C65342529   3.468   4.042   6.961  0.0496  0.6637  0.3151
   59MOL   C65442530   3.407   3.993   7.080  0.1999  0.1716 -0.1316
   59MOL   C65542531   3.437   3.864   7.118  0.3398  0.5041  0.2474
   59MOL   C65642532   3.388   3.808   7.246  0.0058  0.3067  0.1738
   59MOL   O65742533   3.307   3.871   7.307 -0.7540  0.0181 -0.3165
   59MOL   N65842534   3.451   3.700   7.290 -0.9570  0.3980  0.1065
   59MOL   C65942535   3.410   3.640   7.419 -0.1382 -0.6792  0.5245
   59MOL   C66042536   3.532   3.565   7.474  0.6012  0.0534 -0.1662
   59MOL   C66142537   3.527   3.510   7.626 -0.1893  0.1312 -0.2359
   59MOL   C66242538   3.522   3.623   7.733 -0.0815 -0.3119  0.5888
   59MOL   C66342539   3.486   3.580   7.878  0.2722  0.1786 -0.4760
   59MOL   C66442540   3.514   3.695   0.085  0.1393 -0.0600  0.1974
   59MOL   N66542541   3.649   3.752   0.076 -0.7055  0.2309 -0.2028
   59MOL   C66642542   3.512   3.781   7.028  0.2828  0.1184 -0.8027
   59MOL   C66742543   3.577   3.826   6.916  0.5559  0.7657  0.1089
   59MOL   H66842544   3.435   4.135   6.919 -2.3499  0.2069  1.1030
   59MOL   H66942545   3.340   4.063   7.128  0.5394 -0.0188  0.6237
   59MOL   H67042546   3.514   3.644   7.234 -1.6471 -0.3102  0.0164
   59MOL   H67142547   3.372   3.712   7.492  0.4497 -1.4711  1.6256
   59MOL   H67242548   3.328   3.576   7.388 -0.2217 -0.2428 -0.1486
   59MOL   H67342549   3.628   3.616   7.458  0.4878  0.2494 -0.2205
   59MOL   H67442550   3.543   3.473   7.417 -2.9015 -2.2298  2.5979
   59MOL   H67542551   3.430   3.461   7.639  0.6472 -1.5341 -0.1760
   59MOL   H67642552   3.611   3.443   7.643  0.6413  0.9448 -1.1153
   59MOL   H67742553   3.460   3.704   7.694  1.5618  0.9600  0.5676
   59MOL   H67842554   3.624   3.661   7.727 -0.0596 -0.1619  1.7718
   59MOL   H67942555   3.554   3.497   0.011  0.8943  0.6982 -0.4370
   59MOL   H68042556   3.381   3.550   7.884  0.0265  0.8504 -1.3145
   59MOL   H68142557   3.443   3.775   0.061  0.0335 -0.3460 -0.4684
   59MOL   H68242558   3.501   3.673   0.191  0.1500 -1.7133 -0.1323
   59MOL   H68342559   3.712   3.691   0.027  0.3094  0.9036  0.2588
   59MOL   H68442560   3.534   3.682   7.065 -1.7013 -0.0819 -0.0923
   59MOL   H68542561   3.640   3.764   6.854  1.9910  1.3621  0.9447
   59MOL   C68642562   3.701   3.862   0.129 -0.1548 -0.0345 -0.0835
   59MOL   O68742563   3.641   3.932   0.208  0.0642 -0.1386  0.3603
   59MOL   C68842564   3.846   3.896   0.091 -0.3473 -0.5029  0.1192
   59MOL   C68942565   3.931   3.804   0.039 -0.1237 -0.4288 -0.8802
   59MOL   C69042566   4.060   3.833   0.003 -0.4081  0.5007 -0.8112
   59MOL   C69142567   4.105   3.966   0.014 -0.5104 -0.4547  0.1377
   59MOL   C69242568   4.247   3.996   7.859  0.2847  0.2122  0.7976
   59MOL   O69342569   4.300   3.926   7.774  0.4086  0.2612  0.2595
   59MOL   N69442570   4.315   4.102   0.024 -0.7142  0.3470 -0.9368
   59MOL   C69542571   4.446   4.133   7.855  1.1748 -0.1286 -0.0393
   59MOL   C69642572   4.542   4.221   0.050  0.1261  0.0761  0.6846
   59MOL   C69742573   4.576   4.176   0.196  0.3430  0.1135 -0.9198
   59MOL   C69842574   4.485   4.257   0.291  0.4530  0.5091 -0.1760
   59MOL   C69942575   4.512   4.211   0.433  0.6158  0.0260  0.1614
   59MOL   C70042576   4.478   4.321   0.528 -0.2993  0.6239 -0.8683
   59MOL   N70142577   4.484   4.280   0.668 -0.1969 -0.0673 -0.1461
   59MOL   C70242578   4.020   4.064   0.075 -0.8353 -0.4232  0.4918
   59MOL   C70342579   3.886   4.033   0.107 -0.2822 -0.8633  0.5407
   59MOL   H70442580   3.894   3.704   0.019 -3.1895  0.5820 -0.4588
   59MOL   H70542581   4.127   3.756   7.853 -0.3549 -1.3105  2.8692
   59MOL   H70642582   4.266   4.177   0.071  1.9806  1.4164  0.2641
   59MOL   H70742583   4.507   4.045   7.834 -1.0727 -1.6858 -0.2597
   59MOL   H70842584   4.423   4.182   7.760 -0.9796  0.3068  0.6762
   59MOL   H70942585   4.506   4.324   0.046  1.2695  0.4849  0.4180
   59MOL   H71042586   4.638   4.223   7.884  1.1779 -0.1908  2.5643
   59MOL   H71142587   4.576   4.069   0.219  2.6378 -0.0554 -1.6036
   59MOL   H71242588   4.681   4.199   0.214  0.1013  0.5957 -0.0731
   59MOL   H71342589   4.383   4.232   0.263  0.9508 -0.9002 -0.8262
   59MOL   H71442590   4.502   4.364   0.279  1.0347  0.2865 -1.4462
   59MOL   H71542591   4.621   4.199   0.438  0.8548  1.1288 -1.9333
   59MOL   H71642592   4.462   4.119   0.465 -0.4235  0.0609 -1.2971
   59MOL   H71742593   4.524   4.418   0.510 -1.1751  1.3147  0.5628
   59MOL   H71842594   4.379   4.356   0.497 -0.2944  0.4586 -1.0727
   59MOL   H71942595   4.425   4.327   0.735 -1.5615 -0.8545 -0.7908
   59MOL   H72042596   4.059   4.164   0.085  0.0490 -0.7900  0.8271
   59MOL   H72142597   3.823   4.109   0.150  0.2054 -0.6776  0.9344
   59MOL   H72242598   4.577   4.293   0.707 -0.5895 -0.6888  1.0048
   60MOL     C142599   6.510   5.841   1.219 -0.4667 -0.4127  0.1025
   60MOL     O242600   6.475   5.927   1.300  0.4352 -0.1337  0.5479
   60MOL     C342601   6.431   5.722   1.172 -0.2467 -0.1817 -0.4082
   60MOL     C442602   6.292   5.698   1.199 -0.6946  0.0518 -0.4811
   60MOL     C542603   6.233   5.579   1.165 -0.2301  0.7521 -0.5955
   60MOL     C642604   6.308   5.482   1.095  0.1689  0.3046  0.0264
   60MOL     C742605   6.248   5.351   1.061 -0.5636  0.7398 -0.3465
   60MOL     O842606   6.317   5.248   1.074 -0.6426  0.2205 -0.1516
   60MOL     N942607   6.115   5.354   1.030  0.1386 -0.2836 -0.2070
   60MOL    C1042608   6.039   5.233   1.026  0.4051 -0.1033  0.1865
   60MOL    C1142609   5.894   5.261   0.978 -0.8733 -0.1625  0.3925
   60MOL    C1242610   5.823   5.128   0.941 -0.4719  0.2815 -0.1468
   60MOL    C1342611   5.682   5.155   0.882 -0.7931 -0.3855 -0.2583
   60MOL    C1442612   5.630   5.021   0.826 -0.1422  0.3360 -0.0131
   60MOL    C1542613   5.488   5.030   0.764  0.5142 -0.4062 -0.0839
   60MOL    N1642614   5.480   5.130   0.655 -0.0948 -0.1906  0.1822
   60MOL    C1742615   6.441   5.510   1.052  0.1020  0.0803 -0.4127
   60MOL    C1842616   6.505   5.624   1.095  0.2072  0.2412 -0.1939
   60MOL    H1942617   6.239   5.765   1.266  0.7354  0.4112  0.3092
   60MOL    H2042618   6.129   5.571   1.192 -0.1607 -3.2216 -1.1307
   60MOL    H2142619   6.070   5.444   1.021  0.5796  0.0996  1.3729
   60MOL    H2242620   6.094   5.159   0.968 -0.1664 -2.0803  2.0982
   60MOL    H2342621   6.041   5.191   1.126  0.7420  0.7932  0.5615
   60MOL    H2442622   5.910   5.317   0.886  3.7944 -0.7048  0.7446
   60MOL    H2542623   5.835   5.311   1.055 -1.0515  0.3356 -0.0628
   60MOL    H2642624   5.889   5.069   0.876  2.1418  0.4731  2.2419
   60MOL    H2742625   5.821   5.057   1.024 -3.3642  0.8930  0.3498
   60MOL    H2842626   5.687   5.229   0.802 -0.8328 -1.4573 -1.2867
   60MOL    H2942627   5.628   5.196   0.966 -1.0115  0.7788 -0.9637
   60MOL    H3042628   5.628   4.939   0.898  1.6258 -0.8246 -1.2457
   60MOL    H3142629   5.697   5.001   0.742 -0.3224 -0.7837  0.0920
   60MOL    H3242630   5.451   4.936   0.723 -2.5199  1.0995 -0.8883
   60MOL    H3342631   5.406   5.057   0.830 -0.5088 -2.1695 -0.6135
   60MOL    H3442632   5.562   5.172   0.614 -0.3692  1.0089  0.8399
   60MOL    H3542633   6.486   5.446   0.978  1.3923  1.5261 -0.8894
   60MOL    H3642634   6.611   5.631   1.079  0.3195 -2.6724 -0.9971
   60MOL    H3742635   6.616   5.843   1.195 -0.5022  0.1381 -0.0138
   60MOL    C3842636   5.371   5.139   0.577  0.1188  0.6207  0.0847
   60MOL    O3942637   5.287   5.051   0.578  0.3041 -0.1941 -0.3195
   60MOL    C4042638   5.365   5.254   0.480  0.1762 -0.5706 -0.0541
   60MOL    C4142639   5.464   5.354   0.473  0.0188 -1.2575 -0.3163
   60MOL    C4242640   5.458   5.460   0.377 -0.6202  0.0284 -0.0302
   60MOL    C4342641   5.331   5.485   0.305 -0.2085  0.7392 -0.4310
   60MOL    C4442642   5.314   5.602   0.217 -0.0913 -0.1059  0.1162
   60MOL    O4542643   5.265   5.582   0.107 -0.3536  0.1318 -0.1375
   60MOL    N4642644   5.351   5.720   0.262 -0.1473 -0.2728 -0.3340
   60MOL    C4742645   5.320   5.850   0.200  0.2747  0.3235 -0.6142
   60MOL    C4842646   5.391   5.971   0.263 -0.1178  0.3322  0.2855
   60MOL    C4942647   5.538   5.957   0.284 -0.2895 -0.2314  0.0516
   60MOL    C5042648   5.617   5.940   0.150 -0.0169  0.0867  0.5559
   60MOL    C5142649   5.767   5.918   0.165 -0.1920 -0.2037 -0.0149
   60MOL    C5242650   5.807   5.770   0.198  0.2392  0.2199  0.0834
   60MOL    N5342651   5.735   5.678   0.119  0.0345 -0.0028 -0.1621
   60MOL    C5442652   5.226   5.391   0.325 -0.8796  0.2992 -0.2309
   60MOL    C5542653   5.252   5.279   0.402  0.4538  0.1180  0.6274
   60MOL    H5642654   5.551   5.347   0.537 -0.0090 -0.1666 -0.1383
   60MOL    H5742655   5.534   5.536   0.384 -2.2830  1.6854  0.0956
   60MOL    H5842656   5.378   5.715   0.359  1.9102 -1.8423 -0.9439
   60MOL    H5942657   5.351   5.836   0.096  0.8304 -1.5453 -0.2014
   60MOL    H6042658   5.214   5.875   0.198  0.4595  1.0567 -1.6495
   60MOL    H6142659   5.344   6.007   0.355  0.4424  0.6634  0.4424
   60MOL    H6242660   5.378   6.053   0.193  0.5068 -0.3850 -0.6868
   60MOL    H6342661   5.579   6.042   0.339  3.6584 -0.5153 -2.2429
   60MOL    H6442662   5.559   5.879   0.357  0.8474 -0.9999 -1.0774
   60MOL    H6542663   5.604   6.032   0.093 -0.5534 -1.2583 -1.5478
   60MOL    H6642664   5.571   5.864   0.086 -2.0162  2.1025 -0.4827
   60MOL    H6742665   5.802   5.985   0.244 -0.7392  1.5014 -1.1749
   60MOL    H6842666   5.820   5.968   0.084  0.1920  0.5152  0.6714
   60MOL    H6942667   5.914   5.771   0.176  0.1140  0.2208 -0.5301
   60MOL    H7042668   5.797   5.741   0.303 -1.3914  1.5179  0.3220
   60MOL    H7142669   5.648   5.640   0.151  1.9233 -3.9208  0.6374
   60MOL    H7242670   5.127   5.396   0.283 -1.0459 -2.0922 -0.1998
   60MOL    H7342671   5.170   5.214   0.428 -0.8109  0.4544 -2.4071
   60MOL    C7442672   5.778   5.621   0.005  0.0320 -0.0300 -0.7633
   60MOL    O7542673   5.880   5.651   7.833 -0.6225  0.0676 -0.0042
   60MOL    C7642674   5.686   5.514   7.846 -0.0412 -0.1549  0.3540
   60MOL    C7742675   5.741   5.390   7.804 -0.5068 -0.0348 -0.1838
   60MOL    C7842676   5.653   5.297   7.742 -0.3879 -0.3782  0.0146
   60MOL    C7942677   5.513   5.316   7.727 -0.1284  0.4432 -0.3435
   60MOL    C8042678   5.426   5.206   7.661  0.1336  0.0223 -0.5573
   60MOL    O8142679   5.469   5.096   7.634  0.2979  0.2264 -0.4576
   60MOL    N8242680   5.306   5.248   7.625  0.1352  0.7290  0.2745
   60MOL    C8342681   5.204   5.175   7.562  0.7363 -0.2970 -0.1490
   60MOL    C8442682   5.137   5.081   7.667 -0.4225  0.0539  0.1839
   60MOL    C8542683   5.033   5.009   7.583  0.1355 -0.3401 -0.1129
   60MOL    C8642684   4.957   4.911   7.676 -0.4209  0.3198  0.3520
   60MOL    C8742685   4.843   4.976   7.754  0.1731  0.4898  0.1393
   60MOL    C8842686   4.753   4.892   7.851  0.3235 -0.1843  0.5488
   60MOL    N8942687   4.650   4.811   7.781  0.2741 -1.1897  0.3773
   60MOL    C9042688   5.462   5.434   7.791  0.4475 -0.7861 -0.1685
   60MOL    C9142689   5.546   5.529   7.856 -0.0883 -0.7310 -0.3173
   60MOL    H9242690   5.847   5.369   7.805 -0.6264 -0.5562  1.4027
   60MOL    H9342691   5.694   5.212   7.691 -1.1287  0.9601 -2.9132
   60MOL    H9442692   5.285   5.341   7.658 -0.2805  1.1353 -1.0973
   60MOL    H9542693   5.138   5.235   7.500  0.0693 -1.6915 -0.8151
   60MOL    H9642694   5.240   5.100   7.492  0.4897 -0.9811  0.4584
   60MOL    H9742695   5.082   5.134   7.745  0.3799  2.4769 -0.8520
   60MOL    H9842696   5.202   5.013   7.721 -0.7910 -0.5360 -0.1029
   60MOL    H9942697   4.967   5.088   7.547  1.0580  1.1811  1.4285
   60MOL   H10042698   5.072   4.955   7.497 -1.0151 -0.3804 -0.6239
   60MOL   H10142699   5.027   4.867   7.746  0.4639  1.1645  0.0078
   60MOL   H10242700   4.908   4.829   7.623 -0.7766  0.2581  0.7768
   60MOL   H10342701   4.776   4.992   7.669 -1.2139  0.4251  1.2147
   60MOL   H10442702   4.876   5.069   7.800 -1.3161  0.2713  1.6978
   60MOL   H10542703   4.814   4.827   0.027  0.7642 -0.7368 -0.4502
   60MOL   H10642704   4.693   4.946   0.038  0.5795  0.2913  0.4068
   60MOL   H10742705   4.583   4.861   7.724  3.5356  2.1776 -0.6681
   60MOL   H10842706   5.357   5.459   7.790  0.4908 -0.6071 -0.5859
   60MOL   H10942707   5.505   5.619   0.014  1.4340 -0.0970 -0.1815
   60MOL   C11042708   4.661   4.679   7.763 -0.4763 -0.1960 -0.5382
   60MOL   O11142709   4.741   4.600   7.820  0.4014  0.3413  0.7160
   60MOL   C11242710   4.568   4.622   7.659  0.3144  0.3093 -0.0802
   60MOL   C11342711   4.544   4.480   7.670  0.6206 -0.3812  0.3584
   60MOL   C11442712   4.456   4.425   7.573  0.2660 -0.3690 -0.6490
   60MOL   C11542713   4.391   4.503   7.473 -0.8462 -0.8510  0.1209
   60MOL   C11642714   4.317   4.426   7.369  0.2640  0.4172 -0.4074
   60MOL   O11742715   4.356   4.312   7.340  0.0774 -0.8685 -0.2623
   60MOL   N11842716   4.200   4.470   7.328 -0.0164 -0.3899  0.2075
   60MOL   C11942717   4.102   4.405   7.246  0.0581  0.2276  0.3882
   60MOL   C12042718   3.993   4.330   7.333  0.3418  0.3850 -0.8218
   60MOL   C12142719   4.057   4.214   7.421 -0.3111  0.0800 -0.0046
   60MOL   C12242720   3.947   4.120   7.476  0.8285  0.5117 -0.2174
   60MOL   C12342721   4.006   3.991   7.542  0.5037  0.1314  0.2463
   60MOL   C12442722   3.897   3.892   7.565  0.0410  0.1669  0.1758
   60MOL   N12542723   3.789   3.941   7.652 -0.0543  0.4406 -0.0277
   60MOL   C12642724   4.418   4.643   7.462  0.4268  0.2113 -0.3882
   60MOL   C12742725   4.501   4.705   7.560  0.3964  0.1950 -0.1983
   60MOL   H12842726   4.595   4.418   7.742 -0.6281 -1.3828  0.3774
   60MOL   H12942727   4.446   4.318   7.567 -0.2888 -0.5271  2.2293
   60MOL   H13042728   4.176   4.566   7.350 -0.0846  0.1344 -1.9780
   60MOL   H13142729   4.057   4.487   7.191  2.7575  1.4456 -0.1021
   60MOL   H13242730   4.148   4.333   7.178  1.1671  0.4827  0.8495
   60MOL   H13342731   3.915   4.295   7.265 -2.3203  1.5323  1.5228
   60MOL   H13442732   3.935   4.395   7.399 -1.7178 -1.8781 -0.3461
   60MOL   H13542733   4.127   4.168   7.352 -1.2087 -1.6895  0.2266
   60MOL   H13642734   4.116   4.265   7.497 -1.1762  2.4209 -0.8573
   60MOL   H13742735   3.871   4.091   7.403  2.2455 -1.2007 -1.0282
   60MOL   H13842736   3.889   4.165   7.557 -0.9435 -0.2514 -1.0378
   60MOL   H13942737   4.054   4.012   7.637  1.2622 -0.1946 -0.0641
   60MOL   H14042738   4.074   3.954   7.465  1.0140  1.2672  0.1340
   60MOL   H14142739   3.861   3.860   7.467 -0.6203  1.1696  0.0835
   60MOL   H14242740   3.933   3.800   7.612 -1.2787  0.1192  1.1227
   60MOL   H14342741   3.813   3.996   7.733  1.0478  1.1875 -0.8486
   60MOL   H14442742   4.387   4.704   7.379  0.1019 -0.2093 -0.5798
   60MOL   H14542743   4.518   4.811   7.560  1.7529 -0.0124  1.0003
   60MOL   C14642744   3.664   3.954   7.612 -0.2454 -0.2871 -0.1982
   60MOL   O14742745   3.622   3.904   7.506 -0.4488  0.0106 -0.1675
   60MOL   C14842746   3.569   4.045   7.691 -0.5315  1.1136 -0.8233
   60MOL   C14942747   3.430   4.039   7.665  1.0933  0.3109  0.5182
   60MOL   C15042748   3.338   4.126   7.735  0.1273  0.3828 -0.2415
   60MOL   C15142749   3.382   4.211   7.834 -0.1450  0.6133  0.0798
   60MOL   C15242750   3.293   4.313   0.012 -0.0781  0.3282 -0.2497
   60MOL   O15342751   3.338   4.429   0.034  0.3190 -0.4643 -0.2382
   60MOL   N15442752   3.172   4.272   0.049 -0.0669 -1.2971 -0.0182
   60MOL   C15542753   3.075   4.363   0.091 -0.4229  0.0830 -0.4789
   60MOL   C15642754   2.985   4.414   7.866  0.4746 -0.0365  0.2542
   60MOL   C15742755   2.907   4.306   7.782 -0.7559 -0.0569  0.0512
   60MOL   C15842756   2.941   4.324   7.628  0.4248  0.2693 -0.2506
   60MOL   C15942757   2.871   4.442   7.562 -0.3401 -1.0677 -0.2162
   60MOL   C16042758   2.889   4.480   7.410 -0.4901 -0.6204  0.2889
   60MOL   N16142759   2.798   4.589   7.377 -0.1323  0.5043 -0.1459
   60MOL   C16242760   3.518   4.215   7.866  0.2595 -0.5412  0.5267
   60MOL   C16342761   3.614   4.141   7.786 -0.6467  0.1013 -0.0765
   60MOL   H16442762   3.400   3.975   7.583  1.6914 -0.1258  0.6387
   60MOL   H16542763   3.232   4.122   7.712 -0.6669  3.4118  2.5124
   60MOL   H16642764   3.153   4.173   0.056 -1.1297 -1.1803 -1.0789
   60MOL   H16742765   3.013   4.316   0.168  0.3769 -2.1907 -1.1793
   60MOL   H16842766   3.124   4.441   0.148 -0.8794 -1.0818  1.5703
   60MOL   H16942767   3.030   4.491   7.803 -1.4012 -0.5058 -1.7377
   60MOL   H17042768   2.905   4.474   0.024  1.8651  0.5367  2.0380
   60MOL   H17142769   2.931   4.201   7.799 -1.0431  0.0957  1.3906
   60MOL   H17242770   2.798   4.310   7.784 -0.7007  2.0474  0.4188
   60MOL   H17342771   2.920   4.242   7.559  0.3968  1.1436 -1.2892
   60MOL   H17442772   3.045   4.351   7.615 -0.0645  1.6663 -1.3119
   60MOL   H17542773   2.905   4.532   7.613  0.3931 -0.9911 -0.8193
   60MOL   H17642774   2.767   4.435   7.592  0.3275 -2.3914  1.9568
   60MOL   H17742775   2.989   4.518   7.393 -1.2774  1.1336 -0.4841
   60MOL   H17842776   2.866   4.387   7.358 -0.6803  0.0275 -0.8046
   60MOL   H17942777   2.726   4.616   7.442  0.0061 -2.1051  1.1779
   60MOL   H18042778   3.559   4.291   0.043  1.3139  0.2131 -1.0244
   60MOL   H18142779   3.721   4.147   7.797 -0.6725  1.1135 -0.2833
   60MOL   C18242780   2.812   4.665   7.275 -0.4819 -0.1121 -0.2176
   60MOL   O18342781   2.915   4.658   7.202 -0.7715 -0.3855 -0.6084
   60MOL   C18442782   2.711   4.781   7.262  0.1644 -0.2371  0.1134
   60MOL   C18542783   2.746   4.899   7.196 -0.0812  0.1228 -0.0076
   60MOL   C18642784   2.652   5.007   7.187  0.0928 -0.4875  0.1475
   60MOL   C18742785   2.521   4.993   7.239  0.4989 -0.3239 -0.5289
   60MOL   C18842786   2.425   5.114   7.243 -0.2963 -0.1129 -0.2865
   60MOL   O18942787   2.443   5.212   7.176  0.1896  0.1412 -0.1426
   60MOL   N19042788   2.340   5.100   7.343 -0.3196 -0.0301 -0.3567
   60MOL   C19142789   2.246   5.198   7.397 -0.0981 -0.0671  0.3601
   60MOL   C19242790   2.195   5.149   7.531 -0.0777 -0.9275  0.0923
   60MOL   C19342791   2.081   5.243   7.581  0.7986  0.1138 -0.1073
   60MOL   C19442792   2.013   5.178   7.703 -0.0686  0.0128  0.0035
   60MOL   C19542793   2.082   5.193   7.837 -0.2851 -0.1577 -0.1622
   60MOL   C19642794   2.022   5.102   0.065 -0.2170  0.4126  0.0703
   60MOL   N19742795   2.115   5.111   0.174 -0.4022 -0.3257  0.5236
   60MOL   C19842796   2.485   4.872   7.300  0.8240 -0.4544 -0.3906
   60MOL   C19942797   2.579   4.765   7.311  0.2954 -0.4612 -0.5567
   60MOL   H20042798   2.850   4.911   7.169 -0.1890 -0.0454 -0.5071
   60MOL   H20142799   2.686   5.101   7.146 -0.0869  0.0209  1.1479
   60MOL   H20242800   2.339   5.006   7.380  1.8453 -0.1096 -0.4263
   60MOL   H20342801   2.293   5.297   7.404 -1.0634  0.2594  2.4292
   60MOL   H20442802   2.162   5.207   7.328 -0.2692  0.5482  0.6415
   60MOL   H20542803   2.276   5.159   7.602  0.6221  2.3242 -1.0683
   60MOL   H20642804   2.165   5.044   7.525 -0.1673 -0.9631  1.0449
   60MOL   H20742805   2.111   5.345   7.604 -2.9349  0.4677  3.8974
   60MOL   H20842806   2.006   5.240   7.501 -0.1742  2.9067  0.6512
   60MOL   H20942807   1.990   5.075   7.676  2.3650 -0.2606 -1.1209
   60MOL   H21042808   1.920   5.231   7.722 -0.5596 -1.0058  0.5012
   60MOL   H21142809   2.056   5.289   7.882 -0.6330  0.3790 -1.4771
   60MOL   H21242810   2.190   5.182   7.830 -0.1457  1.2121 -0.2086
   60MOL   H21342811   1.923   5.134   0.095 -1.5748 -0.8396 -2.8904
   60MOL   H21442812   2.017   4.998   0.033  0.1132  1.1725 -2.5362
   60MOL   H21542813   2.112   5.192   0.235 -1.4537 -0.4779  0.6694
   60MOL   H21642814   2.382   4.851   7.322  0.4850  1.4444 -0.1055
   60MOL   H21742815   2.555   4.667   7.352  1.5036  0.4213  2.4378
   60MOL   C21842816   2.218   5.027   0.198  0.3881 -0.4494 -0.1714
   60MOL   O21942817   2.248   4.934   0.126  0.2659  0.4376  0.0882
   60MOL   C22042818   2.297   5.057   0.323  0.9657 -0.3412  0.3179
   60MOL   C22142819   2.247   5.145   0.419 -0.9123  0.4481 -0.8982
   60MOL   C22242820   2.286   5.144   0.556  0.3081 -0.1077  0.1076
   60MOL   C22342821   2.381   5.045   0.599  0.3613  0.2536  0.2293
   60MOL   C22442822   2.412   5.027   0.750  0.2286  0.0115 -0.3411
   60MOL   O22542823   2.474   4.926   0.786  0.1318 -0.1740  0.2898
   60MOL   N22642824   2.370   5.115   0.837  0.4929  0.2109 -0.4154
   60MOL   C22742825   2.399   5.121   0.980 -0.0382  0.1164  0.4344
   60MOL   C22842826   2.269   5.179   1.044 -0.4454 -0.3437  0.2760
   60MOL   C22942827   2.280   5.201   1.195 -0.3893 -0.7529  0.1523
   60MOL   C23042828   2.327   5.076   1.273  0.0401 -0.4761 -0.5721
   60MOL   C23142829   2.332   5.086   1.429  0.0902  0.1373 -0.2978
   60MOL   C23242830   2.379   4.956   1.502 -0.4345  0.0312 -0.1477
   60MOL   N23342831   2.354   4.963   1.642 -0.4008  0.0957  0.8556
   60MOL   C23442832   2.441   4.963   0.506 -0.2106  0.0566 -0.2331
   60MOL   C23542833   2.402   4.972   0.370 -0.3549 -0.8421  0.1435
   60MOL   H23642834   2.175   5.223   0.399  0.9771  2.2013 -1.1354
   60MOL   H23742835   2.237   5.215   0.620 -1.6160 -1.4722  0.1754
   60MOL   H23842836   2.319   5.191   0.794  0.4074  0.8259  0.7648
   60MOL   H23942837   2.426   5.021   1.013  2.5227  0.8693  0.7455
   60MOL   H24042838   2.485   5.187   0.992 -0.1116  0.3591 -0.3564
   60MOL   H24142839   2.183   5.112   1.046 -1.2803  0.7005  0.3799
   60MOL   H24242840   2.239   5.267   0.986  2.3938  0.3494 -0.2062
   60MOL   H24342841   2.352   5.281   1.215 -1.3449  0.0950  0.2240
   60MOL   H24442842   2.185   5.233   1.237  0.1382 -2.4961  2.8226
   60MOL   H24542843   2.430   5.063   1.240 -0.1548 -0.6083 -1.1345
   60MOL   H24642844   2.257   5.001   1.238 -0.4110  0.9459 -2.8100
   60MOL   H24742845   2.227   5.091   1.458  0.3003 -0.8242  0.6493
   60MOL   H24842846   2.387   5.172   1.465 -3.5908  3.1813 -1.5308
   60MOL   H24942847   2.321   4.870   1.469 -1.7384  1.0494 -0.5564
   60MOL   H25042848   2.483   4.927   1.485 -0.3508  0.8239 -1.0719
   60MOL   H25142849   2.324   5.052   1.679 -0.6990  0.6863 -0.7416
   60MOL   H25242850   2.505   4.884   0.545  0.3189  0.7130  0.2441
   60MOL   H25342851   2.426   4.886   0.308 -1.0129 -0.5269 -0.5461
   60MOL   C25442852   2.366   4.857   1.719 -0.0046  0.3726 -0.0725
   60MOL   O25542853   2.378   4.744   1.672  0.3359 -0.1215 -0.1439
   60MOL   C25642854   2.362   4.878   1.866 -0.1434  0.1946 -0.4466
   60MOL   C25742855   2.305   4.787   1.960 -0.4502  0.0531  0.0680
   60MOL   C25842856   2.313   4.816   2.099  0.6720  0.0562 -0.3706
   60MOL   C25942857   2.377   4.934   2.141  0.3124  0.1570  0.0823
   60MOL   C26042858   2.390   4.970   2.287  0.2288 -0.0859 -0.0469
   60MOL   O26142859   2.375   5.085   2.333  0.7732  0.2348  0.4191
   60MOL   N26242860   2.426   4.873   2.368  0.2767  0.4997  0.8931
   60MOL   C26342861   2.474   4.894   2.504 -0.3402 -0.2390 -0.7142
   60MOL   C26442862   2.629   4.890   2.519  0.0955  0.4763  0.1808
   60MOL   C26542863   2.688   4.748   2.497  0.1406 -0.2176  0.4829
   60MOL   C26642864   2.651   4.634   2.602  0.8149  0.4194  1.0233
   60MOL   C26742865   2.704   4.495   2.560 -0.5435  0.1556  0.0903
   60MOL   C26842866   2.638   4.438   2.436  0.1473  0.2998 -0.7477
   60MOL   N26942867   2.490   4.435   2.445 -0.1228  0.3236 -0.0733
   60MOL   C27042868   2.435   5.022   2.047 -0.0205 -0.3084  0.5768
   60MOL   C27142869   2.415   5.000   1.909 -0.4933 -0.1835 -0.4574
   60MOL   H27242870   2.256   4.695   1.932  1.7321 -0.8802 -0.7834
   60MOL   H27342871   2.269   4.749   2.171 -2.3435  0.1532 -2.0549
   60MOL   H27442872   2.427   4.781   2.328 -1.5544  2.0328 -2.9695
   60MOL   H27542873   2.433   4.982   2.553  0.7160 -0.2214  0.1692
   60MOL   H27642874   2.429   4.809   2.556  2.6673 -1.4961 -0.0387
   60MOL   H27742875   2.649   4.908   2.625 -0.5095  0.2754  0.3310
   60MOL   H27842876   2.666   4.973   2.459  1.3280 -0.0997  0.1280
   60MOL   H27942877   2.669   4.707   2.398 -3.7053 -1.4604  1.6450
   60MOL   H28042878   2.797   4.747   2.504  0.1028  0.3264  1.2109
   60MOL   H28142879   2.543   4.628   2.613  0.6112  0.9741 -0.5716
   60MOL   H28242880   2.685   4.663   2.702 -0.8746 -0.0457  1.7512
   60MOL   H28342881   2.697   4.429   2.646 -1.3880 -0.6251 -0.5702
   60MOL   H28442882   2.811   4.512   2.547 -0.7505  1.2490 -0.3011
   60MOL   H28542883   2.666   4.489   2.344 -0.4692  2.2408  0.1142
   60MOL   H28642884   2.665   4.333   2.424 -1.4686 -0.0946 -1.0834
   60MOL   H28742885   2.449   4.368   2.508 -0.4043  0.6801  0.1213
   60MOL   H28842886   2.473   5.118   2.079 -1.0175  0.3917 -0.3382
   60MOL   H28942887   2.451   5.073   1.838  0.3539 -0.8059 -0.6700
   60MOL   C29042888   2.411   4.507   2.368 -0.0227  0.3028 -0.4110
   60MOL   O29142889   2.441   4.597   2.286 -0.2560  0.1566  0.1269
   60MOL   C29242890   2.267   4.470   2.390 -0.1417 -0.3616  0.0418
   60MOL   C29342891   2.232   4.417   2.516  0.4137 -0.2241  0.7004
   60MOL   C29442892   2.100   4.385   2.549 -0.0850  0.0547  0.3235
   60MOL   C29542893   1.997   4.424   2.459 -0.2886 -0.5292 -0.0712
   60MOL   C29642894   1.849   4.411   2.490  0.2363 -0.1970  0.1721
   60MOL   O29742895   1.808   4.415   2.607  0.0165  0.1636  0.2584
   60MOL   N29842896   1.771   4.386   2.387  0.1590 -0.3557 -0.2412
   60MOL   C29942897   1.629   4.356   2.393 -0.3502 -0.4195  0.0233
   60MOL   C30042898   1.545   4.483   2.437 -0.1877 -0.1446 -0.0189
   60MOL   C30142899   1.548   4.596   2.331  0.5043 -0.3756 -0.2680
   60MOL   C30242900   1.491   4.728   2.377 -0.5266 -0.0532  0.1383
   60MOL   C30342901   1.487   4.843   2.274  0.0383  0.1918  0.3454
   60MOL   C30442902   1.404   4.973   2.312  0.3513  0.0092  0.2914
   60MOL   N30542903   1.439   5.076   2.210  0.0560 -0.2343  0.4375
   60MOL   C30642904   2.032   4.488   2.336  0.0672 -0.0093  0.1624
   60MOL   C30742905   2.165   4.502   2.293  0.7104  0.7913  0.0161
   60MOL   H30842906   2.304   4.391   2.592  1.9050  0.4154 -0.4611
   60MOL   H30942907   2.063   4.346   2.643 -0.7328  0.5369  0.2713
   60MOL   H31042908   1.822   4.366   2.302  0.7893  0.8703 -0.1622
   60MOL   H31142909   1.599   4.317   2.296  0.5090 -2.8972  0.7083
   60MOL   H31242910   1.631   4.286   2.476  1.2234 -0.6801 -0.2166
   60MOL   H31342911   1.578   4.519   2.535 -1.4525 -1.3460  0.8718
   60MOL   H31442912   1.442   4.451   2.456  0.6785 -2.5643  0.7287
   60MOL   H31542913   1.653   4.609   2.304  0.1738  0.0458 -1.3652
   60MOL   H31642914   1.493   4.557   2.246 -1.0565 -0.6787  0.8668
   60MOL   H31742915   1.558   4.771   2.452 -0.8884  0.6939  0.0332
   60MOL   H31842916   1.393   4.714   2.423 -0.3783 -0.5755  0.3028
   60MOL   H31942917   1.455   4.801   2.178 -4.6490  1.4254  1.2470
   60MOL   H32042918   1.591   4.870   2.257 -0.2897  2.8728  2.2570
   60MOL   H32142919   1.296   4.954   2.313  0.3140  0.2214  2.1358
   60MOL   H32242920   1.434   5.013   2.409  2.2640 -2.4963  0.7951
   60MOL   H32342921   1.524   5.127   2.231 -0.4848  0.9424 -0.1938
   60MOL   H32442922   1.957   4.520   2.266 -1.6260 -1.6186  1.1804
   60MOL   H32542923   2.194   4.553   2.202  0.0143  0.3466 -0.4593
   60MOL   C32642924   1.392   5.075   2.086 -0.4316 -0.0249  0.0388
   60MOL   O32742925   1.308   4.999   2.048 -0.0445 -0.1698  0.2638
   60MOL   C32842926   1.453   5.169   1.986  0.4737  0.0653  0.3548
   60MOL   C32942927   1.464   5.131   1.855  0.1093 -0.5724 -0.2469
   60MOL   C33042928   1.526   5.211   1.755 -0.1246 -0.1234  0.1147
   60MOL   C33142929   1.594   5.329   1.796 -1.0662 -0.5274  0.8260
   60MOL   C33242930   1.662   5.414   1.697 -0.4865  0.1085 -0.0864
   60MOL   O33342931   1.768   5.471   1.724 -0.3689  0.3009  0.2145
   60MOL   N33442932   1.598   5.442   1.581  0.2029  0.0338 -0.0776
   60MOL   C33542933   1.647   5.540   1.484  0.6236 -0.2495  0.7200
   60MOL   C33642934   1.533   5.578   1.387  1.1043  0.0306  0.3752
   60MOL   C33742935   1.469   5.464   1.305  0.4831 -0.2685 -0.6127
   60MOL   C33842936   1.578   5.388   1.234  0.2337  0.4204 -0.6820
   60MOL   C33942937   1.531   5.289   1.128 -0.2760  0.3688 -0.2449
   60MOL   C34042938   1.468   5.357   1.002 -0.8147  0.0275 -0.5986
   60MOL   N34142939   1.569   5.427   0.923  0.3830  0.2638  0.2069
   60MOL   C34242940   1.574   5.377   1.929  0.0601  0.2079  0.3678
   60MOL   C34342941   1.505   5.292   2.021  0.1325 -0.1049 -0.4063
   60MOL   H34442942   1.428   5.033   1.830 -0.6260 -1.0066  2.3125
   60MOL   H34542943   1.538   5.161   1.660  1.2042  0.9545 -0.2992
   60MOL   H34642944   1.509   5.395   1.573  0.0238  0.0082  1.7970
   60MOL   H34742945   1.684   5.629   1.535  0.7624  0.7209 -1.0185
   60MOL   H34842946   1.732   5.499   1.431 -1.6244 -0.8916 -2.5814
   60MOL   H34942947   1.569   5.653   1.317  0.5947 -0.0880 -0.0201
   60MOL   H35042948   1.450   5.632   1.431  1.4890  0.0029  1.1395
   60MOL   H35142949   1.415   5.386   1.358  0.7851 -0.5713 -0.7426
   60MOL   H35242950   1.396   5.496   1.231 -0.7523 -0.7036  0.4095
   60MOL   H35342951   1.645   5.343   1.307 -0.4071 -0.1744 -0.4546
   60MOL   H35442952   1.644   5.457   1.181 -0.4417  2.9050  1.5957
   60MOL   H35542953   1.473   5.206   1.168  0.8919  0.2077  1.1543
   60MOL   H35642954   1.627   5.242   1.107  0.3741  1.8419 -0.6643
   60MOL   H35742955   1.440   5.275   0.936 -3.2041 -0.1702  0.6214
   60MOL   H35842956   1.379   5.413   1.028 -0.5067 -0.1049  0.7988
   60MOL   H35942957   1.653   5.372   0.919  0.9463  0.9475  1.8911
   60MOL   H36042958   1.601   5.478   1.952  0.9386 -0.0554  0.5031
   60MOL   H36142959   1.489   5.327   2.122 -1.2306  1.4646 -1.1371
   60MOL   C36242960   1.548   5.549   0.865  0.2221  0.7706 -0.3230
   60MOL   O36342961   1.444   5.619   0.879 -0.0863 -0.5687 -0.0219
   60MOL   C36442962   1.679   5.591   0.790  0.2187  0.7129  0.0563
   60MOL   C36542963   1.711   5.730   0.770  0.1183 -0.5254  0.0193
   60MOL   C36642964   1.826   5.761   0.694 -0.0813 -0.2524  0.3426
   60MOL   C36742965   1.901   5.659   0.633  0.4095 -0.4276 -0.5189
   60MOL   C36842966   2.028   5.689   0.547  0.0716  0.2351  0.4031
   60MOL   O36942967   2.099   5.593   0.518  0.3320  0.7117  0.1778
   60MOL   N37042968   2.050   5.811   0.510 -0.2190 -0.5978 -0.5204
   60MOL   C37142969   2.158   5.861   0.429  0.1202  0.2314  0.5957
   60MOL   C37242970   2.281   5.896   0.516  0.2649  0.1642 -0.3081
   60MOL   C37342971   2.385   5.954   0.425 -0.9499 -0.5406 -0.4221
   60MOL   C37442972   2.351   6.091   0.352  0.1260  0.0490  0.1675
   60MOL   C37542973   2.466   6.137   0.268  0.1467 -0.1611 -0.1279
   60MOL   C37642974   2.447   6.287   0.232 -0.4472  0.7320 -0.1185
   60MOL   N37742975   2.551   6.333   0.142  0.2338 -0.4218 -0.5453
   60MOL   C37842976   1.873   5.524   0.670  0.4825 -0.3313  0.3619
   60MOL   C37942977   1.771   5.492   0.755 -0.2394  0.4750 -0.3095
   60MOL   H38042978   1.657   5.814   0.813  0.8317  1.3429 -2.6086
   60MOL   H38142979   1.862   5.863   0.689  0.4661 -0.5461 -2.4660
   60MOL   H38242980   1.981   5.875   0.547  2.3812  1.4313  0.9784
   60MOL   H38342981   2.183   5.786   0.354 -0.0527 -0.6864  1.4463
   60MOL   H38442982   2.116   5.942   0.370  0.6044 -1.4313 -2.1311
   60MOL   H38542983   2.323   5.806   0.561 -1.6329 -0.6212 -0.0521
   60MOL   H38642984   2.260   5.968   0.595 -0.6890  2.2474 -2.3974
   60MOL   H38742985   2.473   5.968   0.489 -1.4892  1.5670 -0.1299
   60MOL   H38842986   2.417   5.882   0.349  2.5552 -0.0730  0.4867
   60MOL   H38942987   2.338   6.165   0.431  2.2002 -0.9516  1.4830
   60MOL   H39042988   2.260   6.095   0.291  0.1089 -2.0115  0.0307
   60MOL   H39142989   2.464   6.070   0.182 -1.7808  0.5979 -0.7211
   60MOL   H39242990   2.551   6.127   0.335  0.5427  0.9452 -0.4471
   60MOL   H39342991   2.347   6.302   0.192  0.3988 -0.5820 -2.8025
   60MOL   H39442992   2.451   6.343   0.326 -5.8006 -0.5574  1.0104
   60MOL   H39542993   2.543   6.305   0.046  1.4109  0.6233 -0.9585
   60MOL   H39642994   1.946   5.450   0.642 -0.2357 -0.8848 -0.0686
   60MOL   H39742995   1.758   5.389   0.784  1.4727  0.7417  1.5507
   60MOL   C39842996   2.645   6.425   0.172  0.2575  0.1595  0.3493
   60MOL   O39942997   2.670   6.470   0.286  0.0211 -0.7742  0.1152
   60MOL   C40042998   2.745   6.461   0.069  0.0857  0.2218 -0.2343
   60MOL   C40142999   2.755   6.395   7.833 -0.9110  0.6651  0.5508
   60MOL   C40243000   2.852   6.435   7.737  0.2788  0.1318  0.8087
   60MOL   C40343001   2.940   6.542   7.764  0.0559  0.3480 -0.5557
   60MOL   C40443002   3.058   6.566   7.673  0.2499 -0.3438  0.2687
   60MOL   O40543003   3.095   6.483   7.584  0.1042  0.2529 -0.5739
   60MOL   N40643004   3.118   6.684   7.686 -0.5646 -0.2585 -0.0542
   60MOL   C40743005   3.243   6.727   7.624  0.1811 -0.5268 -0.1049
   60MOL   C40843006   3.308   6.842   7.705 -0.2638 -0.4002 -0.1604
   60MOL   C40943007   3.337   6.797   7.849 -0.1881  0.0304 -0.4394
   60MOL   C41043008   3.418   6.891   0.055  0.7702  0.3323  0.3063
   60MOL   C41143009   3.348   7.030   0.082 -0.3769  0.0970  0.1094
   60MOL   C41243010   3.433   7.133   0.165  0.0589 -0.1639 -0.8071
   60MOL   N41343011   3.563   7.156   0.109 -0.0575  0.2056  0.9616
   60MOL   C41443012   2.932   6.608   0.005 -0.6208 -0.2921  0.4558
   60MOL   C41543013   2.835   6.569   0.096  0.5166  0.4202  0.1404
   60MOL   H41643014   2.696   6.308   7.810  0.9570 -1.4650  3.4705
   60MOL   H41743015   2.863   6.379   7.646  0.7574  1.0545  0.2911
   60MOL   H41843016   3.083   6.743   7.760  0.6363  0.3278  0.0629
   60MOL   H41943017   3.311   6.647   7.597  2.1668  0.4450  1.8678
   60MOL   H42043018   3.212   6.768   7.528 -0.5845 -2.2887 -0.6297
   60MOL   H42143019   3.241   6.927   7.713  0.4223  0.4034 -2.6836
   60MOL   H42243020   3.398   6.877   7.656 -0.8574 -0.1607 -1.0925
   60MOL   H42343021   3.248   6.768   0.018  0.2486 -0.5257 -0.0163
   60MOL   H42443022   3.387   6.700   7.848 -0.2211  0.0067  0.0131
   60MOL   H42543023   3.510   6.910   0.001  0.1444 -0.3450 -1.0034
   60MOL   H42643024   3.448   6.841   0.148  1.8166  1.4446  0.5766
   60MOL   H42743025   3.267   7.014   0.152  1.3338 -0.2586  2.0584
   60MOL   H42843026   3.321   7.073   7.871 -1.1923  0.2822  0.4129
   60MOL   H42943027   3.371   7.222   0.161 -0.7134 -0.3031  4.6552
   60MOL   H43043028   3.444   7.110   0.271  1.7767 -0.4553 -1.0340
   60MOL   H43143029   3.559   7.205   0.021  0.2146  0.0004  0.8341
   60MOL   H43243030   2.998   6.689   0.029  1.0219 -1.5326  0.2445
   60MOL   H43343031   2.833   6.601   0.200 -3.6544  1.3566 -0.1517
   60MOL   C43443032   3.680   7.165   0.177 -0.0588  0.1024  0.0323
   60MOL   O43543033   3.689   7.134   0.296  0.3391 -0.2249  0.0078
   60MOL   C43643034   3.795   7.231   0.107  0.5234 -0.1091  0.3319
   60MOL   C43743035   3.815   7.204   7.857  0.4745  0.0705  0.1392
   60MOL   C43843036   3.906   7.278   7.784 -0.5846 -0.2082  0.6064
   60MOL   C43943037   3.985   7.378   7.841  0.1044  0.0280 -0.0587
   60MOL   C44043038   4.105   7.435   7.762 -0.2587 -0.0855  0.4890
   60MOL   O44143039   4.198   7.491   7.818  0.0313  0.3402 -0.3522
   60MOL   N44243040   4.098   7.434   7.629 -0.3256 -0.8182  0.6909
   60MOL   C44343041   4.171   7.511   7.531 -0.6406  0.0011  0.6140
   60MOL   C44443042   4.135   7.657   7.559 -0.4025  0.2658 -0.2297
   60MOL   C44543043   4.182   7.761   7.455  0.3463  0.5488  0.0749
   60MOL   C44643044   4.330   7.793   7.438  0.1228  0.8673 -0.0318
   60MOL   C44743045   4.420   7.698   7.364 -0.3132  0.1398  0.2124
   60MOL   C44843046   4.569   7.743   7.369 -0.0210 -1.3383 -0.2434
   60MOL   N44943047   4.584   7.881   7.314  0.5120  0.1303 -0.4653
   60MOL   C45043048   3.970   7.405   0.092 -0.2026  0.2865  0.2126
   60MOL   C45143049   3.872   7.330   0.170  0.3767 -0.4420  0.0548
   60MOL   H45243050   3.749   7.132   7.810 -1.0668  0.1908  2.0488
   60MOL   H45343051   3.923   7.252   7.681 -0.8002 -0.8568  0.7365
   60MOL   H45443052   4.005   7.408   7.598 -0.8672  0.4084  1.2675
   60MOL   H45543053   4.277   7.499   7.552  0.0040 -0.9396 -2.8647
   60MOL   H45643054   4.158   7.502   7.423 -0.3379  0.9545  0.4888
   60MOL   H45743055   4.191   7.684   7.649 -0.3480 -0.8804  0.0863
   60MOL   H45843056   4.030   7.662   7.585 -0.2316 -0.1538  0.5507
   60MOL   H45943057   4.135   7.738   7.360 -0.4192  0.5242  0.4551
   60MOL   H46043058   4.139   7.859   7.475  0.9204  1.4007 -2.7222
   60MOL   H46143059   4.376   7.808   7.536  1.2925  1.0301 -0.5950
   60MOL   H46243060   4.346   7.884   7.380  0.3229 -0.3529 -1.9624
   60MOL   H46343061   4.387   7.673   7.264 -0.1433  0.1930  0.1426
   60MOL   H46443062   4.421   7.603   7.418  0.2456  0.9746  1.7109
   60MOL   H46543063   4.608   7.729   7.470  0.7121 -1.0597 -0.4840
   60MOL   H46643064   4.619   7.668   7.307  0.8060  0.8820 -2.3263
   60MOL   H46743065   4.503   0.055   7.308  1.4508  1.6161  1.2491
   60MOL   H46843066   4.024   7.483   0.142 -0.2271  0.5689 -0.1976
   60MOL   H46943067   3.861   7.335   0.277  0.5563 -1.4410  0.1318
   60MOL   C47043068   4.702   0.037   7.269 -0.5612 -0.6127  0.5567
   60MOL   O47143069   4.805   7.860   7.272  0.2001 -0.2044 -0.4376
   60MOL   C47243070   4.708   0.169   7.210 -0.1022  0.1905  0.5803
   60MOL   C47343071   4.826   0.248   7.210 -0.0772  0.4908  0.8361
   60MOL   C47443072   4.833   0.379   7.150  0.1230  0.2741 -0.3825
   60MOL   C47543073   4.713   0.435   7.093  0.1783  0.7552  0.1021
   60MOL   C47643074   4.710   0.564   7.018  0.2917 -0.0575  0.1930
   60MOL   O47743075   4.624   0.587   6.934 -0.2218 -0.3549 -0.0104
   60MOL   N47843076   4.809   0.649   7.035 -0.0174  0.0031  0.1887
   60MOL   C47943077   4.833   0.774   6.965  0.5986 -0.0933 -0.1146
   60MOL   C48043078   4.975   0.820   6.991  0.6017 -0.0904 -0.2633
   60MOL   C48143079   5.018   0.960   6.948  0.1551  0.1463  0.3862
   60MOL   C48243080   5.171   1.003   6.977  0.1577  0.1357  0.6505
   60MOL   C48343081   5.172   1.148   7.013  0.5075  0.3274  0.3246
   60MOL   C48443082   5.308   1.210   7.016  0.0058  0.3593  0.1120
   60MOL   N48543083   5.299   1.358   7.041 -0.0850  0.1324  0.2443
   60MOL   C48643084   4.597   0.364   7.112  0.4567 -0.2216 -0.4426
   60MOL   C48743085   4.591   0.237   7.167 -0.2224  0.0053 -0.2453
   60MOL   H48843086   4.916   0.215   7.259 -0.4964 -2.8403 -0.4519
   60MOL   H48943087   4.927   0.431   7.154  0.4732 -0.1649 -2.4033
   60MOL   H49043088   4.872   0.637   7.113  0.3241 -0.1023 -0.1028
   60MOL   H49143089   4.799   0.763   6.862 -0.5991 -0.9579  0.3647
   60MOL   H49243090   4.756   0.840   7.004  0.0803  1.3280 -3.3907
   60MOL   H49343091   5.037   0.748   6.937 -0.3555 -1.2230  0.1348
   60MOL   H49443092   4.999   0.813   7.098 -1.9560 -2.9885  0.1774
   60MOL   H49543093   4.980   0.987   6.849 -2.6138  2.8477  2.0982
   60MOL   H49643094   4.964   1.021   7.021  1.2410  1.9719 -0.2910
   60MOL   H49743095   5.237   0.979   6.893 -0.4582  1.5133 -0.2476
   60MOL   H49843096   5.205   0.935   7.055 -0.2591  0.6535  1.2787
   60MOL   H49943097   5.116   1.163   7.105  1.3861  1.0073  0.7516
   60MOL   H50043098   5.114   1.191   6.931  3.2935  1.6289 -1.0277
   60MOL   H50143099   5.371   1.145   7.077 -2.6301 -3.6114 -1.1994
   60MOL   H50243100   5.353   1.194   6.918 -0.8062 -1.6850  0.0400
   60MOL   H50343101   5.245   1.381   7.123 -1.5748 -1.9640 -0.1100
   60MOL   H50443102   4.504   0.403   7.072  1.0601  1.4610 -0.2372
   60MOL   H50543103   4.498   0.182   7.163  0.6921 -1.6096  0.1233
   60MOL   C50643104   5.355   1.455   6.971  0.4569 -0.0834  0.0561
   60MOL   O50743105   5.423   1.440   6.868 -0.6393 -0.8813 -0.0888
   60MOL   C50843106   5.332   1.593   7.038  0.0999 -0.1631  0.1167
   60MOL   C50943107   5.287   1.699   6.958  0.3008 -0.0108  0.8227
   60MOL   C51043108   5.269   1.826   7.010 -0.6047 -0.3929  0.1954
   60MOL   C51143109   5.294   1.843   7.146 -0.2045 -0.3916 -0.1986
   60MOL   C51243110   5.275   1.976   7.210  0.3712 -0.0033  0.1542
   60MOL   O51343111   5.302   2.081   7.153 -0.0407 -0.0419  0.1601
   60MOL   N51443112   5.216   1.985   7.333 -0.4149 -0.5732 -0.1075
   60MOL   C51543113   5.210   2.103   7.409  0.4976  0.0623  0.7700
   60MOL   C51643114   5.150   2.072   7.544  0.7548 -0.0654  0.3429
   60MOL   C51743115   5.140   2.202   7.628  0.0200 -0.0090  0.5569
   60MOL   C51843116   5.057   2.181   7.755 -0.2772  0.0635 -0.2493
   60MOL   C51943117   5.148   2.192   7.885  0.2093 -0.4004  0.3316
   60MOL   C52043118   5.061   2.206   0.127  0.3511  0.2832  0.0366
   60MOL   N52143119   5.132   2.221   0.251  0.0077 -0.1635 -0.3958
   60MOL   C52243120   5.330   1.731   7.228  0.0030  0.0076  0.1629
   60MOL   C52343121   5.358   1.606   7.177  0.1689 -0.2557 -0.1259
   60MOL   H52443122   5.281   1.682   6.851  1.3297 -2.0264  1.0732
   60MOL   H52543123   5.258   1.909   6.941  0.6449 -1.0315 -0.7917
   60MOL   H52643124   5.178   1.901   7.375 -0.8285 -0.2280  0.2085
   60MOL   H52743125   5.304   2.156   7.421 -0.0097  1.6204 -1.6810
   60MOL   H52843126   5.146   2.171   7.352  2.1371  1.3491  0.4324
   60MOL   H52943127   5.219   2.008   7.599  1.4947  1.2004  0.9295
   60MOL   H53043128   5.055   2.020   7.539  1.0286 -0.8231  2.2432
   60MOL   H53143129   5.242   2.230   7.654  0.4067 -1.4488  0.6580
   60MOL   H53243130   5.093   2.276   7.563 -0.3086 -1.1461 -0.5228
   60MOL   H53343131   4.991   2.095   7.763 -0.7379  0.1731 -2.3966
   60MOL   H53443132   4.983   2.261   7.755  1.5439  1.8027 -1.1517
   60MOL   H53543133   5.213   2.279   7.877  0.1571 -0.5133 -1.4353
   60MOL   H53643134   5.213   2.105   0.013  0.6957 -0.2331 -0.8339
   60MOL   H53743135   4.995   2.292   0.116 -2.3076 -1.8533 -1.4969
   60MOL   H53843136   4.990   2.124   0.134  0.4716  0.0463 -1.2685
   60MOL   H53943137   5.196   2.298   0.265 -0.7378  0.0629  1.9656
   60MOL   H54043138   5.341   1.748   7.334  0.4767  0.1463  0.0964
   60MOL   H54143139   5.370   1.525   7.248  0.6039  0.2796  0.4110
   60MOL   C54243140   5.104   2.141   0.361 -0.0714 -0.2632  0.2910
   60MOL   O54343141   5.024   2.051   0.362 -0.0599  0.2582  0.3202
   60MOL   C54443142   5.178   2.170   0.490 -0.5338  0.1785 -0.2708
   60MOL   C54543143   5.244   2.292   0.507  0.2719 -0.0096  0.3548
   60MOL   C54643144   5.310   2.313   0.629 -0.5835 -0.7209 -0.1872
   60MOL   C54743145   5.308   2.224   0.738 -0.0079 -0.5117  0.3226
   60MOL   C54843146   5.369   2.276   0.871 -0.3781  0.2934  0.2219
   60MOL   O54943147   5.481   2.332   0.882  0.3684  0.7077  0.5823
   60MOL   N55043148   5.284   2.258   0.971  0.2236  0.0311  0.7612
   60MOL   C55143149   5.304   2.281   1.109 -1.1627 -0.2790 -0.0710
   60MOL   C55243150   5.255   2.160   1.197  0.2982 -0.3051  0.3802
   60MOL   C55343151   5.158   2.060   1.122 -0.7750  0.2534 -0.1130
   60MOL   C55443152   5.021   2.123   1.073  0.9010  0.2074  0.2434
   60MOL   C55543153   4.909   2.031   1.006  0.4696 -0.5784 -0.4519
   60MOL   C55643154   4.843   1.941   1.112  0.0271 -0.6684  0.7630
   60MOL   N55743155   4.709   1.913   1.078 -0.2504  0.2136 -0.3170
   60MOL   C55843156   5.234   2.100   0.720 -0.2914  0.3546  0.0922
   60MOL   C55943157   5.174   2.076   0.594 -0.1571  0.0337 -0.2565
   60MOL   H56043158   5.242   2.376   0.439 -1.1497  0.6521  1.1768
   60MOL   H56143159   5.370   2.403   0.638 -0.5073 -0.8716  0.8985
   60MOL   H56243160   5.199   2.212   0.944  1.7699 -1.4867 -1.6352
   60MOL   H56343161   5.408   2.295   1.141 -1.1549 -1.5052  0.4417
   60MOL   H56443162   5.243   2.366   1.140 -0.0692  1.3511 -2.2105
   60MOL   H56543163   5.211   2.198   1.289 -0.4975 -0.9520  0.2717
   60MOL   H56643164   5.337   2.099   1.236  0.5240 -0.3696 -0.1890
   60MOL   H56743165   5.197   2.009   1.034  1.6800  0.9894  0.4977
   60MOL   H56843166   5.135   1.977   1.189  1.3754 -1.8008 -1.8179
   60MOL   H56943167   5.037   2.208   1.007 -3.0884 -0.9445 -2.4029
   60MOL   H57043168   4.983   2.171   1.163  2.2676  1.9394 -0.0851
   60MOL   H57143169   4.960   1.973   0.929  0.5011  1.6018 -2.1158
   60MOL   H57243170   4.842   2.104   0.961  1.3331  0.9764  0.7812
   60MOL   H57343171   4.891   1.844   1.125 -1.7234 -1.7975 -0.9152
   60MOL   H57443172   4.844   2.000   1.204  0.6156  0.1793  0.2295
   60MOL   H57543173   4.688   1.900   0.980  0.8599  0.2191 -0.5659
   60MOL   H57643174   5.231   2.027   0.799  0.6709  0.2514  0.0399
   60MOL   H57743175   5.106   1.995   0.569 -0.2504  0.3208 -0.9319
   60MOL   C57843176   4.622   1.867   1.167  0.6250 -0.0899 -0.0846
   60MOL   O57943177   4.654   1.846   1.284  0.2357 -0.2462  0.0971
   60MOL   C58043178   4.480   1.823   1.126  0.1297  0.7742 -0.3972
   60MOL   C58143179   4.424   1.713   1.199 -0.4925 -0.4381  0.3927
   60MOL   C58243180   4.297   1.666   1.158 -0.5465 -1.3518 -0.0936
   60MOL   C58343181   4.223   1.741   1.062 -0.6797 -0.0299 -0.3210
   60MOL   C58443182   4.080   1.703   1.034 -0.9255 -0.0639 -0.7760
   60MOL   O58543183   4.009   1.663   1.125  0.1905 -0.3301  0.1767
   60MOL   N58643184   4.022   1.725   0.912 -0.5576 -0.7434 -0.2344
   60MOL   C58743185   3.880   1.708   0.881 -0.0808  0.2098  0.1274
   60MOL   C58843186   3.848   1.570   0.822 -0.0008  0.3098  0.1173
   60MOL   C58943187   3.695   1.545   0.783  0.0828  0.2971 -0.7946
   60MOL   C59043188   3.672   1.426   0.692 -0.4791 -0.6996  0.0763
   60MOL   C59143189   3.526   1.395   0.662  0.0296  0.2554 -0.1080
   60MOL   C59243190   3.513   1.264   0.587 -0.5426 -0.1049  0.4424
   60MOL   N59343191   3.379   1.222   0.579 -0.2303  0.3953  0.0200
   60MOL   C59443192   4.283   1.844   0.990 -0.1264 -0.2241 -0.3542
   60MOL   C59543193   4.413   1.885   1.016 -1.1960  0.3697  0.0295
   60MOL   H59643194   4.463   1.673   1.291  0.2339  0.6444  0.5645
   60MOL   H59743195   4.241   1.596   1.218  1.0140 -0.2381  2.8140
   60MOL   H59843196   4.084   1.739   0.834  1.9041  0.9292  1.9076
   60MOL   H59943197   3.821   1.718   0.972  0.2501  1.1752  0.2450
   60MOL   H60043198   3.852   1.784   0.809  1.1610 -0.7117 -1.3689
   60MOL   H60143199   3.887   1.503   0.899 -0.8072 -0.9483 -0.5713
   60MOL   H60243200   3.918   1.558   0.740  1.8905 -0.3567  1.7760
   60MOL   H60343201   3.634   1.537   0.873  1.3874 -2.4498 -0.0984
   60MOL   H60443202   3.662   1.634   0.731 -1.8334  0.4604  0.6290
   60MOL   H60543203   3.708   1.347   0.758  0.5143 -1.4193 -1.3125
   60MOL   H60643204   3.736   1.422   0.604 -1.3791  1.4698 -0.7140
   60MOL   H60743205   3.477   1.473   0.603 -0.8018  1.6140  2.3234
   60MOL   H60843206   3.476   1.395   0.759 -1.4561  3.5051 -0.8302
   60MOL   H60943207   3.555   1.274   0.487  0.1983 -1.1892  0.6344
   60MOL   H61043208   3.577   1.184   0.625  0.7921  0.3089 -0.9355
   60MOL   H61143209   3.314   1.262   0.645 -2.1254 -1.1729 -0.8288
   60MOL   H61243210   4.224   1.897   0.917  1.2340  0.6470 -0.8447
   60MOL   H61343211   4.453   1.977   0.977 -0.7386 -0.0682 -0.5403
   60MOL   C61443212   3.337   1.126   0.504  0.1745  0.5382  0.1491
   60MOL   O61543213   3.404   1.069   0.415  0.2240  0.3479 -0.2104
   60MOL   C61643214   3.200   1.066   0.539 -0.5479 -0.6195  1.0986
   60MOL   C61743215   3.180   0.925   0.541  0.1341  0.2562 -0.2617
   60MOL   C61843216   3.057   0.878   0.583 -0.5597  0.1013 -0.6627
   60MOL   C61943217   2.944   0.960   0.601 -0.3235 -0.6749 -0.4823
   60MOL   C62043218   2.807   0.912   0.642 -0.3067 -0.2558 -0.2841
   60MOL   O62143219   2.721   0.995   0.681 -0.4291 -0.1481  0.3583
   60MOL   N62243220   2.782   0.782   0.637  0.0837 -0.5424 -0.2921
   60MOL   C62343221   2.665   0.713   0.682  0.5006 -0.1752 -0.0208
   60MOL   C62443222   2.680   0.565   0.696 -0.5251 -0.3420 -0.4230
   60MOL   C62543223   2.761   0.518   0.814 -0.5655 -0.0399  0.4407
   60MOL   C62643224   2.739   0.374   0.842  0.5146 -0.4601  0.7079
   60MOL   C62743225   2.813   0.329   0.976  0.8374 -0.2370  0.2052
   60MOL   C62843226   2.831   0.175   0.978 -0.0070 -0.7416 -0.0740
   60MOL   N62943227   2.708   0.102   1.005  0.1493  0.0476  0.0674
   60MOL   C63043228   2.965   1.104   0.600  0.1206  0.5771  0.3488
   60MOL   C63143229   3.092   1.157   0.569 -0.1744  0.6523 -0.5449
   60MOL   H63243230   3.268   0.865   0.524  0.4968  1.2473 -1.9957
   60MOL   H63343231   3.043   0.772   0.594 -1.6900  0.3718  0.7233
   60MOL   H63443232   2.857   0.734   0.590  0.5707  1.4957 -1.6704
   60MOL   H63543233   2.606   0.757   0.763 -2.2327 -3.2663 -0.2462
   60MOL   H63643234   2.599   0.720   0.595 -0.3375 -2.3141  0.4225
   60MOL   H63743235   2.725   0.511   0.612 -0.7693 -1.7598  0.3409
   60MOL   H63843236   2.581   0.521   0.710 -0.4055 -0.4280  0.1628
   60MOL   H63943237   2.867   0.538   0.801 -0.9513  0.3485 -2.5433
   60MOL   H64043238   2.735   0.585   0.896 -0.3712  2.1375 -1.2407
   60MOL   H64143239   2.775   0.326   0.751  1.7494  2.7388 -0.5523
   60MOL   H64243240   2.633   0.357   0.859  0.3885 -1.5707 -1.0901
   60MOL   H64343241   2.762   0.374   1.061  1.8498  1.3079  0.0111
   60MOL   H64443242   2.916   0.365   0.978  0.1906  1.7860 -1.6727
   60MOL   H64543243   2.888   0.137   0.894 -0.2360  0.0180 -0.5689
   60MOL   H64643244   2.889   0.149   1.067  2.3542 -0.2134 -1.4207
   60MOL   H64743245   2.644   0.140   1.074  0.8613 -0.4424  1.0041
   60MOL   H64843246   2.890   1.176   0.629 -0.3783  0.2359 -0.1039
   60MOL   H64943247   3.108   1.263   0.579  0.9490  0.5104 -0.7713
   60MOL   C65043248   2.704   7.850   0.976  0.1600  0.1136  0.3569
   60MOL   O65143249   2.783   7.797   0.895  0.5025  0.1232 -0.7400
   60MOL   C65243250   2.597   7.771   1.055  0.2212  0.7457  0.0594
   60MOL   C65343251   2.565   7.638   1.010 -0.4893 -0.2506 -0.3715
   60MOL   C65443252   2.469   7.560   1.081  0.3965 -0.1594  0.5484
   60MOL   C65543253   2.409   7.621   1.189  0.0766 -0.0553 -0.1872
   60MOL   C65643254   2.307   7.545   1.273 -0.1545 -0.6597 -1.0408
   60MOL   O65743255   2.240   7.448   1.227 -0.3901  0.3566 -0.2428
   60MOL   N65843256   2.310   7.572   1.401 -0.9692 -0.3803  0.1128
   60MOL   C65943257   2.223   7.511   1.503  0.2634 -0.2442 -0.4532
   60MOL   C66043258   2.308   7.478   1.625 -0.6485  0.3203  0.3264
   60MOL   C66143259   2.231   7.384   1.727 -0.2645 -0.0739  0.0339
   60MOL   C66243260   2.123   7.469   1.798  0.6208  0.1173  0.2748
   60MOL   C66343261   2.180   7.553   1.912 -0.2475  0.4263  0.0939
   60MOL   C66443262   2.079   7.662   1.967  0.4959 -0.1333 -0.7025
   60MOL   N66543263   2.039   7.763   1.867 -0.1222  0.4316 -0.2883
   60MOL   C66643264   2.428   7.758   1.223  0.6116  0.3319  0.6278
   60MOL   C66743265   2.528   7.829   1.160 -0.7250  1.0045 -0.1934
   60MOL   H66843266   2.611   7.601   0.920 -0.1796  1.6504 -1.0021
   60MOL   H66943267   2.432   7.461   1.059  1.1138 -0.4994  0.8438
   60MOL   H67043268   2.377   7.643   1.425 -0.4680 -0.2482 -1.6180
   60MOL   H67143269   2.133   7.565   1.531  1.1519 -0.4751  3.0148
   60MOL   H67243270   2.183   7.414   1.475 -0.9108 -0.3614  1.5453
   60MOL   H67343271   2.353   7.566   1.671  2.1048 -0.7529 -0.2181
   60MOL   H67443272   2.384   7.402   1.607 -1.5671 -0.9764  1.7638
   60MOL   H67543273   2.203   7.285   1.692  0.6519 -0.1326 -0.5231
   60MOL   H67643274   2.298   7.346   1.804  0.4025 -1.0923 -1.0419
   60MOL   H67743275   2.049   7.402   1.843  0.4681 -0.0773 -0.2646
   60MOL   H67843276   2.070   7.534   1.729  1.5934 -0.8916 -1.4579
   60MOL   H67943277   2.275   7.602   1.888  0.5548 -2.1110 -2.2152
   60MOL   H68043278   2.215   7.489   1.993 -1.6378  0.4573  0.7269
   60MOL   H68143279   1.986   7.616   2.000 -0.0307  1.4148  0.0321
   60MOL   H68243280   2.115   7.713   2.056 -2.2288 -1.0688  0.9810
   60MOL   H68343281   2.067   7.758   1.770 -0.5360  2.0782 -0.5040
   60MOL   H68443282   2.365   7.814   1.290 -0.0737  0.5525 -0.1867
   60MOL   H68543283   2.542   0.048   1.177  1.6043  0.6594  0.1200
   60MOL   C68643284   1.973   7.876   1.901  0.5366 -0.1027  0.4410
   60MOL   O68743285   1.954   0.027   2.015  0.0177 -0.1473  0.3002
   60MOL   C68843286   1.926   0.073   1.780  0.0898 -0.1880  0.1138
   60MOL   C68943287   1.872   0.012   1.667  0.6392  0.8231 -1.0353
   60MOL   C69043288   1.818   0.093   1.570  0.2201  0.2046  0.1827
   60MOL   C69143289   1.824   0.238   1.568  0.2086  0.3016  0.3843
   60MOL   C69243290   1.783   0.316   1.451 -0.3598 -0.3366 -0.0566
   60MOL   O69343291   1.675   0.290   1.397  0.4175 -0.9113  0.8648
   60MOL   N69443292   1.866   0.409   1.412 -0.2280 -0.3079  0.3417
   60MOL   C69543293   1.848   0.511   1.312  0.6028  0.8960  0.3389
   60MOL   C69643294   1.859   0.457   1.170 -0.0887  0.7868 -0.5603
   60MOL   C69743295   1.842   0.577   1.072  0.2599 -0.5341  0.1454
   60MOL   C69843296   1.821   0.537   0.920 -0.1252 -0.3885  0.1157
   60MOL   C69943297   1.692   0.461   0.896  0.4119  0.4200  1.3008
   60MOL   C70043298   1.678   0.439   0.743  0.0528 -0.7513  0.3664
   60MOL   N70143299   1.552   0.369   0.745 -0.0121 -1.1121  0.5396
   60MOL   C70243300   1.879   0.294   1.688  0.1954 -0.2273  0.6531
   60MOL   C70343301   1.931   0.212   1.793  0.6649 -0.7609  0.1784
   60MOL   H70443302   1.849   7.793   1.668 -2.3699  1.4368  1.5808
   60MOL   H70543303   1.754   0.050   1.494 -1.8994  0.6205  1.7017
   60MOL   H70643304   1.946   0.418   1.472  0.2911 -1.1233 -0.2182
   60MOL   H70743305   1.755   0.564   1.334  0.5253  0.3367  1.4069
   60MOL   H70843306   1.924   0.582   1.344  0.3098  0.6473  1.6037
   60MOL   H70943307   1.781   0.383   1.152  0.5141  0.3870 -1.6066
   60MOL   H71043308   1.952   0.408   1.141 -0.2247 -0.0855  0.4554
   60MOL   H71143309   1.756   0.634   1.105  0.0203 -0.8529  0.0802
   60MOL   H71243310   1.932   0.639   1.080  0.0837 -0.3632  0.8703
   60MOL   H71343311   1.911   0.480   0.899 -1.5710 -2.2288 -1.2251
   60MOL   H71443312   1.823   0.629   0.862  0.7945 -0.9048 -0.6808
   60MOL   H71543313   1.605   0.522   0.921  1.0285  2.5601 -1.5278
   60MOL   H71643314   1.690   0.368   0.953  0.5134 -0.5597 -0.2381
   60MOL   H71743315   1.666   0.539   0.701  0.2755 -0.3291  1.2863
   60MOL   H71843316   1.758   0.383   0.694  0.9890  0.0691  0.9283
   60MOL   H71943317   1.478   0.429   0.713 -2.9131 -3.0947  3.1793
   60MOL   H72043318   1.862   0.399   1.707 -0.9395 -0.1284 -0.8214
   60MOL   H72143319   1.978   0.256   1.880 -0.1553  0.9941 -0.2472
   60MOL   H72243320   1.560   0.299   0.673 -0.6957  0.9087 -1.5738
   61MOL     C143321   1.984   3.202   5.599  1.2497 -0.2074 -0.9104
   61MOL     O243322   2.015   3.307   5.540 -0.0409  0.3166 -0.3021
   61MOL     C343323   1.841   3.173   5.628 -0.0784  0.0939  0.2665
   61MOL     C443324   1.803   3.094   5.739 -0.5101  0.1226  0.3592
   61MOL     C543325   1.665   3.079   5.761  0.4080  0.3235 -0.1660
   61MOL     C643326   1.570   3.113   5.662  0.3330  0.3022 -0.1506
   61MOL     C743327   1.429   3.072   5.684  0.1536  0.3081 -0.0985
   61MOL     O843328   1.387   3.063   5.798  1.0658  0.1483  0.5718
   61MOL     N943329   1.365   3.038   5.580 -0.1049  0.1143  0.4995
   61MOL    C1043330   1.221   2.998   5.563 -0.5908 -0.5355  0.2185
   61MOL    C1143331   1.151   3.122   5.513 -0.3491  0.4311  0.0867
   61MOL    C1243332   1.012   3.092   5.462  0.4579 -0.2506  0.8831
   61MOL    C1343333   0.936   3.212   5.401 -0.2448  0.5796 -0.2447
   61MOL    C1443334   0.808   3.257   5.477  0.4484  0.3945 -0.1801
   61MOL    C1543335   0.746   3.389   5.426 -0.2998  0.7847  0.4248
   61MOL    N1643336   0.731   3.381   5.282 -0.2957 -0.5194 -0.0327
   61MOL    C1743337   1.607   3.190   5.554 -0.2441  0.2012  0.5643
   61MOL    C1843338   1.743   3.222   5.535 -0.5824 -0.2820 -0.5619
   61MOL    H1943339   1.871   3.053   5.812  0.9171  0.4407 -0.7902
   61MOL    H2043340   1.640   3.016   5.844  3.9234 -0.9981 -0.0086
   61MOL    H2143341   1.419   3.042   5.494 -1.0758  0.6678 -0.1010
   61MOL    H2243342   1.209   2.919   5.488  2.1212 -2.9303  2.1705
   61MOL    H2343343   1.185   2.955   5.656 -0.8694  1.1933  0.9228
   61MOL    H2443344   1.212   3.179   5.443 -0.7622  0.3892 -0.3083
   61MOL    H2543345   1.141   3.185   5.601  1.2932  0.5064  0.2230
   61MOL    H2643346   1.011   2.998   5.406  1.9911  0.3997 -0.2712
   61MOL    H2743347   0.949   3.059   5.545 -1.6331  0.3216 -0.4297
   61MOL    H2843348   0.904   3.192   5.299 -2.4142  1.3343  0.2665
   61MOL    H2943349   1.005   3.295   5.387 -0.8174  0.7986 -1.7949
   61MOL    H3043350   0.826   3.266   5.584 -0.1495 -1.2404  0.0709
   61MOL    H3143351   0.735   3.176   5.480  2.3699 -1.3691  0.2892
   61MOL    H3243352   0.648   3.405   5.470 -1.0504 -0.8824 -0.5727
   61MOL    H3343353   0.808   3.476   5.446 -0.5017  1.0631 -0.1337
   61MOL    H3443354   0.720   3.290   5.240  0.5655  0.0384 -1.4828
   61MOL    H3543355   1.543   3.214   5.470  1.2615  2.1640 -0.0696
   61MOL    H3643356   1.766   3.271   5.442 -0.0272  1.2441  0.3654
   61MOL    H3743357   2.060   3.130   5.629 -0.7593 -1.5815  1.0939
   61MOL    C3843358   0.732   3.488   5.203  0.4612 -0.5923  0.1966
   61MOL    O3943359   0.722   3.603   5.254  0.1930  1.0044 -0.4211
   61MOL    C4043360   0.754   3.459   5.062  0.0688  0.5769  0.0956
   61MOL    C4143361   0.798   3.334   5.022 -0.7864 -0.5288  0.1290
   61MOL    C4243362   0.809   3.319   4.879  0.2455 -0.3127 -0.2434
   61MOL    C4343363   0.777   3.417   4.783  0.3458  0.4077 -0.8581
   61MOL    C4443364   0.787   3.397   4.637 -0.5945  0.3524 -0.2996
   61MOL    O4543365   0.713   3.462   4.562  0.5455 -0.4240 -0.3995
   61MOL    N4643366   0.889   3.318   4.595 -0.4611 -0.1638  0.8311
   61MOL    C4743367   0.903   3.270   4.458  0.4305 -0.1303  0.2850
   61MOL    C4843368   0.867   3.123   4.438 -0.4280 -0.0422 -0.0451
   61MOL    C4943369   0.867   3.071   4.291 -0.0015 -0.0215  0.4695
   61MOL    C5043370   0.996   3.079   4.211  0.7358  0.0805 -0.2479
   61MOL    C5143371   0.999   2.990   4.087  0.9391 -0.0952 -0.2031
   61MOL    C5243372   1.128   3.009   4.001  0.2544  0.1478 -0.0044
   61MOL    N5343373   1.114   3.117   3.913  0.1321 -0.3420  0.6042
   61MOL    C5443374   0.753   3.544   4.830 -0.1854  0.5907  0.5406
   61MOL    C5543375   0.730   3.562   4.965 -0.1318  0.0923 -0.6245
   61MOL    H5643376   0.818   3.253   5.091  2.0728 -0.2040 -0.2517
   61MOL    H5743377   0.840   3.221   4.845 -0.7517 -0.9198  0.5607
   61MOL    H5843378   0.946   3.280   4.669 -1.4284  0.1828  1.7717
   61MOL    H5943379   0.834   3.332   4.401 -0.5541 -0.7599  0.7887
   61MOL    H6043380   1.007   3.296   4.436 -0.1382  1.4470 -0.6129
   61MOL    H6143381   0.765   3.104   4.474  0.0136 -3.5422 -0.4235
   61MOL    H6243382   0.931   3.064   4.504  1.7762 -0.2809 -2.3370
   61MOL    H6343383   0.860   2.962   4.292 -1.3825  0.0496  2.6513
   61MOL    H6443384   0.779   3.111   4.243  0.9186  0.8729 -0.4954
   61MOL    H6543385   1.086   3.055   4.267  2.2713 -0.2078 -2.7410
   61MOL    H6643386   1.009   3.184   4.182  0.7479  0.8524  2.4657
   61MOL    H6743387   0.907   3.007   4.031  1.7902  0.4749 -1.4445
   61MOL    H6843388   0.991   2.884   4.112 -0.4948 -0.8019 -3.4235
   61MOL    H6943389   1.218   3.022   4.061  0.1328 -2.5703  0.8080
   61MOL    H7043390   1.141   2.916   3.944  0.9080  0.9979 -1.2708
   61MOL    H7143391   1.053   3.183   3.959 -1.2864 -1.6269  0.6012
   61MOL    H7243392   0.730   3.623   4.759  2.9228  0.1070 -1.1007
   61MOL    H7343393   0.694   3.660   4.991  1.2823  0.5452 -0.2910
   61MOL    C7443394   1.170   3.133   3.793 -0.0877 -0.3263 -0.3518
   61MOL    O7543395   1.235   3.045   3.736 -0.5729 -0.2355 -0.5480
   61MOL    C7643396   1.123   3.252   3.717 -0.2718  0.2096  0.4284
   61MOL    C7743397   1.080   3.367   3.789 -0.4142  0.0547 -0.7618
   61MOL    C7843398   1.029   3.479   3.722  0.3501 -0.0001  0.3628
   61MOL    C7943399   1.019   3.478   3.581  0.4950 -0.8053  0.5538
   61MOL    C8043400   0.953   3.595   3.510  0.1251  0.3646  0.4626
   61MOL    O8143401   0.960   3.599   3.387 -0.0262  0.5738 -0.2076
   61MOL    N8243402   0.897   3.690   3.582  0.5203 -0.2836  0.1018
   61MOL    C8343403   0.797   3.790   3.537 -0.0718  0.6534  0.3687
   61MOL    C8443404   0.790   3.900   3.643 -0.3105 -0.0618 -0.3657
   61MOL    C8543405   0.675   3.998   3.616  0.0309  0.0257 -0.1385
   61MOL    C8643406   0.684   4.124   3.701  0.4179 -0.1487 -0.2826
   61MOL    C8743407   0.791   4.224   3.655 -0.2587  0.1054  0.2209
   61MOL    C8843408   0.798   4.346   3.745  0.2248  0.2697  0.5748
   61MOL    N8943409   0.673   4.417   3.759 -1.2646  0.1502 -0.6330
   61MOL    C9043410   1.070   3.368   3.509  0.1781  0.2766 -0.0718
   61MOL    C9143411   1.120   3.250   3.573 -1.1418  0.4730 -0.4531
   61MOL    H9243412   1.096   3.371   3.896 -0.1823 -1.1474 -0.7396
   61MOL    H9343413   0.997   3.568   3.775  0.1940  1.3639 -1.9678
   61MOL    H9443414   0.895   3.676   3.682 -0.8581 -0.5862  0.0317
   61MOL    H9543415   0.810   3.827   3.436 -0.2716  2.3148  0.9443
   61MOL    H9643416   0.702   3.738   3.546  0.4637 -0.5414 -0.8382
   61MOL    H9743417   0.888   3.945   3.631 -1.4401  2.7781  0.5723
   61MOL    H9843418   0.775   3.854   3.741 -1.2812 -0.2842 -0.6052
   61MOL    H9943419   0.655   4.011   3.509  1.7844 -0.1710 -0.5078
   61MOL   H10043420   0.579   3.961   3.653 -0.2156  2.5818  1.9110
   61MOL   H10143421   0.696   4.088   3.804 -1.7641 -2.2439 -0.7336
   61MOL   H10243422   0.589   4.177   3.703  0.8632  0.6542  0.1184
   61MOL   H10343423   0.759   4.252   3.555  2.1544  0.2695 -0.5406
   61MOL   H10443424   0.886   4.173   3.641 -0.0382  0.9851 -1.7335
   61MOL   H10543425   0.840   4.320   3.843  0.1850 -0.2840  0.4431
   61MOL   H10643426   0.873   4.416   3.708  0.3055  1.2316  2.4622
   61MOL   H10743427   0.602   4.373   3.815 -1.4470  1.1568 -0.0464
   61MOL   H10843428   1.059   3.371   3.402 -0.5107  0.9822  0.0103
   61MOL   H10943429   1.147   3.160   3.520 -1.5311 -0.0751  0.2708
   61MOL   C11043430   0.646   4.546   3.737  0.5872  0.1765 -0.5969
   61MOL   O11143431   0.717   4.627   3.676 -0.3998  0.1201  0.2317
   61MOL   C11243432   0.513   4.589   3.799  0.2948 -0.2001 -0.1628
   61MOL   C11343433   0.462   4.525   3.912 -0.5496 -0.3130 -0.4020
   61MOL   C11443434   0.331   4.562   3.961  0.2946 -0.1744  0.6692
   61MOL   C11543435   0.259   4.671   3.900  0.2074  0.5123  0.7629
   61MOL   C11643436   0.117   4.705   3.934 -0.0905  0.3450  0.3264
   61MOL   O11743437   0.061   4.793   3.871  0.5674  0.1236 -0.5994
   61MOL   N11843438   0.054   4.631   4.024  0.2509 -0.0541  0.7976
   61MOL   C11943439   7.796   4.633   4.057 -0.4802 -0.1515 -0.2797
   61MOL   C12043440   7.728   4.495   4.050 -0.0678  0.1268  0.1793
   61MOL   C12143441   7.799   4.382   4.132 -0.0377 -0.2521 -0.0993
   61MOL   C12243442   7.733   4.236   4.095  0.1140 -0.2464  1.3056
   61MOL   C12343443   7.761   4.183   3.952 -0.4364  0.0819  0.1716
   61MOL   C12443444   0.028   4.142   3.923  0.3825 -0.2335  0.3248
   61MOL   N12543445   0.023   4.045   3.812 -0.5493  0.5515 -0.1312
   61MOL   C12643446   0.328   4.740   3.799  0.1663  0.6141  0.2960
   61MOL   C12743447   0.449   4.700   3.746  0.0357 -0.0645  0.7648
   61MOL   H12843448   0.522   4.446   3.953 -1.4016 -1.1968 -0.8442
   61MOL   H12943449   0.284   4.512   4.044 -3.5369  1.4430 -0.3787
   61MOL   H13043450   0.112   4.563   4.072  1.2812  0.0099 -0.3193
   61MOL   H13143451   7.786   4.680   4.155  1.2000  2.8820 -1.5058
   61MOL   H13243452   7.737   4.693   3.988 -0.8758 -1.0941 -0.7832
   61MOL   H13343453   7.707   4.464   3.948 -1.7391  6.5347 -1.6062
   61MOL   H13443454   7.630   4.502   4.096  0.0961  0.3459  0.4988
   61MOL   H13543455   0.021   4.380   4.121 -0.0494 -0.2324 -0.2214
   61MOL   H13643456   7.784   4.391   4.240 -1.5755 -0.1784 -0.3072
   61MOL   H13743457   7.625   4.242   4.104  0.0489  2.5188 -0.6851
   61MOL   H13843458   7.770   4.164   4.168  2.1775 -2.1074 -1.4710
   61MOL   H13943459   7.725   4.255   3.879  1.0709  0.2428 -0.4279
   61MOL   H14043460   7.703   4.091   3.944  0.6953 -0.6373  0.1878
   61MOL   H14143461   0.096   4.223   3.897  0.2881 -0.1828  0.2338
   61MOL   H14243462   0.083   4.094   4.004  2.7635  0.5409 -0.7895
   61MOL   H14343463   7.864   3.957   3.830  0.4052  0.0288 -0.2811
   61MOL   H14443464   0.272   4.821   3.755  2.1434  3.3515  2.5988
   61MOL   H14543465   0.496   4.752   3.663 -1.3768 -1.9069 -1.2470
   61MOL   C14643466   0.092   4.044   3.699  0.2142 -0.4615 -0.0386
   61MOL   O14743467   0.174   4.130   3.661 -0.3832  0.3750  0.4644
   61MOL   C14843468   0.075   3.923   3.614  0.1717  1.0376 -0.3937
   61MOL   C14943469   7.831   3.880   3.583 -0.5641  1.0009 -0.0297
   61MOL   C15043470   7.812   3.760   3.508 -0.7539  0.2248 -0.2909
   61MOL   C15143471   0.036   3.675   3.476 -0.2624  0.1688 -0.1399
   61MOL   C15243472   0.016   3.538   3.423  0.1852 -0.3507  0.4709
   61MOL   O15343473   7.814   3.468   3.479 -0.0829 -0.1793 -0.4638
   61MOL   N15443474   0.093   3.505   3.320  0.6287 -0.1468 -0.1637
   61MOL   C15543475   0.077   3.384   3.243  0.3482 -0.2085  0.6914
   61MOL   C15643476   0.041   3.400   3.092  0.4008 -0.2922  0.8748
   61MOL   C15743477   7.796   3.466   3.052 -0.1602  0.0187 -0.5871
   61MOL   C15843478   7.672   3.399   3.102 -0.0334  0.6196  0.1711
   61MOL   C15943479   7.542   3.432   3.031  0.3028  0.5485  0.0558
   61MOL   C16043480   7.425   3.386   3.119 -0.8007 -0.2765 -0.1113
   61MOL   N16143481   7.296   3.397   3.041 -0.5002  0.4982  0.3670
   61MOL   C16243482   0.163   3.728   3.500 -0.5468  0.6847 -1.1316
   61MOL   C16343483   0.184   3.856   3.562  0.4254 -0.0690  0.5165
   61MOL   H16443484   7.754   3.940   3.629  0.5968  3.7788 -1.5841
   61MOL   H16543485   7.711   3.735   3.478 -0.4249 -2.4398  0.7682
   61MOL   H16643486   0.159   3.576   3.293  3.1263 -2.5330 -0.5388
   61MOL   H16743487   0.176   3.339   3.253  1.6918  2.2316 -0.9394
   61MOL   H16843488   0.008   3.311   3.283  0.5851 -2.1781 -2.3405
   61MOL   H16943489   0.025   3.300   3.051 -1.0062  0.3668 -0.1792
   61MOL   H17043490   0.119   3.442   3.030  0.3418  2.1352  2.4095
   61MOL   H17143491   7.806   3.568   3.089 -2.4598 -0.3883  1.2679
   61MOL   H17243492   7.795   3.475   2.943 -1.2029  0.5013 -0.5375
   61MOL   H17343493   7.668   3.413   3.210  0.0467 -0.2201  0.2870
   61MOL   H17443494   7.686   3.292   3.085  0.0594  0.5251  0.8526
   61MOL   H17543495   7.534   3.387   2.932  0.1906 -0.1768  0.3897
   61MOL   H17643496   7.520   3.537   3.015  2.5564  1.0279  0.0557
   61MOL   H17743497   7.451   3.285   3.151  1.2713  0.3951  0.3988
   61MOL   H17843498   7.422   3.445   3.210  0.9504  0.9436 -0.8054
   61MOL   H17943499   7.298   3.366   2.945  1.6410 -0.2777  0.6271
   61MOL   H18043500   0.242   3.665   3.461  0.9137  1.2683  0.8220
   61MOL   H18143501   0.288   3.884   3.575  0.6210 -1.2826  1.6819
   61MOL   C18243502   7.179   3.451   3.091  0.0622  0.8618 -0.1391
   61MOL   O18343503   7.177   3.506   3.200 -0.8973 -0.5730 -0.4033
   61MOL   C18443504   7.065   3.455   3.000  0.0133  0.0279  0.6698
   61MOL   C18543505   7.037   3.346   2.916  0.1297 -0.6044 -0.3629
   61MOL   C18643506   6.923   3.348   2.834  0.1514  0.3139  0.4853
   61MOL   C18743507   6.831   3.460   2.837 -0.6704  0.4150 -0.0169
   61MOL   C18843508   6.724   3.466   2.737 -0.1463  0.3391  0.4855
   61MOL   O18943509   6.741   3.527   2.634 -0.2124 -0.2798  0.4252
   61MOL   N19043510   6.605   3.407   2.770  0.2501 -0.1228 -0.0746
   61MOL   C19143511   6.496   3.389   2.676 -0.6515  0.4474 -0.2293
   61MOL   C19243512   6.397   3.290   2.733 -0.4090  0.0068 -0.5272
   61MOL   C19343513   6.260   3.292   2.667 -0.2983 -0.3400  0.0322
   61MOL   C19443514   6.227   3.212   2.541  0.7289 -0.0505 -0.8943
   61MOL   C19543515   6.290   3.268   2.412  0.1739 -0.0832 -1.2500
   61MOL   C19643516   6.333   3.162   2.308 -0.2261 -0.1818  0.1632
   61MOL   N19743517   6.219   3.101   2.254  0.3805  0.3150  0.0585
   61MOL   C19843518   6.859   3.564   2.928 -0.7213 -1.1939  0.3707
   61MOL   C19943519   6.977   3.557   3.006  0.1292  0.2878  0.4312
   61MOL   H20043520   7.100   3.258   2.922  1.4856  0.3897  0.2350
   61MOL   H20143521   6.903   3.267   2.765  0.4743 -0.1134  0.8946
   61MOL   H20243522   6.609   3.352   2.854  0.6366  1.7765  1.1864
   61MOL   H20343523   6.441   3.481   2.659 -0.0320  0.8771  0.0752
   61MOL   H20443524   6.541   3.371   2.578  0.8179 -0.4071  0.5827
   61MOL   H20543525   6.390   3.309   2.840  1.1176  1.1676 -0.6222
   61MOL   H20643526   6.438   3.189   2.726 -1.6463 -0.4417 -1.4409
   61MOL   H20743527   6.181   3.253   2.731  0.2152 -2.7619 -0.7762
   61MOL   H20843528   6.225   3.395   2.656 -1.5042 -0.7878 -0.4351
   61MOL   H20943529   6.119   3.223   2.531  0.9131 -0.7899 -4.3218
   61MOL   H21043530   6.244   3.105   2.555 -0.4191 -0.3676 -1.8836
   61MOL   H21143531   6.380   3.322   2.444  0.3079 -1.0754  0.0858
   61MOL   H21243532   6.232   3.352   2.373 -1.4039  0.3960  1.9481
   61MOL   H21343533   6.395   3.201   2.227 -1.0847  0.4237 -0.2096
   61MOL   H21443534   6.396   3.090   2.361 -1.5725 -0.8377  0.8972
   61MOL   H21543535   6.148   3.072   2.319  1.3219 -2.0073  0.0823
   61MOL   H21643536   6.793   3.649   2.939  0.2815 -0.6041  1.8647
   61MOL   H21743537   6.993   3.628   3.086  2.4115  0.2345  0.0428
   61MOL   C21843538   6.216   3.011   2.154  0.1305 -0.3796  0.1488
   61MOL   O21943539   6.312   2.988   2.089  0.0571  0.1186 -0.3907
   61MOL   C22043540   6.078   2.953   2.113 -0.1091 -0.2503 -0.2589
   61MOL   C22143541   5.965   2.994   2.178 -0.4332 -0.8700  0.1242
   61MOL   C22243542   5.836   2.932   2.149  0.0145 -0.3973 -0.4959
   61MOL   C22343543   5.826   2.837   2.049 -0.1992  0.4430  0.2221
   61MOL   C22443544   5.693   2.779   2.013  0.1778 -0.2125 -0.6477
   61MOL   O22543545   5.677   2.663   1.985  0.4116 -0.0185  0.4071
   61MOL   N22643546   5.604   2.873   1.986 -0.0359  0.4025 -0.2989
   61MOL   C22743547   5.475   2.849   1.911 -0.2940 -0.1852  1.0426
   61MOL   C22843548   5.361   2.792   1.998  0.1854 -0.1584 -0.5218
   61MOL   C22943549   5.244   2.768   1.894 -0.5722 -0.6107  0.5234
   61MOL   C23043550   5.242   2.632   1.823  0.1328 -0.0557  0.1860
   61MOL   C23143551   5.138   2.601   1.728  0.1417  0.5472 -0.0309
   61MOL   C23243552   5.155   2.465   1.652  0.3651 -0.3724  0.0802
   61MOL   N23343553   5.049   2.457   1.554 -0.0414 -1.1536 -0.3035
   61MOL   C23443554   5.941   2.804   1.971  0.9455 -0.1107  0.2951
   61MOL   C23543555   6.061   2.868   2.005  0.0311  0.0491  0.2414
   61MOL   H23643556   5.975   3.068   2.256 -2.3102  0.1970 -0.6066
   61MOL   H23743557   5.757   2.955   2.218 -0.3024  1.0125 -1.3098
   61MOL   H23843558   5.613   2.969   2.013 -1.6636  0.7108 -0.8358
   61MOL   H23943559   5.456   2.948   1.868  0.3603 -0.3452  0.3836
   61MOL   H24043560   5.511   2.784   1.832  1.0987  1.1260  0.5610
   61MOL   H24143561   5.331   2.864   2.073  1.1239 -0.5849  0.2704
   61MOL   H24243562   5.384   2.700   2.052  1.7532 -0.0356 -0.9767
   61MOL   H24343563   5.159   2.756   1.961 -0.2184 -0.9641  0.9086
   61MOL   H24443564   5.225   2.852   1.827 -0.1911  0.7904  2.1401
   61MOL   H24543565   5.261   2.550   1.893 -2.9790 -1.5850 -0.6722
   61MOL   H24643566   5.332   2.637   1.762  0.5080  0.2448  0.7581
   61MOL   H24743567   5.115   2.687   1.666  0.1851  1.1900  0.8348
   61MOL   H24843568   5.055   2.600   1.799 -0.6636 -1.5973 -0.9379
   61MOL   H24943569   5.243   2.477   1.590  1.1496 -2.0249  0.8456
   61MOL   H25043570   5.167   2.373   1.709 -1.2595  0.0187  1.0893
   61MOL   H25143571   5.029   2.535   1.493  0.8446  0.2329  1.1800
   61MOL   H25243572   5.933   2.736   1.888 -1.8599 -0.1314  0.5251
   61MOL   H25343573   6.155   2.853   1.954 -0.0662  0.9663 -0.2223
   61MOL   C25443574   4.987   2.336   1.519 -0.7997 -0.2669  0.0589
   61MOL   O25543575   5.000   2.230   1.579 -0.3074  0.9302 -0.0147
   61MOL   C25643576   4.893   2.344   1.404  0.9121 -0.0789 -0.2044
   61MOL   C25743577   4.784   2.260   1.396 -0.2959 -0.1376  0.6445
   61MOL   C25843578   4.689   2.266   1.294  0.3139  0.3896 -0.0307
   61MOL   C25943579   4.705   2.358   1.191 -0.8526 -0.8088  0.1486
   61MOL   C26043580   4.599   2.374   1.081  0.0479  0.2780  0.2096
   61MOL   O26143581   4.521   2.282   1.047 -0.9753  0.2234  0.2810
   61MOL   N26243582   4.584   2.496   1.029 -0.2274  0.1361 -0.2475
   61MOL   C26343583   4.475   2.547   0.949 -0.5715  0.6211 -0.8074
   61MOL   C26443584   4.504   2.568   0.801 -0.4702 -0.5616  0.2282
   61MOL   C26543585   4.405   2.660   0.731  0.1597  0.2908 -0.4234
   61MOL   C26643586   4.426   2.704   0.586 -0.9118  0.1166 -0.1116
   61MOL   C26743587   4.395   2.580   0.498  0.0401 -0.4357  0.1623
   61MOL   C26843588   4.432   2.593   0.351 -0.3254 -0.1168  0.2489
   61MOL   N26943589   4.382   2.481   0.277  0.3433  0.1128  0.3757
   61MOL   C27043590   4.825   2.439   1.189 -0.7132 -0.0843 -0.4960
   61MOL   C27143591   4.919   2.431   1.296  0.3696  0.0865  0.6606
   61MOL   H27243592   4.773   2.193   1.480 -0.1373  1.1047  1.6701
   61MOL   H27343593   4.606   2.197   1.287  1.6482 -1.6386  2.8753
   61MOL   H27443594   4.648   2.564   1.068 -0.8625  0.3987  0.3587
   61MOL   H27543595   4.390   2.480   0.961 -0.1266 -0.4139 -3.1538
   61MOL   H27643596   4.432   2.641   0.984 -0.4742  0.1004  0.7894
   61MOL   H27743597   4.516   2.470   0.756  0.7045 -1.4969  2.4927
   61MOL   H27843598   4.597   2.624   0.794  0.1807 -1.6548 -0.0019
   61MOL   H27943599   4.310   2.607   0.739 -0.9952  2.4168  0.2509
   61MOL   H28043600   4.393   2.749   0.792  3.3736 -0.5101  1.4938
   61MOL   H28143601   4.529   2.739   0.585 -0.9964  0.4314  1.1288
   61MOL   H28243602   4.357   2.785   0.561 -0.0395  0.9078  0.0403
   61MOL   H28343603   4.289   2.557   0.506  0.0055 -0.5069 -0.5311
   61MOL   H28443604   4.451   2.495   0.538  0.7799  0.5308  1.2272
   61MOL   H28543605   4.404   2.694   0.321  0.0754 -0.4422 -1.2427
   61MOL   H28643606   4.541   2.592   0.352 -0.2712  1.5796 -1.0459
   61MOL   H28743607   4.338   2.407   0.330 -1.4273  0.9909  0.1815
   61MOL   H28843608   4.839   2.512   1.111  0.8936  1.0588  0.8351
   61MOL   H28943609   5.003   2.499   1.288 -0.1051  0.7378  1.2327
   61MOL   C29043610   4.378   2.465   0.139 -0.1849  0.5614 -0.9443
   61MOL   O29143611   4.425   2.540   0.053 -0.0694  0.3336 -0.3954
   61MOL   C29243612   4.307   2.341   0.098  0.1065  0.0202  0.3388
   61MOL   C29343613   4.186   2.303   0.157  0.2974 -0.0757  0.4899
   61MOL   C29443614   4.123   2.179   0.131  0.4491 -0.0956 -0.6789
   61MOL   C29543615   4.179   2.095   0.028  0.1493 -0.6535 -0.2021
   61MOL   C29643616   4.105   1.966   7.883  0.5152  1.2767  0.3125
   61MOL   O29743617   4.001   1.939   0.058 -0.3976 -0.0808  0.0527
   61MOL   N29843618   4.158   1.894   7.784 -0.4169  0.1860  0.0719
   61MOL   C29943619   4.108   1.765   7.729 -0.5541  0.8072 -0.6073
   61MOL   C30043620   4.213   1.680   7.655 -0.8898  0.2140 -0.6549
   61MOL   C30143621   4.164   1.543   7.644 -0.2382  1.1578  0.1553
   61MOL   C30243622   4.277   1.463   7.579  0.4093  0.2264 -0.8990
   61MOL   C30343623   4.275   1.308   7.596 -0.0548  0.0892 -0.2426
   61MOL   C30443624   4.413   1.231   7.559 -0.3786  0.4777 -0.0401
   61MOL   N30543625   4.386   1.088   7.586  0.6658 -0.4948 -0.6892
   61MOL   C30643626   4.301   2.133   7.851  0.1259 -0.3003 -0.5841
   61MOL   C30743627   4.354   2.260   7.879  0.2313 -0.0604  0.5013
   61MOL   H30843628   4.151   2.371   0.235  1.3261  1.2952 -0.2206
   61MOL   H30943629   4.032   2.157   0.186  1.3693  0.3437  1.0570
   61MOL   H31043630   4.243   1.920   7.736  0.0379  0.9570  1.2446
   61MOL   H31143631   4.065   1.711   7.814  0.4155  1.1084  0.0809
   61MOL   H31243632   4.012   1.772   7.678  0.1039  0.3965 -1.9172
   61MOL   H31343633   4.303   1.676   7.715 -0.8469 -0.4315 -0.7642
   61MOL   H31443634   4.221   1.733   7.559 -0.6151 -1.3448 -1.5052
   61MOL   H31543635   4.130   1.505   7.740 -1.8610 -2.8172 -1.8491
   61MOL   H31643636   4.068   1.543   7.592 -0.0712 -0.1999 -0.1891
   61MOL   H31743637   4.377   1.491   7.614 -0.3013  2.7349 -0.7890
   61MOL   H31843638   4.279   1.480   7.471  0.0283  1.3268 -0.7449
   61MOL   H31943639   4.190   1.256   7.552  1.3312 -0.4653 -2.3310
   61MOL   H32043640   4.255   1.293   7.703  0.0716  0.3076 -0.1887
   61MOL   H32143641   4.429   1.250   7.453 -1.5942 -0.7444 -0.4616
   61MOL   H32243642   4.498   1.284   7.603  0.5281 -0.1889 -0.9695
   61MOL   H32343643   4.295   1.047   7.602  0.0345  0.9713 -0.4327
   61MOL   H32443644   4.348   2.073   7.774 -3.4204 -1.3868 -1.9861
   61MOL   H32543645   4.446   2.289   7.831 -0.7400  0.5692 -1.0345
   61MOL   C32643646   4.481   1.020   7.653  0.1550 -0.1396 -0.7285
   61MOL   O32743647   4.602   1.051   7.658  0.1936 -0.7417  0.3343
   61MOL   C32843648   4.424   0.891   7.728 -0.2606 -0.3404  0.6874
   61MOL   C32943649   4.305   0.902   7.796  0.2300 -0.4990 -0.6692
   61MOL   C33043650   4.249   0.798   7.864 -0.1721  0.4393  0.1780
   61MOL   C33143651   4.312   0.672   7.867  0.1204 -0.6524 -0.7692
   61MOL   C33243652   4.246   0.548   0.040  0.1579  0.2335  0.0237
   61MOL   O33343653   4.320   0.468   0.094  0.6402  0.0811 -0.2775
   61MOL   N33443654   4.119   0.537   0.020 -0.1766 -0.5569 -0.1257
   61MOL   C33543655   4.037   0.417   0.044  0.0721 -0.1544 -0.1958
   61MOL   C33643656   3.889   0.460   0.039  0.5626 -0.1445 -0.3568
   61MOL   C33743657   3.794   0.340   0.011  0.1392 -0.2986 -0.5068
   61MOL   C33843658   3.656   0.396   0.015 -0.2037  0.1863  0.1696
   61MOL   C33943659   3.561   0.282   7.843 -0.3904 -0.3276 -0.2414
   61MOL   C34043660   3.426   0.316   7.775 -0.5171  0.3362  0.3568
   61MOL   N34143661   3.441   0.432   7.688  0.1333 -0.2073  0.3597
   61MOL   C34243662   4.439   0.664   7.804  0.2049  0.9346  0.3293
   61MOL   C34343663   4.493   0.772   7.733 -0.4869  0.1233  0.4274
   61MOL   H34443664   4.238   0.987   7.796 -2.9865 -2.9215 -0.9254
   61MOL   H34543665   4.150   0.807   0.021  0.2915  0.5790  1.2300
   61MOL   H34643666   4.072   0.622   7.878  0.3763 -0.6804 -1.4596
   61MOL   H34743667   4.064   0.338   7.860 -2.1272 -2.6450  1.6880
   61MOL   H34843668   4.064   0.384   0.144 -3.0943  1.6694  1.3460
   61MOL   H34943669   3.873   0.536   7.848  0.4045  1.8868  1.6372
   61MOL   H35043670   3.864   0.517   0.128  2.3149 -0.1282  0.1473
   61MOL   H35143671   3.823   0.295   7.802 -1.3508  1.8038 -2.0079
   61MOL   H35243672   3.804   0.267   0.091 -1.8477 -0.7939 -0.6729
   61MOL   H35343673   3.651   0.490   7.847 -1.4800  1.2315  2.0413
   61MOL   H35443674   3.625   0.422   0.116  1.5396 -1.7429  1.2543
   61MOL   H35543675   3.534   0.203   0.027 -3.1085 -0.2110 -1.1205
   61MOL   H35643676   3.621   0.233   7.766 -0.8370  0.0166 -0.8120
   61MOL   H35743677   3.388   0.240   7.706 -1.7907  0.7826  0.5504
   61MOL   H35843678   3.354   0.336   7.854 -0.2413 -1.0665  0.9713
   61MOL   H35943679   3.440   0.522   7.735 -0.2191 -0.6612  1.2225
   61MOL   H36043680   4.496   0.572   7.803  1.3694  1.6330 -2.0207
   61MOL   H36143681   4.591   0.757   7.690  0.7568  1.7462  2.6272
   61MOL   C36243682   3.489   0.425   7.564 -0.0592  1.0723  0.0982
   61MOL   O36343683   3.513   0.315   7.512 -0.0311  0.0923 -0.0354
   61MOL   C36443684   3.507   0.555   7.490  0.2103 -0.2126  0.0773
   61MOL   C36543685   3.578   0.561   7.370  0.3123  0.3879 -0.0399
   61MOL   C36643686   3.586   0.684   7.305  0.1256 -0.3032  0.8243
   61MOL   C36743687   3.531   0.801   7.356  0.1209 -0.2849  0.0327
   61MOL   C36843688   3.551   0.935   7.281 -0.6966  0.6248 -0.9157
   61MOL   O36943689   3.653   0.967   7.219 -0.3472  0.3929 -0.1867
   61MOL   N37043690   3.441   1.009   7.278 -0.1187 -0.4506  0.5945
   61MOL   C37143691   3.423   1.119   7.184 -0.7011  0.0183 -0.1098
   61MOL   C37243692   3.285   1.184   7.197 -0.2725 -0.1586 -0.1278
   61MOL   C37343693   3.249   1.232   7.339 -0.3650 -0.0931  0.0846
   61MOL   C37443694   3.109   1.294   7.343 -0.1751  0.1166  0.1271
   61MOL   C37543695   3.044   1.306   7.488  0.1315  0.3860  0.0955
   61MOL   C37643696   3.136   1.380   7.590 -0.3926 -0.5994  0.6799
   61MOL   N37743697   3.234   1.288   7.649 -0.4663  0.5740  0.5997
   61MOL   C37843698   3.457   0.792   7.473  0.3273 -0.0059  0.0253
   61MOL   C37943699   3.446   0.669   7.539  0.2375  0.0261  0.1922
   61MOL   H38043700   3.627   0.471   7.335 -0.3888 -0.1412  0.3160
   61MOL   H38143701   3.628   0.693   7.206 -0.9581 -0.8685  0.3023
   61MOL   H38243702   3.352   0.976   7.311 -0.7923  1.5889  0.8813
   61MOL   H38343703   3.506   1.190   7.183 -0.9187  0.3266  1.9961
   61MOL   H38443704   3.426   1.066   7.088 -1.2651  0.0771 -0.1639
   61MOL   H38543705   3.209   1.119   7.156 -1.1209 -0.1860  1.4554
   61MOL   H38643706   3.288   1.270   7.130  2.3234 -0.3348 -0.3109
   61MOL   H38743707   3.261   1.155   7.415  1.5307  1.9515  1.9561
   61MOL   H38843708   3.327   1.307   7.354 -1.3081  0.7729  0.7983
   61MOL   H38943709   3.043   1.240   7.274  1.6545 -2.5179  0.3646
   61MOL   H39043710   3.118   1.393   7.299  1.2100  0.1657  0.5002
   61MOL   H39143711   3.019   1.209   7.531  0.8257  0.5699  0.9345
   61MOL   H39243712   2.950   1.359   7.474 -1.6696 -2.6452  0.3566
   61MOL   H39343713   3.182   1.469   7.547 -0.2948 -0.1066  1.7917
   61MOL   H39443714   3.068   1.422   7.663 -1.4522  0.1984 -0.7374
   61MOL   H39543715   3.204   1.217   7.714 -0.7631 -0.8700 -1.0559
   61MOL   H39643716   3.416   0.883   7.513  2.2649  1.2960 -0.8715
   61MOL   H39743717   3.391   0.666   7.631  1.4655  0.1558  0.9397
   61MOL   C39843718   3.365   1.309   7.650 -0.2495 -0.3823  0.1521
   61MOL   O39943719   3.426   1.399   7.586  0.1638 -0.1953 -0.7207
   61MOL   C40043720   3.444   1.202   7.716 -0.1047 -0.1397 -0.0464
   61MOL   C40143721   3.444   1.201   7.859  0.6933 -0.2886 -0.5549
   61MOL   C40243722   3.509   1.102   0.040  0.6315 -0.7153  0.2784
   61MOL   C40343723   3.571   0.988   7.859 -0.1909 -0.2139 -0.3636
   61MOL   C40443724   3.632   0.873   0.048  0.3700 -0.7170 -0.0861
   61MOL   O40543725   3.707   0.794   7.880  0.0976  0.2588 -0.0101
   61MOL   N40643726   3.587   0.877   0.170 -0.1231  0.1499  0.6442
   61MOL   C40743727   3.645   0.802   0.276 -0.0182 -0.1284  0.0736
   61MOL   C40843728   3.792   0.827   0.304  0.0691 -0.1590  0.1892
   61MOL   C40943729   3.824   0.959   0.367 -0.0832  0.2508  0.2149
   61MOL   C41043730   3.846   1.077   0.266  0.0251 -0.4611 -0.2493
   61MOL   C41143731   3.951   1.047   0.151  0.0882  0.4901 -0.0366
   61MOL   C41243732   3.980   1.158   0.050  0.0928  0.2463 -0.1339
   61MOL   N41343733   4.041   1.274   0.120  0.3414  0.3672 -0.1468
   61MOL   C41443734   3.577   1.004   7.715 -0.4318 -0.1488  0.2707
   61MOL   C41543735   3.517   1.108   7.639 -0.2891 -0.3215 -0.4106
   61MOL   H41643736   3.385   1.274   0.027  2.2733 -0.9857  2.1484
   61MOL   H41743737   3.496   1.108   0.147 -1.6674 -1.8757  0.1157
   61MOL   H41843738   3.518   0.945   0.199  1.4342  2.8985 -1.8262
   61MOL   H41943739   3.594   0.825   0.370  0.3187  0.1899  0.1794
   61MOL   H42043740   3.634   0.695   0.258  0.5747 -0.2417  0.3882
   61MOL   H42143741   3.865   0.806   0.226 -0.7827 -0.0720 -0.6394
   61MOL   H42243742   3.813   0.758   0.385 -0.8599  1.4942  1.9016
   61MOL   H42343743   3.745   0.979   0.439  1.3778 -0.6181  2.1016
   61MOL   H42443744   3.920   0.941   0.415 -0.5446  0.6219  1.2804
   61MOL   H42543745   3.872   1.164   0.326  0.0277 -1.7614  1.6745
   61MOL   H42643746   3.750   1.101   0.220  1.0711  2.1637 -1.1539
   61MOL   H42743747   3.907   0.961   0.102 -0.7376  0.4768  0.7041
   61MOL   H42843748   4.047   1.025   0.197  0.2235  1.0124 -0.0634
   61MOL   H42943749   4.043   1.128   7.852  0.0039 -4.2887  1.2523
   61MOL   H43043750   3.889   1.197   0.005 -0.4798 -1.2503 -0.2925
   61MOL   H43143751   3.970   1.338   0.152  0.8349  0.0826  1.5597
   61MOL   H43243752   3.629   0.928   7.658  2.2473  1.8839 -0.0512
   61MOL   H43343753   3.520   1.112   7.532  0.5879 -3.7111 -0.5654
   61MOL   C43443754   4.177   1.292   0.120 -0.2044 -0.3511  0.7640
   61MOL   O43543755   4.250   1.195   0.085 -0.5691  0.1463 -0.1430
   61MOL   C43643756   4.243   1.419   0.160  0.4969  0.0652 -0.4953
   61MOL   C43743757   4.173   1.536   0.155 -0.5160  1.0130  0.9091
   61MOL   C43843758   4.228   1.658   0.195 -0.3363  0.1938  0.3964
   61MOL   C43943759   4.359   1.661   0.246 -0.3546  0.5298  0.0434
   61MOL   C44043760   4.427   1.789   0.297  0.2250 -0.0481  0.3907
   61MOL   O44143761   4.552   1.796   0.292 -0.6061 -0.1911 -0.4476
   61MOL   N44243762   4.339   1.883   0.338 -0.5247  0.5385  0.5969
   61MOL   C44343763   4.372   2.014   0.402 -0.7323  0.0767 -0.6402
   61MOL   C44443764   4.268   2.057   0.497 -0.5900  0.4446 -0.3329
   61MOL   C44543765   4.289   2.205   0.544  0.9229  0.3081 -0.1927
   61MOL   C44643766   4.205   2.233   0.667 -0.3336 -0.2339 -0.3754
   61MOL   C44743767   4.262   2.192   0.802  0.4817  0.5773 -1.3506
   61MOL   C44843768   4.173   2.249   0.917  0.1462 -0.4122 -0.3903
   61MOL   N44943769   4.216   2.206   1.048 -0.1878  0.4470 -0.0818
   61MOL   C45043770   4.425   1.540   0.259  0.4691 -0.2258  0.1138
   61MOL   C45143771   4.372   1.418   0.211 -0.5767  0.6030  1.3323
   61MOL   H45243772   4.071   1.543   0.120 -0.1969  1.5413  0.0589
   61MOL   H45343773   4.170   1.746   0.170  0.3513  0.8157  0.9956
   61MOL   H45443774   4.244   1.851   0.332 -0.3109 -0.1393  0.8117
   61MOL   H45543775   4.473   2.013   0.442 -0.7143  2.7053 -0.5464
   61MOL   H45643776   4.376   2.088   0.322  2.1320  1.5742  0.8010
   61MOL   H45743777   4.262   1.993   0.585 -1.4987 -1.4170 -1.7152
   61MOL   H45843778   4.174   2.049   0.442 -1.5727 -0.1387  1.3978
   61MOL   H45943779   4.393   2.234   0.558  0.8480 -0.5131  2.3183
   61MOL   H46043780   4.256   2.257   0.454  0.5469  0.8106  0.2393
   61MOL   H46143781   4.102   2.200   0.654 -0.2012 -0.5820 -0.5367
   61MOL   H46243782   4.196   2.341   0.680 -0.0646 -0.3560  0.9596
   61MOL   H46343783   4.359   2.239   0.822  0.8423  0.2823 -2.3925
   61MOL   H46443784   4.267   2.084   0.814 -0.0188  0.6815 -0.0705
   61MOL   H46543785   4.177   2.358   0.904 -1.7754 -0.5316 -2.1859
   61MOL   H46643786   4.077   2.205   0.888 -0.2014  1.0233 -1.5205
   61MOL   H46743787   4.313   2.189   1.070 -0.0896  0.2724 -0.6372
   61MOL   H46843788   4.522   1.543   0.305 -0.0096  2.6998  1.0325
   61MOL   H46943789   4.428   1.325   0.208 -0.7168  0.5730 -1.0196
   61MOL   C47043790   4.134   2.206   1.152 -0.0476  0.4355 -0.4359
   61MOL   O47143791   4.010   2.212   1.154 -0.3718 -0.2830 -0.0836
   61MOL   C47243792   4.204   2.187   1.286  0.0865  0.0550 -0.3008
   61MOL   C47343793   4.132   2.212   1.406  0.3926  0.2570  0.6853
   61MOL   C47443794   4.191   2.187   1.533  0.1710  0.0515  0.1337
   61MOL   C47543795   4.308   2.104   1.542  0.5536 -0.2708 -0.1695
   61MOL   C47643796   4.354   2.046   1.672 -0.1158 -0.2861  0.6790
   61MOL   O47743797   4.276   2.040   1.764  0.1406 -0.2093 -0.3528
   61MOL   N47843798   4.482   2.004   1.673 -0.7595 -0.6900 -0.1929
   61MOL   C47943799   4.551   1.952   1.787  0.1159  0.2988  0.6967
   61MOL   C48043800   4.660   1.848   1.746 -0.2966  0.3297 -0.3374
   61MOL   C48143801   4.757   1.907   1.648  0.8720 -0.0763 -0.4887
   61MOL   C48243802   4.879   1.820   1.606  0.2960 -0.4171  0.0798
   61MOL   C48343803   4.951   1.885   1.494 -0.3132 -0.3373 -0.1315
   61MOL   C48443804   5.064   1.805   1.440 -0.0730  0.1469  0.2039
   61MOL   N48543805   5.001   1.703   1.366 -0.2833  0.2939  0.0178
   61MOL   C48643806   4.375   2.072   1.422  0.9754 -0.6438 -0.0592
   61MOL   C48743807   4.333   2.124   1.295 -0.1067 -0.3645 -0.5057
   61MOL   H48843808   4.034   2.257   1.407  0.6522  0.9187  4.8072
   61MOL   H48943809   4.140   2.221   1.622 -1.7380  1.8363 -1.5836
   61MOL   H49043810   4.542   2.036   1.599 -0.4040 -0.1504  0.3261
   61MOL   H49143811   4.599   2.029   1.848 -0.5919  1.2975  0.0155
   61MOL   H49243812   4.482   1.896   1.850 -0.1544  1.7998  1.7726
   61MOL   H49343813   4.621   1.753   1.708  0.0585  0.0330  0.0230
   61MOL   H49443814   4.716   1.817   1.835  0.0422 -1.5464 -1.1713
   61MOL   H49543815   4.700   1.934   1.559  2.4963 -0.4935 -1.6969
   61MOL   H49643816   4.787   2.001   1.696 -0.9500  1.1434 -1.6616
   61MOL   H49743817   4.838   1.726   1.571 -2.2509  1.0981 -1.1229
   61MOL   H49843818   4.946   1.795   1.688  0.9244  0.3548 -0.1893
   61MOL   H49943819   4.990   1.982   1.524 -1.6136  0.1031  0.1568
   61MOL   H50043820   4.877   1.918   1.421 -0.6692 -1.3286 -0.2249
   61MOL   H50143821   5.131   1.874   1.389  0.1282  0.4429  0.8656
   61MOL   H50243822   5.121   1.765   1.524 -0.2331  0.8709  0.6573
   61MOL   H50343823   4.911   1.677   1.402 -1.7579  2.1246 -2.2084
   61MOL   H50443824   4.461   2.007   1.423  0.9205 -0.7437 -1.1748
   61MOL   H50543825   4.383   2.076   1.213  2.5159 -1.3390  1.5876
   61MOL   C50643826   5.039   1.652   1.250 -0.0102  0.1849 -0.3598
   61MOL   O50743827   5.150   1.675   1.198 -0.5780  0.3190  0.2995
   61MOL   C50843828   4.939   1.559   1.188 -0.0089  0.8079  0.1487
   61MOL   C50943829   4.812   1.545   1.235 -0.2831  0.6121  0.0006
   61MOL   C51043830   4.729   1.450   1.175  0.6429 -0.5104 -0.5136
   61MOL   C51143831   4.780   1.361   1.074 -0.4483  0.7623  0.3925
   61MOL   C51243832   4.699   1.246   1.025  0.3000  0.2819  0.2767
   61MOL   O51343833   4.738   1.173   0.927  0.1151 -0.1628 -0.3588
   61MOL   N51443834   4.598   1.213   1.106 -0.1317 -0.1784  0.3752
   61MOL   C51543835   4.504   1.097   1.093 -0.2355  0.1481 -0.6953
   61MOL   C51643836   4.511   1.014   1.217 -0.6126 -0.4708 -0.3869
   61MOL   C51743837   4.654   0.970   1.260  0.2326  0.0584  0.4616
   61MOL   C51843838   4.716   0.875   1.159 -0.0663 -0.3730  0.5825
   61MOL   C51943839   4.845   0.814   1.195 -0.0218  0.1402 -0.2860
   61MOL   C52043840   4.832   0.731   1.326  0.3381  0.4878 -0.5225
   61MOL   N52143841   4.717   0.639   1.315 -0.6877 -0.8449 -0.6449
   61MOL   C52243842   4.908   1.383   1.026  0.4821  0.1303  0.4472
   61MOL   C52343843   4.986   1.487   1.071  0.2137  0.6919 -0.1524
   61MOL   H52443844   4.778   1.604   1.319 -0.4812  0.5550 -0.0390
   61MOL   H52543845   4.626   1.444   1.208  0.6670 -0.3053 -0.3977
   61MOL   H52643846   4.569   1.276   1.179  0.5167 -0.5075  0.9230
   61MOL   H52743847   4.402   1.128   1.073 -0.1117  0.9647 -0.0833
   61MOL   H52843848   4.533   1.037   1.006  0.1013  0.9657 -1.1523
   61MOL   H52943849   4.448   0.925   1.211  1.6692 -2.0929 -1.0119
   61MOL   H53043850   4.472   1.077   1.297 -1.5145  2.8017 -3.2816
   61MOL   H53143851   4.712   1.062   1.261 -0.3033  0.4441 -1.9145
   61MOL   H53243852   4.669   0.938   1.363  0.7240  0.9887  0.6872
   61MOL   H53343853   4.728   0.932   1.067 -0.7769 -0.2496  0.5611
   61MOL   H53443854   4.649   0.795   1.126 -1.0773  1.0820 -0.9824
   61MOL   H53543855   4.914   0.895   1.218  1.4399 -1.2286  0.2504
   61MOL   H53643856   4.890   0.761   1.111 -0.1247 -1.1909  0.4821
   61MOL   H53743857   4.927   0.685   1.355  0.6034  1.1202 -0.3698
   61MOL   H53843858   4.804   0.798   1.407  0.5282  0.8545 -0.7606
   61MOL   H53943859   4.631   0.687   1.337  0.4580 -0.1809  2.6535
   61MOL   H54043860   4.949   1.322   0.946 -0.7069  0.4043 -0.3867
   61MOL   H54143861   5.079   1.511   1.022  0.6250 -0.2072  0.1858
   61MOL   C54243862   4.711   0.510   1.288 -0.8358  1.0261 -0.0086
   61MOL   O54343863   4.807   0.441   1.249  0.3825  0.1179 -0.7484
   61MOL   C54443864   4.577   0.446   1.305  0.3742 -1.1474  0.3792
   61MOL   C54543865   4.559   0.310   1.307 -0.1576  0.6933  0.7089
   61MOL   C54643866   4.436   0.249   1.315 -0.8728  0.1932  0.2886
   61MOL   C54743867   4.317   0.331   1.321 -0.4702  0.1055 -0.1640
   61MOL   C54843868   4.179   0.269   1.323 -0.6614  0.2487  0.4850
   61MOL   O54943869   4.080   0.330   1.282 -0.0863  0.3524  0.3504
   61MOL   N55043870   4.166   0.142   1.376 -0.4086 -0.4128 -0.4162
   61MOL   C55143871   4.052   0.044   1.355  0.2893 -0.2175 -0.4693
   61MOL   C55243872   3.996   0.002   1.485  0.6398 -0.4318  0.2614
   61MOL   C55343873   3.870   7.788   1.469 -0.7086 -0.0778 -0.0161
   61MOL   C55443874   3.827   7.742   1.610 -0.4214  0.4160 -0.2930
   61MOL   C55543875   3.732   7.626   1.616  0.0739  0.0104  0.1886
   61MOL   C55643876   3.680   7.591   1.761 -0.1343 -0.6903 -0.1595
   61MOL   N55743877   3.571   7.494   1.756 -0.2535  0.0903  0.2711
   61MOL   C55843878   4.330   0.468   1.324 -1.0510  0.0047  0.0376
   61MOL   C55943879   4.459   0.528   1.321 -0.3633  0.1950  0.4249
   61MOL   H56043880   4.650   0.253   1.300 -1.4391 -1.6146  2.1522
   61MOL   H56143881   4.423   0.142   1.327  1.2306 -0.1252 -0.1450
   61MOL   H56243882   4.258   0.112   1.404 -1.0859 -0.6736  1.5611
   61MOL   H56343883   3.973   0.082   1.291  1.3787 -0.7932 -2.1863
   61MOL   H56443884   4.085   7.840   1.303 -1.3263 -0.9465 -0.2782
   61MOL   H56543885   3.973   0.087   1.549 -0.3797  0.0028 -0.6627
   61MOL   H56643886   4.078   7.834   1.531 -0.3612 -1.4856  0.8421
   61MOL   H56743887   3.789   7.835   1.413  0.3966 -0.1687 -1.7067
   61MOL   H56843888   3.903   7.706   1.406 -1.0070  0.0776 -0.3795
   61MOL   H56943889   3.782   7.825   1.664 -0.4062  1.6497 -2.1311
   61MOL   H57043890   3.913   7.705   1.666 -0.1021  2.6333  0.7372
   61MOL   H57143891   3.780   7.536   1.579  2.3419  0.8077  1.0418
   61MOL   H57243892   3.648   7.642   1.549 -0.3353 -1.6864  0.2781
   61MOL   H57343893   3.760   7.555   1.826 -0.5432 -0.4091  0.5029
   61MOL   H57443894   3.634   7.675   1.814 -0.6151 -1.3104  0.3969
   61MOL   H57543895   3.519   7.495   1.669 -0.9261 -1.2934  0.6504
   61MOL   H57643896   4.247   0.537   1.316  0.7803  2.2223 -0.6692
   61MOL   H57743897   4.467   0.636   1.317  1.4308  0.0128 -2.4116
   61MOL   C57843898   3.524   7.412   1.848  0.4369  0.1600  0.2553
   61MOL   O57943899   3.580   7.384   1.956 -0.2873  0.7094  0.1887
   61MOL   C58043900   3.398   7.341   1.805 -0.2803 -0.4550 -0.1628
   61MOL   C58143901   3.392   7.201   1.825  0.2896  0.0449 -0.2198
   61MOL   C58243902   3.276   7.129   1.797 -0.8682 -0.0469  0.7363
   61MOL   C58343903   3.161   7.195   1.749 -0.2276  0.2151  0.0635
   61MOL   C58443904   3.038   7.112   1.729 -0.3361  0.6099 -0.5320
   61MOL   O58543905   2.946   7.149   1.652  0.0921  0.4988  0.0155
   61MOL   N58643906   3.023   7.001   1.811 -0.0520 -0.1996 -0.1099
   61MOL   C58743907   2.913   6.910   1.815 -1.0069 -0.7479 -0.5758
   61MOL   C58843908   2.936   6.801   1.919  0.2143  0.6532 -0.2300
   61MOL   C58943909   2.806   6.718   1.937  0.5979  0.0611  0.0527
   61MOL   C59043910   2.816   6.603   2.036  0.7283 -0.1754 -0.0996
   61MOL   C59143911   2.700   6.511   2.042  0.7412  0.4609  0.0377
   61MOL   C59243912   2.724   6.388   2.131 -0.0575 -1.1515 -0.0768
   61MOL   N59343913   2.617   6.292   2.118  0.4172  0.4940  0.2721
   61MOL   C59443914   3.166   7.333   1.727  0.1259  0.1910 -0.0979
   61MOL   C59543915   3.284   7.414   1.752  0.1472  0.0200 -0.3194
   61MOL   H59643916   3.475   7.149   1.870  0.9983 -2.4195 -4.1927
   61MOL   H59743917   3.273   7.022   1.812 -0.1613 -0.5430 -2.3021
   61MOL   H59843918   3.103   6.990   1.871  0.7627 -0.1729 -1.1605
   61MOL   H59943919   2.823   6.965   1.845 -1.0156 -2.3482  2.5934
   61MOL   H60043920   2.899   6.867   1.716 -0.1844  1.2221 -1.5684
   61MOL   H60143921   2.977   6.850   2.008  0.3298  0.8706 -0.4040
   61MOL   H60243922   3.016   6.731   1.893  0.4552  0.6827  0.4161
   61MOL   H60343923   2.732   6.793   1.965  2.4200  0.9756  2.5649
   61MOL   H60443924   2.757   6.698   1.842  1.0790  1.6796 -0.5561
   61MOL   H60543925   2.832   6.641   2.137 -1.0508 -2.3009  1.0019
   61MOL   H60643926   2.908   6.544   2.028 -0.4346 -1.7645 -2.1177
   61MOL   H60743927   2.667   6.474   1.945  0.3461 -0.6981  0.6090
   61MOL   H60843928   2.624   6.569   2.095  1.7414  1.0997  0.7881
   61MOL   H60943929   2.811   6.336   2.091  0.3886  1.0819 -2.0942
   61MOL   H61043930   2.750   6.414   2.234 -1.3856 -0.9745  0.2229
   61MOL   H61143931   2.605   6.255   2.025 -1.1083  0.6397  0.3990
   61MOL   H61243932   3.078   7.382   1.688  1.1361  0.8672 -1.6022
   61MOL   H61343933   3.283   7.521   1.740  3.0832 -0.0878 -2.0912
   61MOL   C61443934   2.529   6.257   2.210 -0.1124  0.1715  0.4503
   61MOL   O61543935   2.547   6.293   2.325  0.3047  0.0525 -0.8980
   61MOL   C61643936   2.414   6.172   2.166 -0.0665  0.6529  0.8927
   61MOL   C61743937   2.416   6.029   2.184 -0.4665  0.0187  0.1201
   61MOL   C61843938   2.322   5.951   2.111 -0.4937 -0.4402  0.2056
   61MOL   C61943939   2.216   6.013   2.045 -0.8447  0.3982  0.0581
   61MOL   C62043940   2.109   5.930   1.981  0.3646  0.1284 -0.0062
   61MOL   O62143941   2.041   5.856   2.051  0.1877 -0.3158 -0.0636
   61MOL   N62243942   2.085   5.960   1.855  0.1714  0.2723 -0.1783
   61MOL   C62343943   1.998   5.876   1.772  0.2045 -0.6806 -0.0023
   61MOL   C62443944   2.017   5.892   1.616 -0.3957 -0.3297 -0.7037
   61MOL   C62543945   1.962   5.778   1.526 -0.0218 -0.4325 -0.7640
   61MOL   C62643946   1.951   5.827   1.377 -0.0264  0.8415  0.0604
   61MOL   C62743947   1.898   5.730   1.276 -0.2462  0.2313  0.4364
   61MOL   C62843948   1.893   5.805   1.132  0.1827 -0.0499  0.5736
   61MOL   N62943949   1.799   5.913   1.125 -0.0244 -0.3502 -0.5860
   61MOL   C63043950   2.208   6.154   2.039 -0.6586  0.8650  0.2483
   61MOL   C63143951   2.305   6.231   2.103 -0.4067 -0.1918 -0.3323
   61MOL   H63243952   2.496   5.982   2.240 -3.2601 -3.4100  1.4041
   61MOL   H63343953   2.337   5.844   2.109  1.3099 -0.1993  0.1502
   61MOL   H63443954   2.140   6.035   1.815  2.0672 -1.4388 -0.8507
   61MOL   H63543955   2.029   5.775   1.798  2.2494  0.4954  2.3943
   61MOL   H63643956   1.893   5.890   1.795  0.7955 -0.5080  2.8095
   61MOL   H63743957   2.121   5.910   1.592  0.0487  1.1861  2.0954
   61MOL   H63843958   1.975   5.988   1.584  0.6627  0.6677  0.8315
   61MOL   H63943959   2.023   5.689   1.536  1.4798  0.8129  1.3138
   61MOL   H64043960   1.866   5.745   1.566  0.7873 -0.5669  1.0660
   61MOL   H64143961   2.050   5.860   1.346  0.4055 -0.5060 -0.0300
   61MOL   H64243962   1.883   5.912   1.367 -0.2997  0.5252 -0.8698
   61MOL   H64343963   1.803   5.682   1.298 -0.5749  0.1945 -0.9889
   61MOL   H64443964   1.968   5.646   1.278 -1.7125 -0.9739  2.2422
   61MOL   H64543965   1.990   5.849   1.111  1.1279 -2.2832  0.1356
   61MOL   H64643966   1.859   5.737   1.054  0.3010 -0.0427  0.5166
   61MOL   H64743967   1.835   6.005   1.144  0.0507 -0.9804  2.5918
   61MOL   H64843968   2.129   6.207   1.988 -0.8841  0.2797 -0.0221
   61MOL   H64943969   2.299   6.338   2.090 -0.5397 -0.1480  0.0723
   61MOL   C65043970   1.671   5.909   1.092  0.1534 -0.6341  0.2247
   61MOL   O65143971   1.617   5.803   1.064 -0.1832 -0.1134  0.0034
   61MOL   C65243972   1.600   6.038   1.093 -0.2324 -0.5570  0.0567
   61MOL   C65343973   1.645   6.151   1.163  0.1263  0.0837 -0.3641
   61MOL   C65443974   1.571   6.270   1.162  0.0811  0.5570 -0.4998
   61MOL   C65543975   1.456   6.278   1.082 -0.2533  0.1106 -0.2998
   61MOL   C65643976   1.376   6.406   1.079 -0.1781  0.2293 -0.5232
   61MOL   O65743977   1.368   6.470   1.183  0.1963  0.4029 -0.4759
   61MOL   N65843978   1.344   6.453   0.958 -0.0235 -0.6123  0.0960
   61MOL   C65943979   1.286   6.589   0.941  0.4942  0.2757 -0.3691
   61MOL   C66043980   1.385   6.689   0.884  0.1817  0.4106 -0.0768
   61MOL   C66143981   1.510   6.701   0.970  0.1431 -0.0603 -0.6101
   61MOL   C66243982   1.631   6.773   0.907  0.7607 -0.4336  1.2594
   61MOL   C66343983   1.745   6.817   1.007  0.8274  0.1952  1.1242
   61MOL   C66443984   1.840   6.923   0.955 -0.0198 -0.8539  0.3314
   61MOL   N66543985   1.950   6.943   1.046 -0.0970 -0.6712  0.3290
   61MOL   C66643986   1.406   6.171   1.018  0.3955  0.1550  0.2840
   61MOL   C66743987   1.475   6.048   1.024  0.3495 -0.8639 -0.0119
   61MOL   H66843988   1.739   6.142   1.217 -0.0667 -1.2136 -0.2150
   61MOL   H66943989   1.614   6.360   1.204  0.9449  0.5360 -1.3216
   61MOL   H67043990   1.356   6.396   0.876 -2.1833  1.5743 -1.8156
   61MOL   H67143991   1.192   6.577   0.887  0.0546 -0.9208  0.6240
   61MOL   H67243992   1.254   6.634   1.035 -1.8304  0.9507 -1.4523
   61MOL   H67343993   1.339   6.787   0.868  0.9904  0.9450  0.7971
   61MOL   H67443994   1.415   6.656   0.784 -0.3900  1.3581 -0.5741
   61MOL   H67543995   1.473   6.760   1.054 -0.5071 -2.4437  0.8009
   61MOL   H67643996   1.539   6.610   1.023  1.4370  1.0854  0.7050
   61MOL   H67743997   1.596   6.865   0.861 -1.8916 -1.4256  1.2090
   61MOL   H67843998   1.666   6.712   0.824 -1.4212  1.8858 -1.4597
   61MOL   H67943999   1.797   6.731   1.050 -0.0594  0.0628  1.9486
   61MOL   H68044000   1.700   6.865   1.094 -1.0823  0.8458 -0.2113
   61MOL   H68144001   1.881   6.902   0.856 -1.6720 -1.8225 -0.1748
   61MOL   H68244002   1.784   7.014   0.933 -1.9863 -1.5649  2.1844
   61MOL   H68344003   1.930   7.014   1.115 -4.3182 -0.9919 -0.4638
   61MOL   H68444004   1.313   6.169   0.964  1.1233 -1.4133 -0.9768
   61MOL   H68544005   1.430   5.970   0.964  1.1483 -1.0399 -0.3817
   61MOL   C68644006   2.080   6.931   1.012  0.2781  0.5266  0.6034
   61MOL   O68744007   2.118   6.860   0.916 -0.2104 -0.0958 -0.4335
   61MOL   C68844008   2.177   7.008   1.100  0.5467 -0.1357 -0.0402
   61MOL   C68944009   2.143   7.063   1.231 -0.2686  0.0527 -0.3055
   61MOL   C69044010   2.243   7.129   1.311  0.2959  0.0087  0.3378
   61MOL   C69144011   2.375   7.138   1.266 -0.4729 -0.0492 -0.0386
   61MOL   C69244012   2.470   7.211   1.345 -0.2398  0.0108  0.0693
   61MOL   O69344013   2.465   7.221   1.468  0.1069 -0.2904 -0.4061
   61MOL   N69444014   2.569   7.268   1.277  0.0739  0.2931 -0.2565
   61MOL   C69544015   2.672   7.352   1.340 -0.0524  0.5107 -0.1438
   61MOL   C69644016   2.768   7.406   1.230 -0.1059 -0.3248  0.3335
   61MOL   C69744017   2.861   7.528   1.275  0.2488  0.6676 -0.0553
   61MOL   C69844018   2.965   7.577   1.173 -0.5798 -0.1298 -0.1977
   61MOL   C69944019   3.043   7.703   1.221 -0.1698 -0.1674 -0.5338
   61MOL   C70044020   3.138   7.758   1.112  1.0562 -0.8846 -0.4547
   61MOL   N70144021   3.073   7.845   1.023  0.2438  0.1290 -0.6612
   61MOL   C70244022   2.407   7.088   1.139  0.5605  0.0204  0.4800
   61MOL   C70344023   2.313   7.019   1.065 -0.5257  0.2121 -0.2489
   61MOL   H70444024   2.041   7.062   1.267 -0.0120 -1.2228  0.4195
   61MOL   H70544025   2.213   7.168   1.407 -0.0623  1.1109 -0.2215
   61MOL   H70644026   2.559   7.258   1.177 -1.6255 -1.0369  0.0264
   61MOL   H70744027   2.628   7.431   1.401 -0.4303 -0.2178  0.5336
   61MOL   H70844028   2.727   7.284   1.405 -0.1752 -1.4431 -2.0408
   61MOL   H70944029   2.707   7.428   1.142  0.7209  0.2434 -0.0996
   61MOL   H71044030   2.831   7.329   1.186 -0.4786 -0.6183  0.3152
   61MOL   H71144031   2.789   7.610   1.285 -0.5357  0.0562 -0.6012
   61MOL   H71244032   2.906   7.507   1.372 -1.8740  0.9550  1.0228
   61MOL   H71344033   2.904   7.588   1.083 -0.6394 -1.6309 -0.3526
   61MOL   H71444034   3.036   7.499   1.146  0.4834  1.5019 -2.2906
   61MOL   H71544035   3.103   7.670   1.305  0.6026  1.4992 -0.4143
   61MOL   H71644036   2.975   7.779   1.257 -0.7881 -1.3410  0.8086
   61MOL   H71744037   3.222   7.811   1.158 -0.3885  0.7397  0.3792
   61MOL   H71844038   3.179   7.669   1.065  0.4815 -1.4239  0.0620
   61MOL   H71944039   3.008   7.788   0.971 -0.2080 -0.0786  0.1214
   61MOL   H72044040   2.508   7.090   1.100  0.4271  1.8707  0.1770
   61MOL   H72144041   2.338   6.983   0.966 -0.5641 -2.4069  0.6647
   61MOL   H72244042   3.025   0.029   1.078 -0.9019 -1.3302  0.2361
   62MOL     C144043   7.437   7.491   2.710  0.1574  0.0476 -0.4597
   62MOL     O244044   7.374   7.587   2.758  0.0386  0.0134  0.4856
   62MOL     C344045   7.406   7.354   2.753  0.4908  0.0952  0.5501
   62MOL     C444046   7.343   7.325   2.876 -0.2607 -0.7497  0.0012
   62MOL     C544047   7.318   7.194   2.918 -0.2484 -0.1501 -0.2289
   62MOL     C644048   7.351   7.089   2.833  0.4376  0.7894 -0.4791
   62MOL     C744049   7.303   6.951   2.865  0.6003 -0.0788  0.7255
   62MOL     O844050   7.239   6.888   2.784 -0.1665 -0.1660  0.6827
   62MOL     N944051   7.334   6.914   2.992 -0.3065  0.1966 -0.0433
   62MOL    C1044052   7.296   6.793   3.065  0.1841 -0.7123 -0.3016
   62MOL    C1144053   7.255   6.667   2.978 -0.0434  0.6135 -0.4324
   62MOL    C1244054   7.228   6.540   3.058  0.2358  0.0492 -0.0771
   62MOL    C1344055   7.129   6.445   2.982  0.4651 -0.2023 -0.5344
   62MOL    C1444056   7.096   6.324   3.073 -0.2989 -0.2330  0.2653
   62MOL    C1544057   7.016   6.219   3.000  0.5113  0.6804  0.4366
   62MOL    N1644058   7.116   6.127   2.946 -0.1257  0.2237 -0.5798
   62MOL    C1744059   7.411   7.109   2.707  0.0137 -0.2055  0.2844
   62MOL    C1844060   7.441   7.243   2.670 -0.0666 -0.1108 -0.3167
   62MOL    H1944061   7.321   7.404   2.946  0.9055  0.1902 -0.6750
   62MOL    H2044062   7.286   7.180   3.020 -0.3609  2.4759  0.1478
   62MOL    H2144063   7.404   6.967   3.041 -0.4869 -0.5729  1.0567
   62MOL    H2244064   7.379   6.779   3.134  0.2517 -0.2451 -0.2873
   62MOL    H2344065   7.222   6.830   3.136  1.4394  2.2909 -0.4686
   62MOL    H2444066   7.339   6.643   2.913 -1.0831  0.4287 -1.7592
   62MOL    H2544067   7.168   6.697   2.918  0.0213  0.3179 -0.6792
   62MOL    H2644068   7.322   6.490   3.081  0.5729  0.9510  0.5134
   62MOL    H2744069   7.192   6.577   3.154 -3.1126 -2.5983 -0.2225
   62MOL    H2844070   7.163   6.407   2.886 -0.1378  1.3578 -1.3738
   62MOL    H2944071   7.037   6.501   2.970  0.5918  0.3403  0.9624
   62MOL    H3044072   7.032   6.357   3.154  1.3890 -0.4654  1.7286
   62MOL    H3144073   7.191   6.285   3.110  0.7378  2.0413  0.0686
   62MOL    H3244074   6.930   6.179   3.054 -0.6574  0.7540 -1.3275
   62MOL    H3344075   6.980   6.263   2.907 -1.0881 -0.9574  0.2425
   62MOL    H3444076   7.196   6.099   3.000 -1.0253 -1.0274  0.1283
   62MOL    H3544077   7.441   7.030   2.639 -1.0006 -1.3037  1.0997
   62MOL    H3644078   7.485   7.254   2.572 -0.2402 -0.5261 -0.4403
   62MOL    H3744079   7.521   7.510   2.643 -0.0360 -0.5003 -0.8610
   62MOL    C3844080   7.107   6.055   2.833 -0.9426  0.4318  0.5648
   62MOL    O3944081   7.009   6.060   2.761 -0.0920  0.1171 -0.0313
   62MOL    C4044082   7.219   5.953   2.804  0.2541 -0.0632  0.0495
   62MOL    C4144083   7.209   5.894   2.675  0.3664  0.3458  1.1592
   62MOL    C4244084   7.289   5.784   2.642 -0.0682  0.8358  0.1047
   62MOL    C4344085   7.386   5.731   2.731 -0.0450  0.7750  0.9795
   62MOL    C4444086   7.476   5.616   2.697  0.2500  0.2376 -0.1851
   62MOL    O4544087   7.463   5.552   2.587  0.1850 -0.2045  0.0840
   62MOL    N4644088   7.580   5.598   2.785  0.1292  0.3605  0.6724
   62MOL    C4744089   7.711   5.542   2.749 -0.1550 -0.4888  0.2501
   62MOL    C4844090   7.838   5.590   2.822 -0.3829 -0.1903  0.1435
   62MOL    C4944091   7.821   5.733   2.885  0.2709  0.4763 -0.1250
   62MOL    C5044092   7.743   5.733   3.013  0.4775  0.4838  0.9011
   62MOL    C5144093   7.715   5.866   3.065  0.1974 -0.8892 -0.7670
   62MOL    C5244094   7.652   5.866   3.206  0.1297 -0.0096  0.1627
   62MOL    N5344095   7.641   5.997   3.269 -0.1571 -0.3497 -0.1095
   62MOL    C5444096   7.394   5.799   2.857  0.2135  1.0517 -0.5461
   62MOL    C5544097   7.312   5.906   2.899  0.1936  0.5355 -1.0965
   62MOL    H5644098   7.135   5.930   2.605  0.3816 -0.7361  0.5895
   62MOL    H5744099   7.297   5.748   2.540  0.6713 -0.9709  0.7801
   62MOL    H5844100   7.571   5.661   2.863  2.1706  1.5117  0.0307
   62MOL    H5944101   7.708   5.433   2.743  1.4041 -0.4689 -1.3169
   62MOL    H6044102   7.724   5.562   2.642  2.3667  0.3549  0.7058
   62MOL    H6144103   0.042   5.576   2.762 -0.5976 -1.0843  0.0296
   62MOL    H6244104   7.828   5.526   2.909 -2.5232 -1.2814 -0.8702
   62MOL    H6344105   0.038   5.766   2.901  0.2052  0.5549  0.1355
   62MOL    H6444106   7.759   5.797   2.822 -0.9342 -1.0977 -0.5632
   62MOL    H6544107   7.810   5.683   3.084 -1.1838 -1.9854  0.7988
   62MOL    H6644108   7.650   5.678   3.001  0.6420  0.5265 -0.5764
   62MOL    H6744109   7.654   5.925   2.996  0.2471 -0.7708 -0.7108
   62MOL    H6844110   7.807   5.925   3.065  0.8878 -1.9361 -1.8450
   62MOL    H6944111   7.554   5.818   3.214  0.2199 -0.0616  1.0375
   62MOL    H7044112   7.708   5.802   3.274  1.0026  0.8285  0.2349
   62MOL    H7144113   7.722   6.023   3.324 -2.0541  3.1698  1.1055
   62MOL    H7244114   7.467   5.758   2.925 -1.3394 -0.5727  0.1817
   62MOL    H7344115   7.327   5.970   2.985  1.6318 -1.1591 -0.0417
   62MOL    C7444116   7.537   6.083   3.247  0.1651  0.1362  0.7654
   62MOL    O7544117   7.444   6.055   3.169 -0.3420  0.0338  0.0815
   62MOL    C7644118   7.548   6.222   3.307  0.0496  0.4139  0.0422
   62MOL    C7744119   7.486   6.328   3.237  0.2440  0.4484  0.0038
   62MOL    C7844120   7.483   6.459   3.293 -0.1646 -0.4719 -0.1446
   62MOL    C7944121   7.534   6.484   3.421  0.5538 -0.1114  0.1126
   62MOL    C8044122   7.504   6.614   3.488  0.6783  0.5871 -0.2920
   62MOL    O8144123   7.427   6.692   3.438  0.4293 -0.5415 -0.2583
   62MOL    N8244124   7.549   6.638   3.608 -0.4227  0.1764  0.0912
   62MOL    C8344125   7.516   6.750   3.687 -0.6709  0.2972 -0.0171
   62MOL    C8444126   7.583   6.731   3.827  0.6084  0.5689 -0.6860
   62MOL    C8544127   7.547   6.837   3.934 -0.1393  0.3089  0.4379
   62MOL    C8644128   7.422   6.811   4.024  0.3885 -0.3773  0.4109
   62MOL    C8744129   7.282   6.805   3.959 -0.1610  0.0902 -0.1569
   62MOL    C8844130   7.161   6.796   4.056  0.8007 -0.4392  0.8125
   62MOL    N8944131   7.168   6.674   4.136  0.0645 -0.0814 -0.0418
   62MOL    C9044132   7.592   6.382   3.489  0.2512  0.0271  0.0120
   62MOL    C9144133   7.598   6.250   3.438 -0.0026 -0.5585 -0.6615
   62MOL    H9244134   7.439   6.303   3.143  0.8684  0.3258 -0.2797
   62MOL    H9344135   7.444   6.543   3.239 -0.1810 -0.8795 -0.7711
   62MOL    H9444136   7.608   6.566   3.645 -0.6192 -0.4784 -0.8603
   62MOL    H9544137   7.531   6.852   3.651  0.5727  0.0301 -0.2927
   62MOL    H9644138   7.408   6.742   3.693 -0.6183 -1.0752 -0.7038
   62MOL    H9744139   7.690   6.731   3.810  0.7415 -3.5018 -0.1960
   62MOL    H9844140   7.559   6.629   3.857  2.6426  0.5966  1.1689
   62MOL    H9944141   7.631   6.841   4.004 -0.6796  1.3591  1.0392
   62MOL   H10044142   7.543   6.936   3.889 -4.0123 -0.4285 -1.0225
   62MOL   H10144143   7.429   6.879   4.108  2.0501 -2.6790  2.2092
   62MOL   H10244144   7.423   6.713   4.072 -3.8194 -0.6750  0.1427
   62MOL   H10344145   7.286   6.722   3.888  0.4415 -0.0829  0.0829
   62MOL   H10444146   7.280   6.904   3.914 -1.5589  1.3779  2.6167
   62MOL   H10544147   7.162   6.875   4.131  1.8412  1.7192 -1.4093
   62MOL   H10644148   7.061   6.803   4.014  1.4919  0.1746 -0.7501
   62MOL   H10744149   7.212   6.692   4.226 -1.3267 -1.0797  0.8554
   62MOL   H10844150   7.627   6.396   3.590  1.6829 -1.0291 -0.3283
   62MOL   H10944151   7.632   6.169   3.501  2.6180 -0.3695 -1.7446
   62MOL   C11044152   7.133   6.550   4.098 -0.9972  0.5549  0.0559
   62MOL   O11144153   7.078   6.526   3.990 -0.3551  0.6739 -0.6792
   62MOL   C11244154   7.181   6.444   4.191  0.3728 -0.6833  0.6044
   62MOL   C11344155   7.316   6.441   4.239 -0.2976  0.0409  0.4040
   62MOL   C11444156   7.362   6.340   4.321  0.1588 -0.0323  0.2952
   62MOL   C11544157   7.276   6.232   4.355 -0.0795 -0.5504 -0.3680
   62MOL   C11644158   7.337   6.118   4.439  0.4418 -0.5361 -0.3193
   62MOL   O11744159   7.460   6.114   4.445 -0.2233 -0.2000  0.5285
   62MOL   N11844160   7.249   6.030   4.494  0.8755  0.3570 -0.0898
   62MOL   C11944161   7.284   5.910   4.568  0.1449 -0.1142 -0.1763
   62MOL   C12044162   7.249   5.781   4.489 -0.8808 -0.1593  1.3554
   62MOL   C12144163   7.324   5.781   4.347 -0.3661 -0.0616 -1.1407
   62MOL   C12244164   7.273   5.672   4.259  0.4058  0.0338  0.3793
   62MOL   C12344165   7.150   5.715   4.173 -0.1687 -0.2313  0.7114
   62MOL   C12444166   7.095   5.619   4.067  0.0766 -0.0711  0.8168
   62MOL   N12544167   6.968   5.657   4.011 -0.0846  0.2677  0.5444
   62MOL   C12644168   7.138   6.244   4.326 -0.5215  0.2361  0.3773
   62MOL   C12744169   7.098   6.341   4.239  0.1572 -0.5300  0.3804
   62MOL   H12844170   7.381   6.522   4.210 -1.7476  2.0846  2.7113
   62MOL   H12944171   7.465   6.348   4.353  0.6014  0.7234 -1.2709
   62MOL   H13044172   7.153   6.059   4.481  0.4971 -0.8094  0.1030
   62MOL   H13144173   7.391   5.912   4.591 -0.2052 -2.2880  1.8338
   62MOL   H13244174   7.249   5.912   4.672  0.9918  1.1337  0.0964
   62MOL   H13344175   7.142   5.785   4.472 -0.6113 -0.9566 -0.7354
   62MOL   H13444176   7.274   5.689   4.541 -1.1205 -0.3350  1.1619
   62MOL   H13544177   7.315   5.874   4.290  2.7389  1.4587  0.7343
   62MOL   H13644178   7.430   5.761   4.364  0.0342  2.8551  0.0744
   62MOL   H13744179   7.251   5.573   4.299  0.8953  0.2636  1.2234
   62MOL   H13844180   7.357   5.655   4.192 -0.9930 -1.1194 -1.1541
   62MOL   H13944181   7.157   5.808   4.117  0.7303 -1.3495 -1.0636
   62MOL   H14044182   7.072   5.736   4.247 -2.8354  0.1337 -2.0904
   62MOL   H14144183   7.171   5.602   3.991 -0.0030  1.8920  0.2621
   62MOL   H14244184   7.074   5.518   4.102 -2.5900  0.6465  1.4342
   62MOL   H14344185   6.901   5.703   4.072 -1.0453  1.6453 -1.4736
   62MOL   H14444186   7.070   6.166   4.357  0.5483 -0.9599 -0.2101
   62MOL   H14544187   6.992   6.335   4.218  0.0878 -1.5170  0.9919
   62MOL   C14644188   6.917   5.617   3.897  0.0126  0.4518  0.3913
   62MOL   O14744189   6.976   5.558   3.805  0.1118 -0.2167 -0.0964
   62MOL   C14844190   6.768   5.637   3.872  0.7056 -0.6144 -0.2961
   62MOL   C14944191   6.708   5.764   3.910  0.5926 -0.3825  0.4582
   62MOL   C15044192   6.568   5.769   3.896  0.7714  0.2392  0.7359
   62MOL   C15144193   6.496   5.667   3.832  0.5793  0.7875  0.1569
   62MOL   C15244194   6.342   5.675   3.809 -0.1039 -0.3636 -0.0959
   62MOL   O15344195   6.285   5.571   3.778 -0.3544  1.3846  0.4140
   62MOL   N15444196   6.272   5.782   3.838  0.6608  0.1092 -0.3770
   62MOL   C15544197   6.125   5.794   3.818  0.2425 -0.3111  0.0212
   62MOL   C15644198   6.067   5.869   3.942  0.3655  0.2944 -0.2624
   62MOL   C15744199   6.109   5.790   4.070 -0.1184  0.1804 -0.0098
   62MOL   C15844200   6.003   5.818   4.182  0.8323 -0.6243 -0.4213
   62MOL   C15944201   6.007   5.707   4.289 -0.6260 -0.1980 -0.5052
   62MOL   C16044202   5.917   5.742   4.403  0.0211 -0.2831 -0.1076
   62MOL   N16144203   5.789   5.661   4.402  0.3738 -0.3944  0.5271
   62MOL   C16244204   6.558   5.551   3.785 -0.0500  0.3282 -0.1251
   62MOL   C16344205   6.694   5.535   3.809  0.3749 -0.0330  0.9475
   62MOL   H16444206   6.770   5.841   3.954 -0.7475  0.9658 -0.0018
   62MOL   H16544207   6.513   5.855   3.933 -1.6299 -1.3916  1.0598
   62MOL   H16644208   6.329   5.859   3.867 -0.4998  0.0099  2.3109
   62MOL   H16744209   6.082   5.849   3.735  0.5848 -0.0640  0.0106
   62MOL   H16844210   6.076   5.697   3.812 -0.9069  0.2194  0.6148
   62MOL   H16944211   5.958   5.861   3.940  0.3117  1.2185 -0.7519
   62MOL   H17044212   6.092   5.975   3.947  0.7586  0.2163 -0.5752
   62MOL   H17144213   6.096   5.684   4.049 -0.5972 -0.3145  2.5597
   62MOL   H17244214   6.211   5.812   4.103 -0.8103  0.7435  1.7777
   62MOL   H17344215   5.902   5.831   4.142  0.3701 -1.0459  0.5987
   62MOL   H17444216   6.025   5.910   4.237  2.1901 -0.3622 -1.3838
   62MOL   H17544217   6.112   5.701   4.316 -0.0645  2.1528 -2.0210
   62MOL   H17644218   5.994   5.608   4.246  1.9898  0.1737 -2.2842
   62MOL   H17744219   5.958   5.715   4.500  0.3043  0.6691  0.0429
   62MOL   H17844220   5.895   5.849   4.414  2.3640  0.4191 -1.9196
   62MOL   H17944221   5.778   5.581   4.463 -2.2073 -0.3417  0.2037
   62MOL   H18044222   6.496   5.473   3.743  1.1291 -2.7433  3.5367
   62MOL   H18144223   6.733   5.439   3.779 -2.0351 -0.2337 -1.7607
   62MOL   C18244224   5.676   5.704   4.345  0.0896  0.2950 -0.1865
   62MOL   O18344225   5.661   5.820   4.304 -0.6219  0.3572  0.0303
   62MOL   C18444226   5.555   5.610   4.333 -0.7085  0.1341  0.2437
   62MOL   C18544227   5.578   5.470   4.333 -0.8873 -0.9547 -0.4834
   62MOL   C18644228   5.467   5.383   4.347  0.0137  0.4109 -0.1712
   62MOL   C18744229   5.333   5.434   4.348 -0.0878  0.3014 -0.1626
   62MOL   C18844230   5.220   5.333   4.369 -0.2820 -0.0419  0.9441
   62MOL   O18944231   5.234   5.216   4.353  0.0861 -0.2576 -0.2983
   62MOL   N19044232   5.109   5.372   4.431 -0.1843  0.0682  0.0470
   62MOL   C19144233   5.003   5.277   4.471  0.1510  0.6349  0.2836
   62MOL   C19244234   4.883   5.352   4.518 -0.2821 -0.5341 -0.9297
   62MOL   C19344235   4.905   5.467   4.624 -0.3283 -0.2111 -0.4543
   62MOL   C19444236   4.977   5.412   4.757 -0.7484  0.4678  0.9159
   62MOL   C19544237   4.963   5.512   4.873 -0.1110 -0.0084 -0.5943
   62MOL   C19644238   5.051   5.479   4.987 -0.5415 -0.6787  0.0534
   62MOL   N19744239   5.191   5.468   4.954  0.0732  0.5370 -0.3113
   62MOL   C19844240   5.315   5.574   4.340  0.2678  0.4867  0.3382
   62MOL   C19944241   5.422   5.665   4.337  0.3760 -0.5640 -0.4456
   62MOL   H20044242   5.675   5.425   4.340 -1.1310 -1.2155  1.4634
   62MOL   H20144243   5.487   5.279   4.369  2.1359  0.7215 -0.5333
   62MOL   H20244244   5.117   5.465   4.471  2.6879 -0.9021  1.8754
   62MOL   H20344245   4.983   5.217   4.382  4.6352  0.5992 -0.8081
   62MOL   H20444246   5.034   5.215   4.555  0.5330 -1.9073 -1.6661
   62MOL   H20544247   4.805   5.285   4.553  0.3364 -1.4870 -1.3435
   62MOL   H20644248   4.832   5.391   4.429 -0.3732 -1.1414 -1.1442
   62MOL   H20744249   4.977   5.533   4.575 -1.1535 -0.1690 -1.6290
   62MOL   H20844250   4.818   5.528   4.647  0.8400  0.4844  2.3546
   62MOL   H20944251   5.079   5.380   4.739 -1.1563  0.2176 -1.0648
   62MOL   H21044252   4.931   5.320   4.793  0.5447  0.0466  1.5114
   62MOL   H21144253   4.859   5.521   4.904  0.3521  1.6064  0.5241
   62MOL   H21244254   4.994   5.613   4.847  0.4801 -0.0360 -0.0119
   62MOL   H21344255   5.055   5.570   5.048 -0.6865  0.0660 -1.0324
   62MOL   H21444256   5.004   5.395   5.038 -2.1236 -0.8675 -1.6557
   62MOL   H21544257   5.236   5.551   4.917  0.3311  1.4189  1.9311
   62MOL   H21644258   5.212   5.605   4.336 -0.2263 -0.9037  1.8437
   62MOL   H21744259   5.416   5.773   4.335  0.8294 -0.5203  0.6100
   62MOL   C21844260   5.259   5.351   4.950  0.4605  0.6173  0.4463
   62MOL   O21944261   5.225   5.261   5.024  0.2313  0.2728 -0.1954
   62MOL   C22044262   5.384   5.342   4.871 -0.2959 -0.2691  0.4822
   62MOL   C22144263   5.406   5.438   4.768  0.4035 -0.4520  0.5395
   62MOL   C22244264   5.528   5.432   4.686 -0.0036 -0.1164 -0.0657
   62MOL   C22344265   5.613   5.319   4.701 -0.1286  0.4364 -0.0703
   62MOL   C22444266   5.722   5.310   4.603  0.1977  0.2777 -0.5898
   62MOL   O22544267   5.774   5.413   4.556  0.3466  0.0435  0.5104
   62MOL   N22644268   5.751   5.188   4.558  0.5692 -0.2406  0.2067
   62MOL   C22744269   5.833   5.155   4.443 -0.4748 -0.0758  0.1542
   62MOL   C22844270   5.781   5.038   4.351  0.5685 -0.1223  0.7524
   62MOL   C22944271   5.884   4.980   4.265 -0.7361 -0.1082  0.3855
   62MOL   C23044272   5.843   4.850   4.186  0.2938 -0.1549 -0.5820
   62MOL   C23144273   5.923   4.826   4.066 -0.9184  0.7646  0.0821
   62MOL   C23244274   5.913   4.691   3.996  0.2191 -0.0326  0.6912
   62MOL   N23344275   5.783   4.655   3.970  0.7577 -0.2356 -0.1808
   62MOL   C23444276   5.578   5.219   4.798 -0.1754  0.0674 -0.0994
   62MOL   C23544277   5.472   5.231   4.891 -0.1377  0.3605  0.4888
   62MOL   H23644278   5.341   5.523   4.759 -1.0559 -1.4149  1.7327
   62MOL   H23744279   5.553   5.510   4.616 -0.1017 -1.8710 -2.1127
   62MOL   H23844280   5.723   5.107   4.611 -1.0047  0.6109  0.7117
   62MOL   H23944281   5.861   5.240   4.380  1.7710 -0.8642  0.0318
   62MOL   H24044282   5.925   5.121   4.492 -0.9515 -2.3935 -0.4790
   62MOL   H24144283   5.695   5.073   4.292  0.3306  0.2230  1.3016
   62MOL   H24244284   5.747   4.960   4.419  3.0487 -0.7130  1.3281
   62MOL   H24344285   5.908   5.048   4.183  0.7902 -2.3681 -1.1061
   62MOL   H24444286   5.979   4.970   4.318 -0.7799  0.4958  0.5860
   62MOL   H24544287   5.736   4.853   4.167 -0.6617 -0.5337  4.0676
   62MOL   H24644288   5.839   4.770   4.260  2.0189  0.9959  0.8114
   62MOL   H24744289   6.028   4.837   4.094 -0.5592 -0.5419 -0.7216
   62MOL   H24844290   5.897   4.908   3.999 -1.5604  0.5945  0.1236
   62MOL   H24944291   5.965   4.702   3.901 -1.9678 -2.4417 -0.8444
   62MOL   H25044292   5.956   4.605   4.048 -2.2783 -1.4505  0.5026
   62MOL   H25144293   5.710   4.712   4.011  2.0857  1.7719 -0.4994
   62MOL   H25244294   5.645   5.136   4.814  0.8732  0.9731  0.3026
   62MOL   H25344295   5.455   5.161   4.972 -0.0692 -0.0459  0.1527
   62MOL   C25444296   5.752   4.550   3.896  0.9804  0.1788 -0.4655
   62MOL   O25544297   5.836   4.499   3.823 -0.5507 -0.3445  0.3079
   62MOL   C25644298   5.614   4.502   3.905  0.3336  0.2275 -0.0676
   62MOL   C25744299   5.543   4.501   4.029  0.4176 -0.0446 -0.4797
   62MOL   C25844300   5.416   4.448   4.043  0.2261 -0.3225  0.2712
   62MOL   C25944301   5.351   4.399   3.930 -0.8824  1.0578 -0.2050
   62MOL   C26044302   5.218   4.343   3.944 -0.2917  0.2112  0.2628
   62MOL   O26144303   5.190   4.240   3.884 -0.6788 -0.2172  0.4270
   62MOL   N26244304   5.132   4.411   4.022  0.1237  0.6204  0.7370
   62MOL   C26344305   4.994   4.372   4.027 -0.3521 -0.2209 -0.2509
   62MOL   C26444306   4.925   4.432   3.909  0.4371  0.0398  0.3776
   62MOL   C26544307   4.774   4.442   3.924 -0.5051  0.3041  0.5585
   62MOL   C26644308   4.724   4.516   3.801  0.3211 -0.8224  0.0798
   62MOL   C26744309   4.601   4.609   3.819 -0.0013 -0.0097 -0.1898
   62MOL   C26844310   4.577   4.700   3.697 -0.4272  0.2364 -0.7747
   62MOL   N26944311   4.466   4.794   3.709 -0.0453 -0.2814 -0.0898
   62MOL   C27044312   5.414   4.402   3.806 -0.8860  0.0341  0.0508
   62MOL   C27144313   5.543   4.455   3.790 -0.1185  0.2483  0.4623
   62MOL   H27244314   5.582   4.541   4.122  0.8627  0.5924 -0.9335
   62MOL   H27344315   5.361   4.433   4.135 -1.5660 -0.6060 -0.8134
   62MOL   H27444316   5.164   4.493   4.071  0.8606  1.6392 -1.4428
   62MOL   H27544317   4.981   4.267   4.056  1.1982 -0.7293 -1.3321
   62MOL   H27644318   4.965   4.422   4.120 -0.2780 -0.3589 -0.1526
   62MOL   H27744319   4.960   4.385   3.817  0.6449 -0.5017  0.7347
   62MOL   H27844320   4.962   4.534   3.902  0.8014  0.0108  1.6954
   62MOL   H27944321   4.734   4.344   3.951 -0.4198  0.1915  0.2787
   62MOL   H28044322   4.764   4.508   4.011  1.4838  0.6747  0.5223
   62MOL   H28144323   4.705   4.443   3.722 -0.6754 -0.9546  0.4446
   62MOL   H28244324   4.799   4.569   3.742 -0.2876  0.1915  0.1955
   62MOL   H28344325   4.626   4.663   3.911 -1.8405 -1.8123  1.4143
   62MOL   H28444326   4.515   4.544   3.837 -0.3575  0.4164 -0.3376
   62MOL   H28544327   4.658   4.771   3.683 -1.5427  1.4591 -1.1104
   62MOL   H28644328   4.562   4.639   3.607 -0.6232  0.3329 -0.8069
   62MOL   H28744329   4.433   4.801   3.804 -0.7992 -0.0876 -0.3554
   62MOL   H28844330   5.363   4.359   3.720  0.7657  0.9198 -1.4088
   62MOL   H28944331   5.592   4.460   3.694  2.5812  3.3374  1.8659
   62MOL   C29044332   4.391   4.855   3.618  0.7969 -0.3679 -0.4031
   62MOL   O29144333   4.419   4.856   3.499 -0.0215 -0.0395 -0.1367
   62MOL   C29244334   4.277   4.943   3.673 -0.0216 -0.2203  0.3523
   62MOL   C29344335   4.236   5.051   3.591 -0.0685 -0.1424  0.9275
   62MOL   C29444336   4.131   5.139   3.631 -0.1824 -0.1822 -0.4019
   62MOL   C29544337   4.064   5.110   3.750  0.3752  0.0539  0.4409
   62MOL   C29644338   3.957   5.197   3.811  0.3774 -0.6305 -0.1358
   62MOL   O29744339   3.924   5.191   3.929  0.4596 -0.5331  0.7475
   62MOL   N29844340   3.890   5.275   3.726  0.1900 -0.6162 -0.3492
   62MOL   C29944341   3.794   5.371   3.758  0.4459 -0.5487  0.1046
   62MOL   C30044342   3.737   5.442   3.636 -0.7113 -0.9423  0.2418
   62MOL   C30144343   3.832   5.541   3.564 -0.7371 -0.3871 -0.7121
   62MOL   C30244344   3.783   5.586   3.427  0.5475  0.4234  0.4244
   62MOL   C30344345   3.887   5.660   3.352  0.4181 -0.1069  0.5363
   62MOL   C30444346   4.006   5.579   3.297  0.0304 -0.5326  0.2483
   62MOL   N30544347   3.987   5.462   3.205 -0.0743  0.4118  0.9433
   62MOL   C30644348   4.110   5.008   3.832  0.0552 -0.5737  0.0668
   62MOL   C30744349   4.217   4.925   3.796 -0.1008  0.3519 -0.0323
   62MOL   H30844350   4.286   5.071   3.498  3.4706 -2.2447  2.2389
   62MOL   H30944351   4.099   5.217   3.564 -0.7211  0.8833  1.0839
   62MOL   H31044352   3.920   5.268   3.630  0.2084  1.0167 -0.4763
   62MOL   H31144353   3.716   5.322   3.817  1.2091 -0.8662  0.8556
   62MOL   H31244354   3.830   5.440   3.835  0.9557 -0.2531 -0.3935
   62MOL   H31344355   3.647   5.499   3.663 -1.5543 -3.2699  2.6643
   62MOL   H31444356   3.705   5.366   3.566 -2.6659 -0.9805  1.1290
   62MOL   H31544357   3.857   5.630   3.621  1.5088 -2.5506  1.8890
   62MOL   H31644358   3.919   5.475   3.560 -0.6420 -0.2021 -1.6157
   62MOL   H31744359   3.684   5.631   3.432 -0.4489 -1.3925 -2.1720
   62MOL   H31844360   3.756   5.504   3.361 -1.1311  0.1717  1.3835
   62MOL   H31944361   3.911   5.757   3.396 -0.9425  0.4439  0.0955
   62MOL   H32044362   3.832   5.690   3.262  0.8305 -1.0732 -0.0519
   62MOL   H32144363   4.073   5.655   3.256 -1.2330  0.0017 -0.8585
   62MOL   H32244364   4.068   5.537   3.376  2.5570  1.1710 -0.7449
   62MOL   H32344365   3.982   5.486   3.107  0.6851  1.4793  1.1623
   62MOL   H32444366   4.058   5.001   3.926  0.0872  0.7272  0.1868
   62MOL   H32544367   4.249   4.849   3.865  0.3613  1.0347  0.5111
   62MOL   C32644368   3.995   5.333   3.238  0.3539 -0.5385 -0.1032
   62MOL   O32744369   4.007   5.293   3.356  0.2200 -0.3375  0.7568
   62MOL   C32844370   3.981   5.236   3.132 -0.0977  0.6196 -0.4943
   62MOL   C32944371   4.013   5.276   2.997 -0.4390 -0.4684 -0.0103
   62MOL   C33044372   4.013   5.182   2.895  0.5260 -0.6253  0.0993
   62MOL   C33144373   3.979   5.050   2.917 -0.3729 -0.2653  0.4439
   62MOL   C33244374   3.987   4.957   2.802  0.0254 -0.2189 -0.5035
   62MOL   O33344375   3.975   4.997   2.685  0.4504 -0.3611 -0.1628
   62MOL   N33444376   4.000   4.828   2.831 -0.3219  0.0682 -0.1680
   62MOL   C33544377   4.008   4.725   2.732  1.0929 -0.2206 -0.6318
   62MOL   C33644378   3.990   4.579   2.789 -0.0214 -0.6751  0.7662
   62MOL   C33744379   3.989   4.487   2.663  0.4472 -0.0421 -0.2448
   62MOL   C33844380   3.940   4.352   2.694  0.3900 -0.0048  0.1973
   62MOL   C33944381   3.950   4.265   2.560  0.0478 -0.9750  0.9504
   62MOL   C34044382   3.916   4.116   2.582  0.4183 -0.1691  0.4171
   62MOL   N34144383   3.773   4.095   2.601  0.1359  0.4066 -0.0260
   62MOL   C34244384   3.937   5.011   3.047 -0.8099  0.1928  0.3481
   62MOL   C34344385   3.943   5.101   3.156  0.2418  0.3906  0.0740
   62MOL   H34444386   4.044   5.375   2.967 -2.8603  0.8899  1.7805
   62MOL   H34544387   4.033   5.212   2.793  0.9499  0.5034  0.5067
   62MOL   H34644388   4.013   4.793   2.925  1.8943 -1.5067 -1.0108
   62MOL   H34744389   3.934   4.735   2.652  2.3321 -0.7147 -1.8586
   62MOL   H34844390   4.106   4.733   2.684  1.4559  0.3744  0.2043
   62MOL   H34944391   3.898   4.566   2.846  1.0789 -4.0303  1.8762
   62MOL   H35044392   4.067   4.553   2.861 -0.2185 -0.0147  1.2227
   62MOL   H35144393   3.919   4.531   2.592 -1.2131 -2.0028  0.1440
   62MOL   H35244394   4.088   4.488   2.616  0.4807  0.5974 -0.1687
   62MOL   H35344395   3.839   4.357   2.735  0.1275 -2.8137  0.0103
   62MOL   H35444396   4.009   4.318   2.770 -0.2015 -1.0382  0.2850
   62MOL   H35544397   4.051   4.261   2.520 -0.2044  2.7178 -0.2351
   62MOL   H35644398   3.884   4.300   2.480  1.6648 -0.5395 -0.2194
   62MOL   H35744399   3.925   4.060   2.489 -1.5475  0.9856 -0.5047
   62MOL   H35844400   3.978   4.081   2.665 -0.9844  0.5799  1.8021
   62MOL   H35944401   3.712   4.157   2.549 -1.1984 -0.4146  0.5082
   62MOL   H36044402   3.909   4.908   3.065 -0.8695  0.0094 -0.7141
   62MOL   H36144403   3.901   5.076   3.253  0.0250 -0.0321 -0.1274
   62MOL   C36244404   3.716   4.006   2.688 -1.1987 -0.4553  0.4484
   62MOL   O36344405   3.782   3.940   2.768  0.4261 -0.3657 -0.1222
   62MOL   C36444406   3.566   3.992   2.692  0.4759  0.9066 -0.2960
   62MOL   C36544407   3.491   3.977   2.574  0.7511  0.6906 -0.2082
   62MOL   C36644408   3.347   3.955   2.579  0.2406 -0.2121 -0.0505
   62MOL   C36744409   3.284   3.944   2.700  0.2409  0.1155 -0.3050
   62MOL   C36844410   3.142   3.901   2.706  0.2795  0.1956  0.2011
   62MOL   O36944411   3.074   3.887   2.601  0.1632 -0.0539 -0.2642
   62MOL   N37044412   3.082   3.889   2.825 -0.2681 -0.3300 -0.0733
   62MOL   C37144413   2.946   3.878   2.857 -0.0988 -0.3870  0.2764
   62MOL   C37244414   2.881   4.018   2.885  0.0605 -0.1805 -0.0500
   62MOL   C37344415   2.941   4.116   2.990  0.6991 -0.9194 -0.2717
   62MOL   C37444416   2.829   4.195   3.068  0.5972  0.7754  0.7658
   62MOL   C37544417   2.878   4.287   3.176  0.0704 -0.2094  0.1757
   62MOL   C37644418   2.822   4.238   3.309 -0.2940 -0.3438 -0.7551
   62MOL   N37744419   2.872   4.108   3.341  0.7568 -0.0641 -0.0616
   62MOL   C37844420   3.363   3.972   2.816 -0.4243  0.4082 -1.0256
   62MOL   C37944421   3.502   3.988   2.815  0.5997  1.1440 -0.0452
   62MOL   H38044422   3.558   3.972   2.489  1.9845 -1.0013  0.8285
   62MOL   H38144423   3.292   3.958   2.486 -1.9900  2.1798  1.2947
   62MOL   H38244424   3.139   3.911   2.905 -0.4792  2.0824 -0.5477
   62MOL   H38344425   2.909   3.829   2.767 -0.3728  0.2082  0.0623
   62MOL   H38444426   2.937   3.811   2.943 -0.8313  2.4622  2.4818
   62MOL   H38544427   2.778   4.001   2.917  0.7213 -4.2435  0.2163
   62MOL   H38644428   2.863   4.065   2.788  0.3559  0.1041  0.0310
   62MOL   H38744429   2.991   4.062   3.070 -0.9502 -0.8492  0.8504
   62MOL   H38844430   3.016   4.186   2.955 -0.8026  0.6097 -0.5437
   62MOL   H38944431   2.742   4.134   3.092  1.0964 -0.7624 -1.1571
   62MOL   H39044432   2.791   4.253   2.984 -0.2013 -3.0029 -1.5810
   62MOL   H39144433   2.852   4.392   3.162  1.1015  0.1282  0.7475
   62MOL   H39244434   2.987   4.288   3.172  0.0421 -0.8473 -0.8582
   62MOL   H39344435   2.822   4.308   3.393 -1.0737  0.1851 -1.1869
   62MOL   H39444436   2.714   4.230   3.305 -0.3020  0.0358 -1.4429
   62MOL   H39544437   2.937   4.060   3.280  0.7172 -1.9644  1.3578
   62MOL   H39644438   3.311   3.960   2.910  1.2861  1.0497  0.0397
   62MOL   H39744439   3.558   3.999   2.907  0.8689  0.1654 -0.0872
   62MOL   C39844440   2.791   4.019   3.401 -0.1457  0.5426  0.4319
   62MOL   O39944441   2.696   4.043   3.476  0.8779 -0.3246 -0.1857
   62MOL   C40044442   2.814   3.870   3.372  0.2266 -0.6903 -0.1893
   62MOL   C40144443   2.804   3.778   3.481  0.3910 -0.0274  0.2802
   62MOL   C40244444   2.834   3.641   3.453  0.5657  0.1746 -0.6236
   62MOL   C40344445   2.884   3.598   3.325  0.2147 -0.1065 -0.4927
   62MOL   C40444446   2.922   3.456   3.295  0.3334  0.3105 -0.2673
   62MOL   O40544447   2.869   3.366   3.358  0.4367  0.4044 -0.0313
   62MOL   N40644448   3.019   3.428   3.204 -0.8038 -0.4245 -0.1483
   62MOL   C40744449   3.085   3.307   3.185 -0.5568 -0.4916 -0.5051
   62MOL   C40844450   3.230   3.330   3.228  0.6506  0.3225  0.7194
   62MOL   C40944451   3.248   3.334   3.383  0.5985  0.1057  0.4359
   62MOL   C41044452   3.390   3.381   3.429 -0.5118 -0.5513  0.2097
   62MOL   C41144453   3.420   3.380   3.585 -0.1808  0.6692  0.0412
   62MOL   C41244454   3.328   3.466   3.674 -0.0086  0.7353 -0.1103
   62MOL   N41344455   3.299   3.603   3.631  0.4336 -0.5727  0.5965
   62MOL   C41444456   2.890   3.694   3.219 -0.3566 -0.8527 -0.2624
   62MOL   C41544457   2.854   3.830   3.245 -0.1685  0.0006 -0.1563
   62MOL   H41644458   2.781   3.804   3.583  1.5400  1.6787  0.1408
   62MOL   H41744459   2.820   3.567   3.531 -0.3914  0.9847 -0.0041
   62MOL   H41844460   3.055   3.508   3.155 -0.7242 -0.6675 -0.4841
   62MOL   H41944461   3.040   3.224   3.240  0.0608 -0.5083 -0.0148
   62MOL   H42044462   3.083   3.273   3.082 -0.0610 -2.7022  0.1984
   62MOL   H42144463   3.265   3.416   3.171  2.2532 -0.7833 -0.0202
   62MOL   H42244464   3.290   3.243   3.200  0.2819 -0.0908  1.2161
   62MOL   H42344465   3.174   3.403   3.423  1.6737  0.0544  2.5891
   62MOL   H42444466   3.238   3.234   3.424  1.7116 -0.6146 -1.0380
   62MOL   H42544467   3.398   3.479   3.382  0.2165 -0.8219 -0.2336
   62MOL   H42644468   3.460   3.314   3.381 -2.5384 -1.1834 -1.9460
   62MOL   H42744469   3.520   3.419   3.604  0.0452 -0.0928  0.4101
   62MOL   H42844470   3.417   3.277   3.619  2.1980  0.1510 -1.2434
   62MOL   H42944471   3.232   3.421   3.698 -0.5359  1.0185 -1.6485
   62MOL   H43044472   3.380   3.462   3.770 -2.4538  0.4464  1.2251
   62MOL   H43144473   3.212   3.613   3.581  1.1681  0.6083 -0.4883
   62MOL   H43244474   2.913   3.664   3.118  4.1051 -1.6290  0.8869
   62MOL   H43344475   2.869   3.898   3.163  1.4534  0.4388  0.4927
   62MOL   C43444476   3.397   3.699   3.633  0.4589  0.3760 -0.1374
   62MOL   O43544477   3.504   3.683   3.699  0.4491  0.1229 -0.9552
   62MOL   C43644478   3.381   3.824   3.552  0.9974  0.0820  0.1385
   62MOL   C43744479   3.250   3.852   3.501 -0.1979  0.3170 -0.2803
   62MOL   C43844480   3.224   3.973   3.437  0.3873  0.4546 -0.1837
   62MOL   C43944481   3.327   4.068   3.413  0.3683  0.4424 -0.2625
   62MOL   C44044482   3.296   4.193   3.343  0.6265 -0.6110 -0.5844
   62MOL   O44144483   3.214   4.186   3.250 -0.5684 -0.2629  0.3429
   62MOL   N44244484   3.337   4.305   3.404 -0.3065  0.5272  0.1424
   62MOL   C44344485   3.282   4.439   3.387 -0.0972  0.8045 -0.4153
   62MOL   C44444486   3.392   4.545   3.396  0.1946  0.2038 -0.6114
   62MOL   C44544487   3.497   4.526   3.511 -0.2200 -0.7068  1.5172
   62MOL   C44644488   3.439   4.502   3.655  0.4583 -0.1576  0.0308
   62MOL   C44744489   3.367   4.624   3.697  0.4437  0.0544 -0.0850
   62MOL   C44844490   3.282   4.618   3.829  0.4430  0.6011  0.0922
   62MOL   N44944491   3.178   4.512   3.816  0.7902 -0.0775 -0.0891
   62MOL   C45044492   3.461   4.036   3.453 -0.7064 -0.4064 -0.0050
   62MOL   C45144493   3.484   3.916   3.526 -0.3908  0.4555  0.3258
   62MOL   H45244494   3.172   3.780   3.519  1.7056 -1.4454  1.2095
   62MOL   H45344495   3.120   3.982   3.408 -0.4695 -1.7389  1.9724
   62MOL   H45444496   3.381   4.288   3.494  0.1907  0.8631 -0.0322
   62MOL   H45544497   3.231   4.457   3.292  0.3377 -0.8400 -0.9775
   62MOL   H45644498   3.205   4.449   3.463 -0.2369 -1.0770 -0.2742
   62MOL   H45744499   3.348   4.643   3.414 -0.7933 -0.4004  0.3809
   62MOL   H45844500   3.457   4.561   3.310 -1.7812 -4.3560 -3.1597
   62MOL   H45944501   3.563   4.444   3.484 -1.2075 -0.8646 -0.4675
   62MOL   H46044502   3.571   4.605   3.507  0.4125 -1.3892 -0.6479
   62MOL   H46144503   3.517   4.492   3.731  1.4811  0.0326 -0.9773
   62MOL   H46244504   3.378   4.412   3.663 -1.0698  1.1161  3.0555
   62MOL   H46344505   3.295   4.651   3.620  1.9597  0.2455 -1.4597
   62MOL   H46444506   3.432   4.710   3.709  0.1447  0.1769  0.7044
   62MOL   H46544507   3.342   4.590   3.916 -1.9032 -1.4085  1.1543
   62MOL   H46644508   3.237   4.717   3.831 -0.6638  0.1514 -1.4056
   62MOL   H46744509   3.197   4.421   3.854 -2.6605 -0.6479  0.4413
   62MOL   H46844510   3.545   4.103   3.438 -0.8110 -0.0135  1.1304
   62MOL   H46944511   3.583   3.903   3.568 -0.2469 -2.8373 -0.9239
   62MOL   C47044512   3.054   4.527   3.767  0.8083 -0.3554 -0.3974
   62MOL   O47144513   3.018   4.626   3.703 -0.2430  0.2435 -0.4169
   62MOL   C47244514   2.954   4.414   3.792  0.5697 -0.2962  0.1205
   62MOL   C47344515   2.939   4.363   3.918  0.4821  0.4364  0.1004
   62MOL   C47444516   2.828   4.269   3.937 -0.4759  0.3636 -0.4609
   62MOL   C47544517   2.752   4.224   3.832 -0.4886  0.9166 -0.8999
   62MOL   C47644518   2.640   4.132   3.858  0.0302 -0.4517 -0.0580
   62MOL   O47744519   2.579   4.145   3.965  0.2901 -0.1607  0.3476
   62MOL   N47844520   2.618   4.036   3.774 -0.1143 -0.0159 -0.4058
   62MOL   C47944521   2.519   3.930   3.800  0.0050  0.8211  0.5207
   62MOL   C48044522   2.385   3.958   3.734 -0.2362 -0.3318 -0.6033
   62MOL   C48144523   2.377   4.013   3.592 -0.9299  0.2703  0.1162
   62MOL   C48244524   2.241   4.017   3.523  0.4003  0.3946 -0.2715
   62MOL   C48344525   2.225   4.139   3.420 -0.1679  0.1238  0.3300
   62MOL   C48444526   2.308   4.123   3.290 -0.0461 -0.5985 -0.3899
   62MOL   N48544527   2.329   3.984   3.247 -0.2787 -0.2451 -1.0792
   62MOL   C48644528   2.768   4.269   3.703 -0.3392 -0.4449  0.4512
   62MOL   C48744529   2.876   4.366   3.687 -0.1744  0.3650 -0.3755
   62MOL   H48844530   2.985   4.407   4.005 -0.7484 -0.6689  1.3482
   62MOL   H48944531   2.801   4.240   4.037 -0.3258  1.3008 -0.1390
   62MOL   H49044532   2.671   4.028   3.689  0.1204 -1.5544 -0.1385
   62MOL   H49144533   2.572   3.850   3.748 -0.8376 -0.2221  1.2490
   62MOL   H49244534   2.513   3.909   3.907 -0.8321  0.4727  0.4086
   62MOL   H49344535   2.340   4.033   3.800  2.1982  0.4576  0.2200
   62MOL   H49444536   2.320   3.871   3.744  0.7190 -1.0266 -0.3108
   62MOL   H49544537   2.427   4.110   3.591  2.3886 -1.3609  0.0628
   62MOL   H49644538   2.448   3.953   3.536  0.4597 -0.2566  2.3893
   62MOL   H49744539   2.174   4.024   3.609 -1.1498 -0.9737 -1.3493
   62MOL   H49844540   2.215   3.923   3.474 -1.9484  0.8901 -0.0379
   62MOL   H49944541   2.254   4.228   3.475 -0.9976 -0.2287  1.3534
   62MOL   H50044542   2.122   4.162   3.392 -0.2878  1.1148  1.5387
   62MOL   H50144543   2.276   4.184   3.206  1.6383  1.0386  0.1370
   62MOL   H50244544   2.402   4.168   3.319 -1.3193  2.6420 -1.1158
   62MOL   H50344545   2.267   3.912   3.282  1.0626  0.0072  1.9491
   62MOL   H50444546   2.702   4.254   3.619  1.5419 -0.7333 -0.9802
   62MOL   H50544547   2.880   4.412   3.590  0.8514  1.8353  0.3409
   62MOL   C50644548   2.433   3.935   3.171 -0.7423  0.1851 -0.0791
   62MOL   O50744549   2.520   4.019   3.126  0.5886 -0.0097 -0.3451
   62MOL   C50844550   2.423   3.794   3.131  0.0455 -0.2527  0.0370
   62MOL   C50944551   2.300   3.724   3.149 -0.3203 -0.0631 -0.2425
   62MOL   C51044552   2.290   3.586   3.128 -0.3379  0.3846 -0.6646
   62MOL   C51144553   2.399   3.514   3.072  0.0771  0.1320 -0.4567
   62MOL   C51244554   2.388   3.364   3.053 -0.8462  0.1158  0.2598
   62MOL   O51344555   2.331   3.286   3.130 -0.6760 -0.1056 -0.0631
   62MOL   N51444556   2.446   3.324   2.944  0.2599 -0.6616  0.3226
   62MOL   C51544557   2.451   3.190   2.896 -0.2120 -0.1046 -0.6341
   62MOL   C51644558   2.510   3.196   2.754  0.2216  0.0528  0.2436
   62MOL   C51744559   2.520   3.050   2.689 -0.3510 -0.9510  0.1999
   62MOL   C51844560   2.539   3.043   2.542 -0.0525 -0.3997 -0.5639
   62MOL   C51944561   2.557   2.898   2.496  0.3890  0.0034  0.2846
   62MOL   C52044562   2.572   2.893   2.346  0.2069 -0.1689 -0.4057
   62MOL   N52144563   2.588   2.757   2.303  0.5328  0.5727 -0.0548
   62MOL   C52244564   2.524   3.583   3.052  0.7554  0.5694  0.0134
   62MOL   C52344565   2.531   3.717   3.083  0.0726  0.3680 -0.4418
   62MOL   H52444566   2.208   3.774   3.174 -0.9895 -2.1028  1.5351
   62MOL   H52544567   2.195   3.536   3.143 -1.5818  2.5897 -0.9881
   62MOL   H52644568   2.475   3.406   2.893  1.8149 -1.8110 -0.6649
   62MOL   H52744569   2.520   3.140   2.964 -1.0211  1.9149  1.8048
   62MOL   H52844570   2.349   3.151   2.898  0.1824 -1.1655 -1.0765
   62MOL   H52944571   2.613   3.232   2.760  0.5684 -0.8403 -0.2918
   62MOL   H53044572   2.442   3.258   2.696  1.7964  1.9710  0.3942
   62MOL   H53144573   2.595   3.006   2.755 -1.5145  0.8761  2.8366
   62MOL   H53244574   2.421   3.009   2.711 -1.4576  1.0171 -0.9689
   62MOL   H53344575   2.624   3.110   2.530  0.3370 -0.8186 -0.1406
   62MOL   H53444576   2.454   3.094   2.496 -0.7771  0.8823  2.0520
   62MOL   H53544577   2.476   2.831   2.527  2.6948 -2.6278  0.8516
   62MOL   H53644578   2.648   2.857   2.540  1.5123 -0.4420 -2.3398
   62MOL   H53744579   2.484   2.944   2.306 -0.2321 -0.1336  0.6009
   62MOL   H53844580   2.650   2.959   2.309 -0.3303  0.2370 -0.8233
   62MOL   H53944581   2.562   2.677   2.358 -1.3851  1.3123  0.1565
   62MOL   H54044582   2.609   3.529   3.013  1.5396  1.3339  0.6650
   62MOL   H54144583   2.630   3.757   3.066  1.0192 -1.1863  1.3011
   62MOL   C54244584   2.618   2.711   2.180 -0.3106  0.3603 -0.3433
   62MOL   O54344585   2.630   2.779   2.081  0.0004 -0.0791 -0.6608
   62MOL   C54444586   2.616   2.559   2.160  0.4482  0.2608  0.2531
   62MOL   C54544587   2.649   2.475   2.273  0.4500 -0.9107  0.0042
   62MOL   C54644588   2.670   2.337   2.253  0.3189  0.0586 -0.8986
   62MOL   C54744589   2.671   2.281   2.127 -0.5054  0.3037 -0.0138
   62MOL   C54844590   2.701   2.136   2.114 -0.2078  0.5650  0.1775
   62MOL   O54944591   2.671   2.052   2.200 -0.0598  0.9674 -0.3165
   62MOL   N55044592   2.774   2.099   2.008 -0.4929  0.7422  0.3953
   62MOL   C55144593   2.790   1.971   1.960 -0.2698 -0.0067  0.9829
   62MOL   C55244594   2.921   1.907   2.006 -0.5864 -0.0574  0.0178
   62MOL   C55344595   3.044   1.987   1.974 -0.2493 -0.0445  0.8075
   62MOL   C55444596   3.157   1.938   2.067  0.3814  0.2902  0.6329
   62MOL   C55544597   3.256   2.048   2.108  0.0628 -0.6801 -0.4221
   62MOL   C55644598   3.353   2.011   2.223 -0.4142 -0.4365  1.0274
   62MOL   N55744599   3.422   2.127   2.269  0.3633 -0.7525  0.5534
   62MOL   C55844600   2.638   2.362   2.019  0.1109 -0.6368 -0.1809
   62MOL   C55944601   2.614   2.499   2.028  0.5393  0.2885 -0.6152
   62MOL   H56044602   2.675   2.523   2.365  1.7310  0.0236 -0.8259
   62MOL   H56144603   2.700   2.283   2.341 -1.8046 -1.4470 -1.0444
   62MOL   H56244604   2.808   2.179   1.957  1.7141 -0.2319  0.2939
   62MOL   H56344605   2.711   1.905   1.995 -1.9668  1.3555 -0.2142
   62MOL   H56444606   2.775   1.966   1.852 -1.6093  1.4764  1.0826
   62MOL   H56544607   2.945   1.806   1.973 -2.2619 -0.5845  0.3530
   62MOL   H56644608   2.923   1.894   2.115 -0.5600 -0.3215 -0.0139
   62MOL   H56744609   3.077   1.976   1.870 -0.3082  1.2008  0.6452
   62MOL   H56844610   3.039   2.094   1.990 -0.7966  0.4319 -2.2232
   62MOL   H56944611   3.218   1.863   2.016  1.2344  0.9389  0.6804
   62MOL   H57044612   3.115   1.913   2.164 -0.3418 -0.6837  0.0788
   62MOL   H57144613   3.205   2.142   2.128 -1.0733 -1.8450  2.3849
   62MOL   H57244614   3.312   2.072   2.017  0.8559  2.1817  0.7771
   62MOL   H57344615   3.296   1.971   2.307 -2.3362 -3.1278 -1.4427
   62MOL   H57444616   3.439   1.950   2.194 -0.8340  0.2780 -1.8638
   62MOL   H57544617   3.413   2.216   2.223  0.0054 -1.3927 -0.6359
   62MOL   H57644618   2.631   2.322   1.919 -0.1873  0.7960 -0.7451
   62MOL   H57744619   2.584   2.558   1.943 -1.1227  2.1085  1.1743
   62MOL   C57844620   3.488   2.124   2.381 -0.4642  0.5697  0.0672
   62MOL   O57944621   3.491   2.023   2.450  0.0606  0.0861  0.4962
   62MOL   C58044622   3.554   2.251   2.414 -0.7541 -0.0970  0.1294
   62MOL   C58144623   3.617   2.317   2.310 -0.1740  0.2255  0.3890
   62MOL   C58244624   3.664   2.447   2.328 -0.2877  0.3873 -0.4866
   62MOL   C58344625   3.650   2.506   2.454 -1.3507  0.3815 -0.1776
   62MOL   C58444626   3.691   2.650   2.472 -0.2103 -0.4033  0.2706
   62MOL   O58544627   3.750   2.698   2.568 -0.2311 -0.3651 -0.1258
   62MOL   N58644628   3.664   2.725   2.365  0.3455  0.1957 -0.4190
   62MOL   C58744629   3.691   2.873   2.350  0.2884  0.4769  0.2304
   62MOL   C58844630   3.844   2.900   2.335 -0.8838  0.1907 -0.4761
   62MOL   C58944631   3.908   2.843   2.207  0.3447  0.5177 -0.0927
   62MOL   C59044632   4.041   2.899   2.157 -0.7452  0.5263  0.0950
   62MOL   C59144633   4.038   3.048   2.105 -0.1308  0.1828  0.7633
   62MOL   C59244634   3.960   3.062   1.973 -0.2603 -0.3089 -0.5727
   62MOL   N59344635   3.948   3.196   1.930 -0.3176 -0.0990 -0.1874
   62MOL   C59444636   3.583   2.441   2.560 -0.0883  0.0969 -0.3804
   62MOL   C59544637   3.552   2.304   2.543 -0.5844 -1.4279  0.2994
   62MOL   H59644638   3.639   2.273   2.214  1.8856  2.7150 -0.3301
   62MOL   H59744639   3.725   2.507   2.263  3.2593  0.8296  3.0248
   62MOL   H59844640   3.650   2.672   2.280 -0.3165  0.9729 -0.7960
   62MOL   H59944641   3.639   2.921   2.268 -0.9328  1.1469  1.3807
   62MOL   H60044642   3.656   2.909   2.447 -0.2143  0.5628  0.0151
   62MOL   H60144643   3.901   2.858   2.418 -0.8426  1.3309  0.0785
   62MOL   H60244644   3.850   3.008   2.346 -0.9546  0.3237 -1.6594
   62MOL   H60344645   3.928   2.739   2.236  0.6874  0.5134 -0.3399
   62MOL   H60444646   3.841   2.844   2.122  0.6543  1.9904 -0.3225
   62MOL   H60544647   4.069   2.834   2.074 -0.0406  0.4338  0.4055
   62MOL   H60644648   4.119   2.890   2.232  1.5038  2.5119 -1.9367
   62MOL   H60744649   4.140   3.078   2.079  0.2703 -3.0716 -1.8175
   62MOL   H60844650   3.998   3.106   2.188 -1.0782  1.0167 -0.2593
   62MOL   H60944651   3.995   2.994   1.895 -1.1352 -0.5257 -0.7821
   62MOL   H61044652   3.857   3.040   2.001  0.7657 -1.5339  2.5337
   62MOL   H61144653   3.903   3.258   1.995  0.7530  2.1108 -1.4878
   62MOL   H61244654   3.581   2.494   2.655  2.1042  1.2759 -0.9531
   62MOL   H61344655   3.512   2.256   2.631 -1.4144  0.0473  0.7479
   62MOL   C61444656   3.959   3.247   1.806 -0.4802  0.4584  0.1168
   62MOL   O61544657   4.012   3.176   1.710 -0.1558  0.0234 -0.2574
   62MOL   C61644658   3.906   3.383   1.786  0.1134 -0.3561 -0.3010
   62MOL   C61744659   3.893   3.462   1.900  0.2750 -0.1318  0.0068
   62MOL   C61844660   3.839   3.588   1.893 -0.2434  0.3000 -0.3065
   62MOL   C61944661   3.781   3.630   1.772  0.3913 -0.1275  0.6503
   62MOL   C62044662   3.708   3.764   1.753  0.8993  0.5533 -0.1809
   62MOL   O62144663   3.648   3.783   1.644 -0.1523 -0.3144  0.5259
   62MOL   N62244664   3.706   3.848   1.860  0.5660  0.5652  0.0076
   62MOL   C62344665   3.607   3.954   1.868 -0.0747 -0.0696 -0.2051
   62MOL   C62444666   3.642   4.071   1.769 -0.1377  0.1735 -0.3525
   62MOL   C62544667   3.557   4.196   1.796  0.3974 -0.1390  0.3003
   62MOL   C62644668   3.591   4.300   1.688 -0.1801 -0.5073  0.1387
   62MOL   C62744669   3.539   4.443   1.711 -0.4565 -0.1928 -0.2547
   62MOL   C62844670   3.392   4.461   1.679  0.1755 -0.9062 -0.4375
   62MOL   N62944671   3.359   4.607   1.689  0.1072  0.1167  0.2034
   62MOL   C63044672   3.804   3.554   1.657 -0.7427 -0.3574  0.0059
   62MOL   C63144673   3.870   3.427   1.660  0.5375 -0.2533 -0.4199
   62MOL   H63244674   3.919   3.425   1.998 -0.9810 -0.9584  0.0395
   62MOL   H63344675   3.815   3.636   1.986  3.7380  1.8770  0.0488
   62MOL   H63444676   3.752   3.817   1.944  1.8320 -0.0045 -0.8727
   62MOL   H63544677   3.510   3.919   1.834  0.4551  0.5416 -2.4299
   62MOL   H63644678   3.594   3.996   1.968 -1.2878 -0.1002 -0.3460
   62MOL   H63744679   3.631   4.029   1.669  0.9664  0.4487 -0.6041
   62MOL   H63844680   3.747   4.099   1.783  0.4899 -1.8917 -0.7527
   62MOL   H63944681   3.452   4.174   1.778  0.3235  0.8440 -0.4904
   62MOL   H64044682   3.568   4.237   1.896 -2.4164  0.7114  0.3045
   62MOL   H64144683   3.552   4.260   1.595  0.0390 -1.1278  0.3081
   62MOL   H64244684   3.699   4.302   1.678 -0.1511 -0.9908  0.3460
   62MOL   H64344685   3.593   4.504   1.638  2.7802 -1.3292  1.0769
   62MOL   H64444686   3.573   4.484   1.806 -2.7397  0.7428  0.1826
   62MOL   H64544687   3.366   4.431   1.577  1.7677 -1.9323 -0.5555
   62MOL   H64644688   3.340   4.399   1.753  0.9289 -0.8814  0.1175
   62MOL   H64744689   3.421   4.678   1.653 -0.7216  1.1306  0.7305
   62MOL   H64844690   3.773   3.583   1.558 -0.7046 -3.6696 -1.0050
   62MOL   H64944691   3.862   3.360   1.576 -0.4626  0.2841 -0.7631
   62MOL   C65044692   3.267   4.647   1.780  0.5555  0.1052  0.6504
   62MOL   O65144693   3.190   4.567   1.839  0.3297 -0.1015  0.4739
   62MOL   C65244694   3.254   4.796   1.795  0.1154 -0.0213 -0.9927
   62MOL   C65344695   3.348   4.885   1.731  0.2034 -0.0010  0.3176
   62MOL   C65444696   3.359   5.018   1.777 -0.0415  0.2859  0.3160
   62MOL   C65544697   3.261   5.073   1.864 -0.6785 -0.2929 -0.0437
   62MOL   C65644698   3.268   5.213   1.916 -0.3942 -0.0802 -0.4203
   62MOL   O65744699   3.180   5.254   1.988 -0.0505 -0.7264 -0.1281
   62MOL   N65844700   3.383   5.280   1.895 -0.0096 -0.2979 -0.4174
   62MOL   C65944701   3.402   5.423   1.922  0.1394  0.1479  0.2818
   62MOL   C66044702   3.546   5.456   1.868  1.0285  0.8684  0.3833
   62MOL   C66144703   3.547   5.491   1.718  0.2060  0.1055  0.1409
   62MOL   C66244704   3.671   5.442   1.636 -0.3735  0.1943  0.5953
   62MOL   C66344705   3.694   5.288   1.644  0.5835 -0.8848  0.0762
   62MOL   C66444706   3.808   5.246   1.550 -0.3232 -0.3634 -0.3018
   62MOL   N66544707   3.792   5.104   1.518 -0.0364 -0.0417  0.3119
   62MOL   C66644708   3.159   4.990   1.917 -0.0536 -0.2890  0.1353
   62MOL   C66744709   3.156   4.852   1.886  0.5375 -0.4894  0.4884
   62MOL   H66844710   3.411   4.858   1.648 -0.3021  2.2315 -0.8344
   62MOL   H66944711   3.436   5.084   1.742  0.3023  1.7448  3.6050
   62MOL   H67044712   3.459   5.229   1.855  1.1341  0.3914  0.8283
   62MOL   H67144713   3.319   5.480   1.879  0.3072  2.4882  2.9123
   62MOL   H67244714   3.391   5.442   2.029 -3.1204  1.1261 -0.1704
   62MOL   H67344715   3.616   5.376   1.894  1.4240  0.7732 -0.9043
   62MOL   H67444716   3.577   5.543   1.925  1.2863 -0.4173  2.2461
   62MOL   H67544717   3.477   5.432   1.659  1.3322  0.8957 -2.0417
   62MOL   H67644718   3.541   5.599   1.699  0.8923  0.1553  0.1837
   62MOL   H67744719   3.751   5.505   1.674 -0.0024  1.7266 -2.5115
   62MOL   H67844720   3.658   5.460   1.529 -0.2003 -1.2328  0.3225
   62MOL   H67944721   3.601   5.241   1.613 -0.6378 -0.6970  3.2232
   62MOL   H68044722   3.716   5.262   1.748  0.5206  0.9729  0.5730
   62MOL   H68144723   3.802   5.303   1.457 -2.7923 -1.7060 -1.0410
   62MOL   H68244724   3.906   5.259   1.594 -0.2330 -1.7494 -0.0582
   62MOL   H68344725   3.843   5.040   1.578  2.4664  0.5410 -1.1320
   62MOL   H68444726   3.084   5.031   1.983  0.8714 -0.3830  1.2632
   62MOL   H68544727   3.078   4.793   1.931 -1.7549  0.6782 -1.8511
   62MOL   C68644728   3.709   5.051   1.428  0.3054  0.4598 -0.0987
   62MOL   O68744729   3.647   5.127   1.348 -0.5639 -0.0402 -0.2868
   62MOL   C68844730   3.695   4.899   1.422 -0.7166  0.1158 -0.2696
   62MOL   C68944731   3.568   4.837   1.414  0.8370  0.0506 -0.0649
   62MOL   C69044732   3.552   4.698   1.384 -0.6019 -0.4792  0.2756
   62MOL   C69144733   3.670   4.617   1.369  0.0067 -0.6466  0.0166
   62MOL   C69244734   3.652   4.468   1.349  0.0375 -0.4168 -0.5426
   62MOL   O69344735   3.538   4.425   1.341  0.2095  0.3493 -0.1579
   62MOL   N69444736   3.758   4.397   1.344  0.2189 -0.0013 -0.4096
   62MOL   C69544737   3.764   4.264   1.288 -0.3508 -0.1070 -0.0663
   62MOL   C69644738   3.904   4.202   1.303 -0.2991 -0.4671 -0.0294
   62MOL   C69744739   4.010   4.264   1.204  0.2690  0.0311  0.0941
   62MOL   C69844740   4.148   4.207   1.227  0.0396 -0.8816 -0.2051
   62MOL   C69944741   4.240   4.250   1.115  0.0527 -0.2041  0.1717
   62MOL   C70044742   4.380   4.181   1.112 -0.6246  0.4808 -0.3584
   62MOL   N70144743   4.443   4.222   0.987 -0.0481 -0.3590  0.9444
   62MOL   C70244744   3.801   4.677   1.386 -0.1190  0.2882  0.8266
   62MOL   C70344745   3.810   4.813   1.415  0.2983 -0.0621  0.1556
   62MOL   H70444746   3.484   4.904   1.420 -0.1492 -1.3248  2.5578
   62MOL   H70544747   3.452   4.662   1.365 -0.4720 -0.1922 -1.0519
   62MOL   H70644748   3.850   4.438   1.358  0.4352  0.0851 -2.0326
   62MOL   H70744749   3.695   4.204   1.346  0.3765 -0.9009 -0.0072
   62MOL   H70844750   3.735   4.265   1.183  0.3464  0.8163 -0.2600
   62MOL   H70944751   3.890   4.095   1.292  0.7852 -0.4062 -2.1642
   62MOL   H71044752   3.944   4.219   1.404  0.8207  3.9642 -1.1087
   62MOL   H71144753   3.978   4.256   1.100 -2.9482  1.5601  0.9020
   62MOL   H71244754   4.011   4.373   1.215 -0.0895 -0.0029  0.4664
   62MOL   H71344755   4.152   4.098   1.230  0.4121 -0.8513  0.5265
   62MOL   H71444756   4.184   4.234   1.326  1.9336 -0.7323 -0.9109
   62MOL   H71544757   4.245   4.359   1.112 -2.8274 -0.0371 -0.3841
   62MOL   H71644758   4.183   4.223   1.026 -0.7116 -1.5666  1.0482
   62MOL   H71744759   4.442   4.190   1.202  0.6356 -2.4954 -0.8820
   62MOL   H71844760   4.364   4.073   1.109  0.7727  0.2858 -1.2785
   62MOL   H71944761   4.379   4.232   0.910  0.0221  1.4754  1.0843
   62MOL   H72044762   3.896   4.627   1.375 -0.2817  0.1627 -0.0284
   62MOL   H72144763   3.911   4.851   1.420  0.0355  0.8406 -1.1851
   62MOL   H72244764   4.509   4.152   0.958  0.4731  1.2538 -1.9426
   63MOL     C144765   4.733   5.815   5.090 -0.5560 -0.1815 -0.2966
   63MOL     O244766   4.830   5.794   5.164  0.0854 -0.2080 -0.4165
   63MOL     C344767   4.699   5.939   5.019  0.1842 -0.1006  0.3697
   63MOL     C444768   4.568   5.963   4.955  0.2693  0.5373  0.1926
   63MOL     C544769   4.534   6.084   4.893 -0.3135 -0.0583  0.1015
   63MOL     C644770   4.629   6.196   4.894  0.0473  0.2752 -0.5903
   63MOL     C744771   4.591   6.325   4.841  1.0376 -0.4252  0.5103
   63MOL     O844772   4.584   6.426   4.915  0.4850  0.0681 -0.0902
   63MOL     N944773   4.561   6.329   4.710  0.4096  0.6895  0.5649
   63MOL    C1044774   4.534   6.452   4.634 -0.8066  0.1242 -0.0887
   63MOL    C1144775   4.612   6.462   4.498 -0.3660 -0.1824  0.3371
   63MOL    C1244776   4.556   6.563   4.395 -0.6750 -0.1053  0.4658
   63MOL    C1344777   4.641   6.586   4.267  0.1717  0.1584 -0.0570
   63MOL    C1444778   4.567   6.679   4.178  0.4817  0.1336  0.4253
   63MOL    C1544779   4.652   6.739   4.072 -0.3814 -0.9087  0.5380
   63MOL    N1644780   4.715   6.641   3.981 -0.6845  0.1596 -0.2855
   63MOL    C1744781   4.755   6.170   4.956 -0.2024  0.2405  0.8080
   63MOL    C1844782   4.783   6.046   5.019  0.4589 -0.3139 -0.1499
   63MOL    H1944783   4.488   5.890   4.953  1.5765 -0.9321 -0.1035
   63MOL    H2044784   4.441   6.085   4.837  0.8450 -0.4653 -1.8786
   63MOL    H2144785   4.573   6.247   4.651  0.4015  1.3271 -0.3256
   63MOL    H2244786   4.425   6.464   4.631 -0.7033  1.7849  1.5445
   63MOL    H2344787   4.547   6.544   4.691  0.6798  0.2937 -0.6990
   63MOL    H2444788   4.625   6.363   4.454  0.2135 -0.3652  0.9147
   63MOL    H2544789   4.714   6.495   4.518 -0.7850 -0.5100  3.1591
   63MOL    H2644790   4.459   6.519   4.371 -0.9027  1.2839 -1.2816
   63MOL    H2744791   4.538   6.659   4.443  1.8977  0.4207  0.4638
   63MOL    H2844792   4.679   6.494   4.223  1.7468  0.6891  0.1260
   63MOL    H2944793   4.729   6.635   4.309 -0.8104  2.2978 -0.4274
   63MOL    H3044794   4.529   6.751   4.250 -2.8007 -0.1337 -0.9567
   63MOL    H3144795   4.481   6.636   4.127  0.1934  2.3868 -1.0837
   63MOL    H3244796   4.586   6.798   4.008  1.4954  1.3944  0.6485
   63MOL    H3344797   4.730   6.804   4.111 -0.1340 -1.7212  1.4086
   63MOL    H3444798   4.794   6.587   4.014 -1.1333  0.1413  0.7746
   63MOL    H3544799   4.829   6.246   4.972 -0.3345  0.6698 -0.5609
   63MOL    H3644800   4.875   6.045   5.076  0.1090  1.6089  0.4738
   63MOL    H3744801   4.677   5.724   5.073  0.5380 -1.5664  3.0624
   63MOL    C3844802   4.679   6.615   3.860  0.3682 -0.6045 -0.2801
   63MOL    O3944803   4.584   6.666   3.811  0.0294 -0.4523 -0.0913
   63MOL    C4044804   4.766   6.522   3.785  0.3483  0.7415 -0.1449
   63MOL    C4144805   4.786   6.389   3.837 -0.5101 -0.7953 -0.1414
   63MOL    C4244806   4.866   6.301   3.767 -0.0076 -0.0581 -0.4934
   63MOL    C4344807   4.931   6.344   3.654 -0.5963 -0.1048 -0.2296
   63MOL    C4444808   5.016   6.246   3.576  0.0575 -0.5239  0.0360
   63MOL    O4544809   5.109   6.281   3.503 -0.2869 -0.8641  0.5143
   63MOL    N4644810   4.983   6.116   3.578  0.3739 -0.3974 -0.4769
   63MOL    C4744811   5.047   6.021   3.494 -0.4324 -0.2522 -0.1647
   63MOL    C4844812   4.995   5.890   3.536 -0.3719  0.6466  0.1220
   63MOL    C4944813   5.054   5.767   3.459 -0.1130 -0.5641 -0.3366
   63MOL    C5044814   4.980   5.638   3.483 -0.5785  0.7544 -0.1861
   63MOL    C5144815   4.991   5.546   3.363  0.4000  0.3442 -0.0372
   63MOL    C5244816   4.921   5.405   3.380  0.5397  0.3637 -0.0548
   63MOL    N5344817   4.953   5.305   3.276 -0.0754  0.3130  0.3008
   63MOL    C5444818   4.910   6.470   3.596  0.4626  0.0949 -0.2212
   63MOL    C5544819   4.835   6.562   3.669  0.1778  0.6272  0.5053
   63MOL    H5644820   4.725   6.359   3.921  0.1638 -1.6997  0.0287
   63MOL    H5744821   4.875   6.204   3.813  0.1715  1.4521  2.8399
   63MOL    H5844822   4.912   6.078   3.639  1.1163 -1.6978 -0.4060
   63MOL    H5944823   5.038   6.030   3.385  2.0942 -3.2490 -0.7136
   63MOL    H6044824   5.155   6.023   3.506 -0.7602  1.5609  2.9354
   63MOL    H6144825   4.888   5.886   3.518  0.2866 -2.1028 -3.7349
   63MOL    H6244826   4.999   5.869   3.643 -2.4288  0.7142  0.2185
   63MOL    H6344827   5.052   5.798   3.354 -3.0389  1.9928  0.4224
   63MOL    H6444828   5.157   5.749   3.490 -0.7703  0.5182  2.6774
   63MOL    H6544829   4.871   5.643   3.483 -0.7071 -1.0839  1.9053
   63MOL    H6644830   5.022   5.598   3.576 -1.4040 -4.1880 -1.8116
   63MOL    H6744831   5.093   5.515   3.340 -0.5658 -2.6455 -0.6307
   63MOL    H6844832   4.948   5.592   3.275  0.7276  1.6984  0.5086
   63MOL    H6944833   4.956   5.368   3.477  3.5565  1.5954 -0.6167
   63MOL    H7044834   4.813   5.407   3.393  0.2740  0.8763 -2.2321
   63MOL    H7144835   5.044   5.303   3.231  0.8132  0.1012  2.0627
   63MOL    H7244836   4.969   6.494   3.508  1.5036  0.0584  0.4599
   63MOL    H7344837   4.822   6.662   3.629  1.4169  0.3547 -0.6085
   63MOL    C7444838   4.878   5.196   3.255 -1.3460  0.1839 -0.6983
   63MOL    O7544839   4.772   5.168   3.321 -0.3856 -0.2023  1.0892
   63MOL    C7644840   4.919   5.096   3.150 -0.0674 -0.8279 -0.4747
   63MOL    C7744841   5.052   5.082   3.104 -0.3306  0.8736  0.5519
   63MOL    C7844842   5.076   4.990   3.002 -0.1356  0.5311 -0.7815
   63MOL    C7944843   4.973   4.918   2.941 -0.9679  0.4761 -0.7453
   63MOL    C8044844   5.013   4.825   2.826  0.0195  0.3733  0.1110
   63MOL    O8144845   5.118   4.838   2.761  0.0407 -0.2308 -0.1161
   63MOL    N8244846   4.921   4.741   2.793  0.1739 -0.9773 -0.6812
   63MOL    C8344847   4.926   4.636   2.685 -0.0366 -0.0592 -0.7968
   63MOL    C8444848   4.859   4.497   2.721 -0.3796 -0.0569  0.0679
   63MOL    C8544849   4.854   4.403   2.605  0.0388 -0.2110  0.1060
   63MOL    C8644850   4.808   4.260   2.651  0.0147  0.1414  0.1300
   63MOL    C8744851   4.672   4.263   2.712 -0.0023  0.2393 -0.0609
   63MOL    C8844852   4.616   4.121   2.732  0.4710  0.2140  0.0890
   63MOL    N8944853   4.513   4.131   2.834 -0.3307 -0.0339 -0.6439
   63MOL    C9044854   4.837   4.935   2.981  0.0397  0.4897 -0.5321
   63MOL    C9144855   4.817   5.016   3.092 -0.2116  0.1821 -0.2173
   63MOL    H9244856   5.132   5.147   3.137  0.8525 -0.9639  1.4130
   63MOL    H9344857   5.178   4.985   2.969 -0.2894 -3.0388 -0.9033
   63MOL    H9444858   4.834   4.743   2.844  1.5428 -0.9810  1.7173
   63MOL    H9544859   4.867   4.678   2.604 -0.3142 -0.0525 -0.5907
   63MOL    H9644860   5.026   4.621   2.643 -0.7015 -1.4917 -1.9285
   63MOL    H9744861   4.759   4.513   2.762 -0.5027  1.3500 -0.7506
   63MOL    H9844862   4.933   4.456   2.791  0.7490 -0.2140 -1.1933
   63MOL    H9944863   4.781   4.430   2.530  2.0731 -0.2726 -1.9447
   63MOL   H10044864   4.949   4.394   2.552 -0.3297 -2.3439 -0.2255
   63MOL   H10144865   4.872   4.223   2.731 -0.8217  1.8672  1.6199
   63MOL   H10244866   4.812   4.194   2.564  2.1561  0.1993  0.1648
   63MOL   H10344867   4.603   4.301   2.636 -0.0509  1.5683  0.6455
   63MOL   H10444868   4.659   4.328   2.798 -2.2285 -1.3249  0.8373
   63MOL   H10544869   4.572   4.078   2.642 -0.2715 -0.4956  0.7838
   63MOL   H10644870   4.691   4.053   2.772 -0.0542 -0.6442 -0.3648
   63MOL   H10744871   4.532   4.110   2.931 -0.8793 -2.2138 -0.9867
   63MOL   H10844872   4.758   4.877   2.936  1.6003 -2.2910  0.1653
   63MOL   H10944873   4.715   5.036   3.120 -0.3338 -1.3802  0.4916
   63MOL   C11044874   4.385   4.170   2.821 -0.3931  0.0684  1.0710
   63MOL   O11144875   4.336   4.201   2.715  0.0719 -0.4914  0.0923
   63MOL   C11244876   4.301   4.182   2.946 -0.2604 -0.4866 -0.1016
   63MOL   C11344877   4.319   4.108   3.064 -0.2927  0.2640  0.4779
   63MOL   C11444878   4.246   4.139   3.179  0.2633  0.1129  0.1749
   63MOL   C11544879   4.150   4.241   3.179 -0.2773  0.0877  0.5897
   63MOL   C11644880   4.067   4.260   3.301  0.5431  0.3661 -0.4856
   63MOL   O11744881   4.024   4.167   3.364 -0.4174  0.4560 -0.0849
   63MOL   N11844882   4.040   4.384   3.334 -0.6330  0.0375  0.1015
   63MOL   C11944883   3.943   4.425   3.432  0.5193 -0.5464  0.0673
   63MOL   C12044884   4.000   4.417   3.580 -0.0931  0.3201  0.8926
   63MOL   C12144885   3.898   4.457   3.689  0.7668  0.0748 -0.1867
   63MOL   C12244886   3.942   4.421   3.830  0.4155  0.4119 -0.4220
   63MOL   C12344887   4.049   4.505   3.885 -0.1023 -1.5265 -0.0250
   63MOL   C12444888   4.001   4.643   3.928  0.4437 -0.6967 -0.1328
   63MOL   N12544889   3.874   4.648   4.000 -0.0847 -0.1221 -0.5993
   63MOL   C12644890   4.127   4.317   3.060 -0.2595  0.3138  0.2123
   63MOL   C12744891   4.212   4.292   2.949  0.1343 -0.2291 -0.0487
   63MOL   H12844892   4.380   4.019   3.071 -1.4373 -0.5190  0.7102
   63MOL   H12944893   4.266   4.077   3.266 -1.0541  0.9726  1.1147
   63MOL   H13044894   4.070   4.458   3.271  0.1486 -0.4281 -0.0814
   63MOL   H13144895   3.894   4.522   3.426  0.7295 -0.4931 -0.8068
   63MOL   H13244896   3.864   4.350   3.425 -0.1804  0.3476 -2.0513
   63MOL   H13344897   4.074   4.497   3.591  0.3493 -0.1046  1.0405
   63MOL   H13444898   4.054   4.326   3.607 -2.3586 -0.2523  3.7263
   63MOL   H13544899   3.874   4.563   3.681 -0.3037 -0.2314 -1.1219
   63MOL   H13644900   3.800   4.414   3.669 -0.4628  2.6156  0.1975
   63MOL   H13744901   3.978   4.318   3.826 -0.6788 -0.0711  1.2964
   63MOL   H13844902   3.863   4.418   3.906  1.0791  1.0206  0.2982
   63MOL   H13944903   4.137   4.506   3.820  0.5919  0.9817  0.9063
   63MOL   H14044904   4.088   4.460   3.976  0.8295  2.0822  1.4520
   63MOL   H14144905   4.083   4.677   3.992  0.0926 -0.7613  0.3518
   63MOL   H14244906   4.000   4.708   3.840  0.2487  1.2510  1.2763
   63MOL   H14344907   3.789   4.665   3.948 -0.6270 -0.1809  0.2664
   63MOL   H14444908   4.054   4.396   3.048 -1.0284 -0.5293 -0.7544
   63MOL   H14544909   4.200   4.354   2.862 -3.5028 -0.0868  0.4747
   63MOL   C14644910   3.860   4.617   4.130  0.1441 -0.2741  0.0615
   63MOL   O14744911   3.950   4.574   4.196 -0.3823  0.2825  0.0620
   63MOL   C14844912   3.723   4.620   4.176 -0.1356 -0.5403  0.6410
   63MOL   C14944913   3.688   4.529   4.278 -0.5888  0.6445  0.1830
   63MOL   C15044914   3.556   4.529   4.332  0.4222 -0.4707  0.0711
   63MOL   C15144915   3.457   4.603   4.260 -0.4035  0.3549  0.5862
   63MOL   C15244916   3.314   4.592   4.283 -0.0382  0.5892  0.0340
   63MOL   O15344917   3.236   4.674   4.233 -0.0150 -0.7911 -0.3332
   63MOL   N15444918   3.278   4.483   4.348  0.1777  0.2767 -0.2852
   63MOL   C15544919   3.152   4.418   4.343  0.0869 -0.1565 -0.7430
   63MOL   C15644920   3.160   4.286   4.262  0.3452  0.1788  0.6828
   63MOL   C15744921   3.022   4.222   4.274  0.5542 -0.4434 -1.0230
   63MOL   C15844922   3.018   4.081   4.210 -0.0956  0.0365 -0.2300
   63MOL   C15944923   3.052   3.966   4.313 -0.5873 -0.0296  0.6012
   63MOL   C16044924   3.085   3.833   4.243  0.0127  0.0750  1.5511
   63MOL   N16144925   3.093   3.724   4.344  0.1791  0.0265  0.4732
   63MOL   C16244926   3.493   4.688   4.154 -0.2904  0.2959  0.0089
   63MOL   C16344927   3.627   4.709   4.118 -0.0865  0.2503  0.6724
   63MOL   H16444928   3.765   4.471   4.326  2.1750  4.6860  0.9308
   63MOL   H16544929   3.532   4.459   4.411  0.3046 -0.6760 -0.1468
   63MOL   H16644930   3.351   4.430   4.392 -1.1205 -1.1518  0.1965
   63MOL   H16744931   3.132   4.393   4.447  1.5362 -0.2044 -0.4648
   63MOL   H16844932   3.071   4.482   4.308  1.8114  0.8169 -3.0988
   63MOL   H16944933   3.232   4.212   4.297 -1.3936 -2.0266 -0.1845
   63MOL   H17044934   3.179   4.303   4.156  0.8671 -1.6954  0.4467
   63MOL   H17144935   2.977   4.213   4.373  1.2383 -1.4069 -0.7959
   63MOL   H17244936   2.945   4.278   4.220 -0.0065  0.6035  0.7891
   63MOL   H17344937   3.086   4.089   4.125 -3.5081  2.8763 -2.8579
   63MOL   H17444938   2.915   4.068   4.177  0.3091  0.8415 -1.9068
   63MOL   H17544939   2.967   3.961   4.380 -1.1492  1.1276 -0.0211
   63MOL   H17644940   3.138   3.996   4.373  0.7859 -0.3351 -1.1667
   63MOL   H17744941   3.008   3.808   4.170 -1.7826  1.2992  2.9506
   63MOL   H17844942   3.168   3.834   4.173 -2.1811 -2.3540 -1.2287
   63MOL   H17944943   3.055   3.750   4.433  1.9254  2.5409  0.5242
   63MOL   H18044944   3.405   4.725   4.103  0.2729 -0.9077 -1.9034
   63MOL   H18144945   3.655   4.780   4.041  0.1847  0.2371  0.7588
   63MOL   C18244946   3.120   3.598   4.316 -0.0508  0.2884 -0.5500
   63MOL   O18344947   3.142   3.564   4.200 -0.1774 -0.3008 -0.6609
   63MOL   C18444948   3.102   3.501   4.424 -0.1844  0.1651 -0.4354
   63MOL   C18544949   3.185   3.509   4.537  0.3382 -0.3247  0.3429
   63MOL   C18644950   3.174   3.409   4.635  0.3397 -0.9065  0.3426
   63MOL   C18744951   3.080   3.304   4.620  0.2748 -0.8192  0.0737
   63MOL   C18844952   3.070   3.202   4.727  0.3474 -0.0288 -0.1016
   63MOL   O18944953   2.973   3.121   4.730  0.6212 -0.1590  0.1736
   63MOL   N19044954   3.156   3.211   4.823  0.4850 -0.3409  0.1300
   63MOL   C19144955   3.137   3.141   4.957  0.2109 -0.5124 -0.4204
   63MOL   C19244956   3.208   3.220   5.065 -0.2304 -0.2066  0.7746
   63MOL   C19344957   3.357   3.199   5.059 -0.5839  0.1458  0.2445
   63MOL   C19444958   3.443   3.258   5.177  0.3310  0.0346 -0.4969
   63MOL   C19544959   3.490   3.405   5.145 -0.2524  0.1569 -0.1874
   63MOL   C19644960   3.624   3.414   5.059 -0.4225  0.1140 -0.7195
   63MOL   N19744961   3.647   3.554   5.038  0.0982 -0.3444 -0.5381
   63MOL   C19844962   3.002   3.300   4.508 -0.1652  0.1279  0.6450
   63MOL   C19944963   3.011   3.396   4.407 -0.5976 -0.1733  0.5410
   63MOL   H20044964   3.239   3.599   4.562  2.2649 -1.9688  2.3039
   63MOL   H20144965   3.232   3.430   4.724 -1.0941  1.3897  0.7601
   63MOL   H20244966   3.230   3.278   4.811 -1.1651  1.2090 -1.9435
   63MOL   H20344967   3.032   3.119   4.977  0.7218 -3.0882 -0.4181
   63MOL   H20444968   3.175   3.039   4.954  0.8572 -0.3416  1.5000
   63MOL   H20544969   3.164   3.188   5.160  0.3568  2.5295  2.0225
   63MOL   H20644970   3.179   3.324   5.047 -1.7074 -0.4841  1.5166
   63MOL   H20744971   3.388   3.095   5.053 -1.3928 -0.3841  4.0125
   63MOL   H20844972   3.394   3.238   4.963  0.4924 -1.7797 -0.1402
   63MOL   H20944973   3.533   3.197   5.185  0.4575  0.3207  0.3488
   63MOL   H21044974   3.399   3.245   5.276 -0.5761 -0.5861 -0.9771
   63MOL   H21144975   3.507   3.470   5.231  0.9381 -0.7662  0.2897
   63MOL   H21244976   3.408   3.466   5.107 -1.3688 -0.8119  0.6355
   63MOL   H21344977   3.705   3.367   5.115  0.5506  0.1742 -2.0331
   63MOL   H21444978   3.628   3.362   4.963 -1.4714  0.6796 -1.0717
   63MOL   H21544979   3.594   3.596   4.963 -2.5537 -0.4324  1.2183
   63MOL   H21644980   2.930   3.219   4.502 -0.5810  0.4791  0.8273
   63MOL   H21744981   2.939   3.394   4.327 -0.3330 -0.8184  0.3082
   63MOL   C21844982   3.753   3.629   5.073 -0.2757  0.0240 -0.1742
   63MOL   O21944983   3.840   3.591   5.151 -0.2331  0.0729 -0.0807
   63MOL   C22044984   3.764   3.765   5.008 -0.1843  0.3167  0.3230
   63MOL   C22144985   3.885   3.841   5.010  0.7235 -0.2088  0.2025
   63MOL   C22244986   3.895   3.973   4.963 -0.7615 -0.2951  0.9852
   63MOL   C22344987   3.777   4.039   4.916  0.5443  0.1390 -0.3798
   63MOL   C22444988   3.782   4.186   4.876 -0.9066 -0.0509  0.4013
   63MOL   O22544989   3.682   4.253   4.881  0.1113 -0.6825  0.4641
   63MOL   N22644990   3.902   4.233   4.835 -0.1112 -0.1625  1.2683
   63MOL   C22744991   3.934   4.364   4.787 -0.0042  0.3098 -0.5545
   63MOL   C22844992   3.922   4.460   4.906  0.9197  0.1065 -0.2091
   63MOL   C22944993   3.952   4.618   4.877  0.1014 -0.9131 -0.0021
   63MOL   C23044994   3.915   4.696   5.006  0.1611  0.0902 -0.3145
   63MOL   C23144995   3.951   4.848   5.002 -0.5706  0.2550  0.1801
   63MOL   C23244996   3.881   4.909   5.128 -0.8920  0.2206  0.7511
   63MOL   N23344997   3.881   5.053   5.143 -0.6688 -0.4527 -0.2691
   63MOL   C23444998   3.649   3.966   4.925 -0.4656 -0.0639  0.1852
   63MOL   C23544999   3.647   3.829   4.951 -0.1449  0.2629  0.2295
   63MOL   H23645000   3.975   3.803   5.057 -0.0629 -1.8732  0.3783
   63MOL   H23745001   3.991   4.022   4.968 -1.1389  0.5960 -0.1683
   63MOL   H23845002   3.973   4.162   4.840 -0.4690 -0.4357  2.7090
   63MOL   H23945003   4.032   4.367   4.738  0.3342 -2.4996 -0.1275
   63MOL   H24045004   3.868   4.395   4.705 -0.5189 -0.1081 -0.2981
   63MOL   H24145005   3.985   4.432   4.990 -0.7844 -2.6599  0.1958
   63MOL   H24245006   3.819   4.460   4.942  1.0134 -2.0295  0.1109
   63MOL   H24345007   4.055   4.639   4.851 -0.2768 -0.1165 -0.9053
   63MOL   H24445008   3.893   4.653   4.792 -0.2012 -1.1743  0.1008
   63MOL   H24545009   3.979   4.650   5.082 -1.4776  1.2841  1.8610
   63MOL   H24645010   3.818   4.666   5.047  0.8166 -4.2998 -1.6189
   63MOL   H24745011   3.917   4.883   4.904 -1.9309  0.5941  0.7619
   63MOL   H24845012   4.057   4.870   5.011 -0.4277 -0.2974 -0.0925
   63MOL   H24945013   3.778   4.876   5.116 -0.6419  0.1188 -1.2375
   63MOL   H25045014   3.928   4.862   5.215  1.0837 -1.1873 -1.0481
   63MOL   H25145015   3.790   5.098   5.144  0.4633  1.9425 -0.9312
   63MOL   H25245016   3.564   4.018   4.884 -0.9305 -0.6523  0.3949
   63MOL   H25345017   3.556   3.772   4.938 -0.5507  0.7833  0.7495
   63MOL   C25445018   3.986   5.133   5.163  0.7352  0.3295 -0.4330
   63MOL   O25545019   4.100   5.089   5.167 -0.5491 -0.7934 -0.5394
   63MOL   C25645020   3.956   5.271   5.197 -0.5418  0.2736 -0.5411
   63MOL   C25745021   4.057   5.366   5.198 -0.1181 -0.3890 -0.0498
   63MOL   C25845022   4.026   5.503   5.227  0.1682  0.4048  0.1471
   63MOL   C25945023   3.899   5.540   5.271  0.9210 -0.3158 -0.7267
   63MOL   C26045024   3.869   5.682   5.318  0.4471 -0.9099 -0.1154
   63MOL   O26145025   3.959   5.768   5.325  0.2429  0.1377  0.3384
   63MOL   N26245026   3.742   5.718   5.338  0.0861 -0.4908 -0.1019
   63MOL   C26345027   3.697   5.853   5.384  0.5225 -0.8956 -0.1301
   63MOL   C26445028   3.586   5.842   5.491  0.5378 -0.2332 -0.9032
   63MOL   C26545029   3.539   5.977   5.543 -0.2696  0.3295 -0.1664
   63MOL   C26645030   3.637   6.033   5.641  0.4837 -0.3456 -0.4406
   63MOL   C26745031   3.599   6.181   5.671  0.2687  0.0163  0.0945
   63MOL   C26845032   3.669   6.247   5.791 -0.3370  0.0773  0.6731
   63MOL   N26945033   3.666   6.163   5.908 -0.6854 -0.0547  0.7292
   63MOL   C27045034   3.804   5.445   5.283 -0.4620 -0.1130  0.1322
   63MOL   C27145035   3.828   5.310   5.243 -0.2051 -0.1142  0.6589
   63MOL   H27245036   4.157   5.337   5.170 -0.6739 -0.1405 -2.3909
   63MOL   H27345037   4.110   5.571   5.229  1.0042 -0.4843 -2.4355
   63MOL   H27445038   3.671   5.650   5.314  1.3026 -1.4951 -0.9172
   63MOL   H27545039   3.774   5.919   5.424 -0.7898  0.0600  0.8402
   63MOL   H27645040   3.655   5.903   5.298  0.3352  0.1003  0.5374
   63MOL   H27745041   3.622   5.777   5.572 -1.7506 -0.0323  0.3153
   63MOL   H27845042   3.500   5.782   5.461 -1.4044  1.0958  1.8416
   63MOL   H27945043   3.521   6.045   5.459 -3.5783 -2.3579 -1.7228
   63MOL   H28045044   3.444   5.963   5.593  0.1802 -0.1492  0.5594
   63MOL   H28145045   3.737   6.049   5.599 -0.5386  0.4750 -2.6098
   63MOL   H28245046   3.652   5.970   5.729 -0.2327  0.2002  0.0796
   63MOL   H28345047   3.492   6.183   5.693  0.3506 -1.0547  0.5973
   63MOL   H28445048   3.603   6.247   5.584 -0.6697 -0.2059 -0.1237
   63MOL   H28545049   3.767   6.284   5.762  0.3248 -1.5005  0.8547
   63MOL   H28645050   3.624   6.341   5.824  1.8960  2.1669 -1.9015
   63MOL   H28745051   3.601   6.087   5.919 -0.1295 -0.5602  0.5660
   63MOL   H28845052   3.706   5.468   5.321  0.1734 -0.8357  2.2635
   63MOL   H28945053   3.751   5.237   5.263 -0.8525  0.5704  0.7116
   63MOL   C29045054   3.724   6.190   6.025  0.1512  0.1110  0.3387
   63MOL   O29145055   3.779   6.297   6.050  0.2657 -0.3560 -0.1039
   63MOL   C29245056   3.717   6.079   6.118 -0.2440 -0.0551 -0.1411
   63MOL   C29345057   3.788   6.088   6.240  0.1131 -0.0037 -0.0114
   63MOL   C29445058   3.778   5.986   6.341 -0.2525 -0.5274 -0.3986
   63MOL   C29545059   3.696   5.870   6.320  0.5954 -0.1609  0.2153
   63MOL   C29645060   3.675   5.771   6.432  0.0254 -0.8339  0.5755
   63MOL   O29745061   3.558   5.741   6.467  0.2177 -0.0493 -0.4568
   63MOL   N29845062   3.785   5.726   6.495  0.2319 -0.4893  0.0904
   63MOL   C29945063   3.784   5.625   6.598  0.1538  0.2498 -0.2820
   63MOL   C30045064   3.854   5.495   6.550  0.9628  0.1516  0.7624
   63MOL   C30145065   3.834   5.370   6.649  0.3806  0.0357  0.7778
   63MOL   C30245066   3.903   5.245   6.596  0.6771 -0.0151 -0.0290
   63MOL   C30345067   4.051   5.245   6.567  0.1782  0.4415  0.3837
   63MOL   C30445068   4.133   5.220   6.701  0.2062  0.0999 -0.3573
   63MOL   N30545069   4.152   5.079   6.724 -0.3229 -0.1714  0.0596
   63MOL   C30645070   3.615   5.872   6.203 -0.2787  0.0482  0.1490
   63MOL   C30745071   3.627   5.971   6.107  0.1169  0.4528  0.0485
   63MOL   H30845072   3.858   6.170   6.249  0.2371  0.0967 -1.7193
   63MOL   H30945073   3.838   5.996   6.430 -2.1153 -1.2605  0.9799
   63MOL   H31045074   3.872   5.762   6.459 -0.7420  0.1594 -1.6726
   63MOL   H31145075   3.835   5.666   6.685  2.1916 -2.1164 -0.2886
   63MOL   H31245076   3.684   5.607   6.637  0.4954 -0.7386  0.1532
   63MOL   H31345077   3.958   5.514   6.525  0.3686  3.9450  0.8273
   63MOL   H31445078   3.816   5.466   6.452  2.2857 -0.5562  0.4555
   63MOL   H31545079   3.870   5.395   6.749  1.2352 -2.3190  1.0813
   63MOL   H31645080   3.729   5.342   6.654 -0.0938  1.5096 -0.4574
   63MOL   H31745081   3.855   5.219   6.501  0.8006 -1.1380  0.2160
   63MOL   H31845082   3.870   5.164   6.660 -0.5880  0.3763 -0.1539
   63MOL   H31945083   4.090   5.340   6.532 -0.8805 -0.4222 -3.3325
   63MOL   H32045084   4.074   5.166   6.495 -2.4149 -1.4566  1.5531
   63MOL   H32145085   4.237   5.244   6.681  0.2657  0.0399 -0.1217
   63MOL   H32245086   4.100   5.276   6.789  1.5914 -0.8276  0.7712
   63MOL   H32345087   4.227   5.029   6.678  0.6133  0.5344  0.7712
   63MOL   H32445088   3.538   5.797   6.193 -0.4931  0.4920 -1.6485
   63MOL   H32545089   3.563   5.957   6.021 -0.4866  2.8800  0.0832
   63MOL   C32645090   4.072   5.001   6.796 -0.1184 -0.4319  0.1453
   63MOL   O32745091   3.978   5.046   6.861  0.6497 -0.0504  0.8845
   63MOL   C32845092   4.117   4.860   6.806 -0.5840 -0.7208 -0.4042
   63MOL   C32945093   4.100   4.789   6.924  0.5435  0.1869 -0.2349
   63MOL   C33045094   4.129   4.653   6.930 -0.3595  1.0311  0.1778
   63MOL   C33145095   4.177   4.580   6.820  0.1632  0.6362  0.9557
   63MOL   C33245096   4.202   4.431   6.833  0.6443 -0.1894  0.7283
   63MOL   O33345097   4.145   4.358   6.918  0.2546 -0.6379 -0.0464
   63MOL   N33445098   4.282   4.380   6.741 -0.3595 -0.4522  0.0418
   63MOL   C33545099   4.327   4.241   6.738 -0.2180 -1.4659 -0.9739
   63MOL   C33645100   4.244   4.162   6.637 -0.2244  0.0576  0.2823
   63MOL   C33745101   4.291   4.014   6.658  0.2201 -0.5852  0.8258
   63MOL   C33845102   4.191   3.905   6.618  0.0528  0.3924 -0.4336
   63MOL   C33945103   4.255   3.759   6.603 -0.3136 -0.1568 -0.6349
   63MOL   C34045104   4.277   3.691   6.738  0.0375  0.0656  0.1857
   63MOL   N34145105   4.312   3.550   6.714  0.0249  0.8613  0.0782
   63MOL   C34245106   4.200   4.653   6.703 -0.8618  0.0044  0.5664
   63MOL   C34345107   4.161   4.791   6.696 -0.0693  0.0379 -0.1565
   63MOL   H34445108   4.060   4.844   7.009 -0.8777 -1.1610 -0.0068
   63MOL   H34545109   4.106   4.600   7.022 -0.6115 -1.1518 -1.1046
   63MOL   H34645110   4.322   4.440   6.670  1.0581  0.3775  1.4953
   63MOL   H34745111   4.427   4.247   6.696  0.9949  0.1542  1.9750
   63MOL   H34845112   4.334   4.197   6.837 -0.0276  2.6501  0.9653
   63MOL   H34945113   4.258   4.195   6.534 -4.2519 -2.0667 -1.0520
   63MOL   H35045114   4.140   4.183   6.660 -0.6770  0.2061 -1.8224
   63MOL   H35145115   4.367   4.014   6.580 -0.1959  0.2465  0.4138
   63MOL   H35245116   4.333   3.995   6.757  0.7651 -2.1147  0.3126
   63MOL   H35345117   4.139   3.929   6.525 -0.4829  1.1400  0.0559
   63MOL   H35445118   4.124   3.902   6.704 -0.2630 -2.8693 -0.7107
   63MOL   H35545119   4.342   3.782   6.542 -0.0775  2.1459  0.5389
   63MOL   H35645120   4.193   3.690   6.546  1.1831 -0.7492 -1.5895
   63MOL   H35745121   4.347   3.736   6.809 -0.5702  0.8458  0.2917
   63MOL   H35845122   4.180   3.675   6.784 -0.5043  1.0841 -0.5726
   63MOL   H35945123   4.235   3.488   6.695  0.4280  0.5681 -0.6093
   63MOL   H36045124   4.245   4.611   6.615  1.1783  1.9791  0.6109
   63MOL   H36145125   4.159   4.848   6.604 -0.2069  3.5500  1.9403
   63MOL   C36245126   4.438   3.504   6.706  0.1554  0.1276 -0.3253
   63MOL   O36345127   4.538   3.577   6.716 -0.1892  0.0527 -0.0708
   63MOL   C36445128   4.451   3.354   6.679 -0.5186  0.5730  0.2461
   63MOL   C36545129   4.333   3.283   6.647  0.3910 -0.6193  0.1295
   63MOL   C36645130   4.350   3.145   6.618 -0.0689  0.1975 -0.4553
   63MOL   C36745131   4.478   3.081   6.617  0.2081  0.5454  0.3862
   63MOL   C36845132   4.479   2.939   6.579  0.0333  0.6231 -0.0635
   63MOL   O36945133   4.377   2.874   6.591 -0.2921  0.1251 -0.4719
   63MOL   N37045134   4.595   2.883   6.539  0.5025  0.2426 -0.7531
   63MOL   C37145135   4.618   2.745   6.495 -0.0335 -0.1110  0.4808
   63MOL   C37245136   4.738   2.689   6.557 -0.0848  0.3301 -0.3369
   63MOL   C37345137   4.734   2.698   6.706 -0.4131 -0.1512  0.7939
   63MOL   C37445138   4.617   2.621   6.772 -0.0704  0.0046  0.7683
   63MOL   C37545139   4.629   2.639   6.919  0.3797 -0.2362 -0.2673
   63MOL   C37645140   4.530   2.536   6.998  0.1938  0.0676  0.9360
   63MOL   N37745141   4.533   2.561   7.143  0.5022  0.3275 -0.1204
   63MOL   C37845142   4.589   3.156   6.644 -0.7270 -0.1365 -0.2926
   63MOL   C37945143   4.578   3.295   6.680 -0.4808  0.4781  0.5024
   63MOL   H38045144   4.231   3.318   6.644 -0.6433 -3.3744  1.0991
   63MOL   H38145145   4.259   3.088   6.605 -0.8222  1.0874  0.8247
   63MOL   H38245146   4.674   2.944   6.552  0.3753  0.2766 -0.1006
   63MOL   H38345147   4.534   2.676   6.504  0.3585 -0.7790 -0.8119
   63MOL   H38445148   4.627   2.748   6.387  0.9856  2.0865  0.6032
   63MOL   H38545149   4.820   2.753   6.524 -0.9383  1.9570  0.6412
   63MOL   H38645150   4.760   2.584   6.537 -0.1599  0.0131  1.1843
   63MOL   H38745151   4.829   2.665   6.748 -0.4434 -1.6963 -0.2896
   63MOL   H38845152   4.740   2.802   6.737 -0.6278  0.1989 -0.3237
   63MOL   H38945153   4.611   2.517   6.741 -0.3138  0.7387 -1.8197
   63MOL   H39045154   4.522   2.663   6.738  0.4112  1.0790  0.7018
   63MOL   H39145155   4.608   2.745   6.932 -0.9869 -0.3196 -1.5435
   63MOL   H39245156   4.730   2.616   6.951  0.9160  2.4347  0.1125
   63MOL   H39345157   4.429   2.544   6.959  1.1377  0.1481 -1.5594
   63MOL   H39445158   4.557   2.433   6.975 -0.2027  0.1409  0.1417
   63MOL   H39545159   4.624   2.555   7.187  0.1934  0.1270  0.4901
   63MOL   H39645160   4.687   3.112   6.634 -0.8760 -0.3610 -0.7665
   63MOL   H39745161   4.659   3.350   6.724  0.3081  0.1999 -0.5798
   63MOL   C39845162   4.442   2.643   7.202 -0.7701  0.1282 -0.2998
   63MOL   O39945163   4.337   2.687   7.147 -1.0075  0.0663 -0.4889
   63MOL   C40045164   4.482   2.687   7.341  0.2273 -0.0867  1.1534
   63MOL   C40145165   4.500   2.826   7.363  0.4571  0.1588  0.3605
   63MOL   C40245166   4.543   2.874   7.489  0.2656 -0.1804 -0.6976
   63MOL   C40345167   4.551   2.785   7.598  0.3317  0.2193  0.6543
   63MOL   C40445168   4.606   2.836   7.735  0.2829 -0.1529 -0.0826
   63MOL   O40545169   4.659   2.949   7.737 -0.1974  0.4305 -0.4273
   63MOL   N40645170   4.584   2.760   7.840  0.3357 -0.0827  0.1817
   63MOL   C40745171   4.639   2.787   0.083 -0.6958 -0.2260 -0.4922
   63MOL   C40845172   4.755   2.704   0.117 -0.5290  0.0685  0.2788
   63MOL   C40945173   4.815   2.719   0.258 -0.0041 -0.0903 -0.0006
   63MOL   C41045174   4.933   2.623   0.275  0.5383  0.2343  0.5946
   63MOL   C41145175   5.014   2.650   0.403  0.4500  0.2850  0.3366
   63MOL   C41245176   4.932   2.629   0.532  1.3483  0.6007  0.4147
   63MOL   N41345177   5.031   2.649   0.638 -0.0054 -0.1729 -0.3210
   63MOL   C41445178   4.517   2.650   7.577 -0.4753 -0.0230 -0.3379
   63MOL   C41545179   4.487   2.601   7.450 -0.3565  0.4927 -0.2575
   63MOL   H41645180   4.476   2.894   7.283  1.1272  0.0286  0.0452
   63MOL   H41745181   4.553   2.980   7.505 -0.5208 -0.4606  1.8390
   63MOL   H41845182   4.523   2.680   7.828  1.0257 -0.6162  0.1800
   63MOL   H41945183   4.673   2.891   0.084  0.2797 -0.5451  0.2944
   63MOL   H42045184   4.550   2.773   0.145 -0.2512  3.2104  0.9939
   63MOL   H42145185   4.838   2.729   0.051 -0.3659 -0.4469  0.2893
   63MOL   H42245186   4.732   2.599   0.098 -1.5281  0.3830 -0.2834
   63MOL   H42345187   4.852   2.816   0.289 -0.6866  0.0362  0.4208
   63MOL   H42445188   4.734   2.699   0.328 -1.2574 -0.2017 -1.4566
   63MOL   H42545189   5.005   2.637   0.194 -1.0346 -0.5780 -0.9548
   63MOL   H42645190   4.887   2.525   0.266 -0.4618  0.5960  1.6153
   63MOL   H42745191   5.051   2.752   0.394 -0.5119  0.4352 -2.4674
   63MOL   H42845192   5.101   2.584   0.394 -0.6614 -0.9422 -1.9192
   63MOL   H42945193   4.841   2.689   0.539 -0.7799 -2.6671  1.8437
   63MOL   H43045194   4.890   2.529   0.521 -3.1902  2.4571 -0.2715
   63MOL   H43145195   5.097   2.725   0.633  0.8897 -0.9322 -0.2980
   63MOL   H43245196   4.516   2.575   7.655 -0.5009  0.1330 -0.1873
   63MOL   H43345197   4.469   2.496   7.435  0.4226  0.3552 -0.2274
   63MOL   C43445198   5.025   2.593   0.756 -0.8244  0.7733  0.4851
   63MOL   O43545199   4.932   2.524   0.789  0.0177  0.6889 -0.2091
   63MOL   C43645200   5.143   2.618   0.849  0.5137  0.0821  0.5225
   63MOL   C43745201   5.279   2.618   0.799  0.2820 -0.7240  0.8856
   63MOL   C43845202   5.385   2.648   0.885  0.1696  0.3625 -0.2313
   63MOL   C43945203   5.369   2.676   1.021  0.1933 -0.0221 -0.3745
   63MOL   C44045204   5.488   2.710   1.114 -0.1672  0.9811  0.3795
   63MOL   O44145205   5.475   2.696   1.236  0.2599  0.1164 -0.1149
   63MOL   N44245206   5.589   2.775   1.055  0.2439 -0.0157  0.6639
   63MOL   C44345207   5.699   2.808   1.143  0.1636 -0.1209 -0.8927
   63MOL   C44445208   5.818   2.859   1.069 -0.4704 -0.6149  0.9690
   63MOL   C44545209   5.949   2.865   1.156 -0.2652  0.1835  0.1658
   63MOL   C44645210   6.067   2.933   1.087  0.1027  0.7524 -0.3746
   63MOL   C44745211   6.111   2.858   0.963 -0.3310  0.2830 -0.5189
   63MOL   C44845212   6.254   2.902   0.919 -0.8737 -0.2532  0.3191
   63MOL   N44945213   6.306   2.856   0.790 -0.0083 -0.1571 -0.2405
   63MOL   C45045214   5.238   2.663   1.078  0.9033 -0.5061  0.5720
   63MOL   C45145215   5.124   2.641   0.990  0.7589 -0.6452  0.3193
   63MOL   H45245216   5.299   2.622   0.693 -1.2660  0.6005  0.6207
   63MOL   H45345217   5.483   2.653   0.839  0.0981  2.7129 -0.1924
   63MOL   H45445218   5.584   2.799   0.957  0.5524  0.6892  0.8154
   63MOL   H45545219   5.675   2.882   1.219  0.4686 -0.2997 -0.6199
   63MOL   H45645220   5.730   2.715   1.192 -0.9210  0.0188  0.0841
   63MOL   H45745221   5.786   2.957   1.031  1.3039 -0.9479 -1.5038
   63MOL   H45845222   5.833   2.801   0.978 -0.6054  2.0538 -0.8452
   63MOL   H45945223   5.916   2.912   1.249 -1.0858 -1.6461  0.8145
   63MOL   H46045224   5.965   2.758   1.170  1.9501  0.7465  2.2410
   63MOL   H46145225   6.152   2.924   1.154  0.9428  2.0928 -1.2530
   63MOL   H46245226   6.050   3.040   1.083  2.3137  1.0934 -0.8329
   63MOL   H46345227   6.034   2.872   0.887  0.0349  0.0889 -0.9273
   63MOL   H46445228   6.114   2.751   0.982 -0.8437  0.2759 -0.4641
   63MOL   H46545229   6.266   3.010   0.914  0.5806 -0.4647 -1.2200
   63MOL   H46645230   6.330   2.872   0.990 -1.0996 -0.4113  0.4934
   63MOL   H46745231   6.313   2.936   0.729 -1.2088 -0.9892 -1.4988
   63MOL   H46845232   5.223   2.683   1.183  3.3187 -0.2107  0.8841
   63MOL   H46945233   5.030   2.636   1.044  0.9861 -2.4803  0.5647
   63MOL   C47045234   6.336   2.729   0.751  0.0068  0.5129 -0.4348
   63MOL   O47145235   6.316   2.624   0.812  0.3043 -0.1051 -0.5741
   63MOL   C47245236   6.395   2.722   0.619 -1.2111  0.4010  0.1406
   63MOL   C47345237   6.351   2.806   0.513  0.7941  0.4439 -0.0017
   63MOL   C47445238   6.401   2.794   0.387  0.1036  0.3530 -0.6855
   63MOL   C47545239   6.494   2.693   0.359  0.4078 -0.3109 -0.2297
   63MOL   C47645240   6.546   2.674   0.224  0.0614 -0.3050 -0.4033
   63MOL   O47745241   6.666   2.653   0.208 -0.5747  0.2277 -0.0639
   63MOL   N47845242   6.459   2.676   0.122  0.4126 -0.0674 -0.8176
   63MOL   C47945243   6.491   2.683   7.867 -0.6659 -0.0598 -0.0474
   63MOL   C48045244   6.534   2.544   7.813 -0.6411  0.9316 -0.4369
   63MOL   C48145245   6.557   2.551   7.660 -0.0038 -0.3482  0.2559
   63MOL   C48245246   6.592   2.410   7.604 -0.2884 -0.3257  0.7812
   63MOL   C48345247   6.620   2.416   7.453 -0.1508  0.4098  0.1092
   63MOL   C48445248   6.651   2.273   7.396 -0.0159 -0.8788 -0.1978
   63MOL   N48545249   6.546   2.182   7.418 -0.0618 -0.3014 -0.4040
   63MOL   C48645250   6.548   2.615   0.465 -1.3971  0.1537 -0.1722
   63MOL   C48745251   6.503   2.631   0.596  0.7185 -1.2914  0.2947
   63MOL   H48845252   6.281   2.885   0.535  0.5297  0.7507 -1.8286
   63MOL   H48945253   6.372   2.864   0.310  1.7716  0.6767 -1.0525
   63MOL   H49045254   6.359   2.677   0.140  0.3775 -0.8576 -0.9530
   63MOL   H49145255   6.410   2.722   7.806 -0.8150 -0.9566 -0.4339
   63MOL   H49245256   6.577   2.749   7.851 -0.5740  0.3934  2.1270
   63MOL   H49345257   6.454   2.471   7.822 -1.0346  1.2567 -1.2275
   63MOL   H49445258   6.618   2.503   7.869  0.2422  0.4508 -2.0799
   63MOL   H49545259   6.463   2.584   7.617  0.9061  0.0782 -1.4307
   63MOL   H49645260   6.648   2.604   7.632 -1.0893  0.3904 -1.9976
   63MOL   H49745261   6.515   2.336   7.623 -0.1535 -0.8899 -0.7746
   63MOL   H49845262   6.682   2.369   7.650  1.1462  0.0695 -1.5616
   63MOL   H49945263   6.690   2.498   7.437  1.0985 -0.9267 -1.4583
   63MOL   H50045264   6.533   2.463   7.406  0.6798  1.2820 -0.5799
   63MOL   H50145265   6.659   2.280   7.287 -0.2847  1.2438 -0.1060
   63MOL   H50245266   6.749   2.252   7.438  0.6818  2.6003  0.0509
   63MOL   H50345267   6.454   2.223   7.429  1.0953  2.1151  0.4623
   63MOL   H50445268   6.627   2.544   0.446 -1.5610 -0.2360  0.5865
   63MOL   H50545269   6.551   2.572   0.673  0.2619 -1.0921  0.7354
   63MOL   C50645270   6.572   2.047   7.415  0.2269  0.3328 -0.3221
   63MOL   O50745271   6.685   2.000   7.385  0.2136 -0.2918 -0.2597
   63MOL   C50845272   6.453   1.957   7.445  0.1814  0.3102  0.6164
   63MOL   C50945273   6.322   2.003   7.414 -0.4459  0.0142  0.3058
   63MOL   C51045274   6.218   1.919   7.436  0.4121  0.6666 -0.5695
   63MOL   C51145275   6.235   1.787   7.486 -0.4391  0.6828 -0.6460
   63MOL   C51245276   6.106   1.705   7.513  0.9568  0.7072 -0.2762
   63MOL   O51345277   5.996   1.758   7.527  0.4336 -0.2655  0.8447
   63MOL   N51445278   6.126   1.570   7.530 -1.0844 -0.0916  0.7151
   63MOL   C51545279   6.020   1.468   7.552 -0.0847 -0.6142  0.3857
   63MOL   C51645280   6.070   1.343   7.627  0.1327  0.4207 -0.4003
   63MOL   C51745281   5.950   1.252   7.657  0.4419  0.4447  0.5594
   63MOL   C51845282   5.916   1.176   7.526  0.9040  0.3306 -0.5475
   63MOL   C51945283   5.908   1.018   7.548 -0.1838 -0.0255 -0.1580
   63MOL   C52045284   6.055   0.963   7.546 -0.1139  0.1248 -0.9967
   63MOL   N52145285   6.075   0.819   7.557 -0.0709  0.4360 -0.1566
   63MOL   C52245286   6.366   1.734   7.507 -1.3775  0.1440 -0.1644
   63MOL   C52345287   6.473   1.817   7.485  0.0902 -0.2306 -0.1701
   63MOL   H52445288   6.309   2.105   7.382  2.9022  0.2514 -0.5159
   63MOL   H52545289   6.123   1.964   7.411  0.1855  0.5402  0.0595
   63MOL   H52645290   6.218   1.537   7.504 -1.1255 -0.8447  1.4788
   63MOL   H52745291   5.946   1.518   7.615 -0.0018 -0.9555  0.7516
   63MOL   H52845292   5.969   1.447   7.458 -0.3069 -0.1189  0.3952
   63MOL   H52945293   6.117   1.373   7.720  1.6988  0.1406 -1.0779
   63MOL   H53045294   6.156   1.294   7.582  0.5460 -1.4342  2.3128
   63MOL   H53145295   5.971   1.177   7.733  0.9030 -1.7461 -1.6706
   63MOL   H53245296   5.868   1.317   7.689  0.4804  0.3981  0.7544
   63MOL   H53345297   5.987   1.201   7.446 -1.1337 -1.0127 -2.8650
   63MOL   H53445298   5.830   1.221   7.477  2.0819  2.2729 -0.8832
   63MOL   H53545299   5.849   0.962   7.475 -0.7142 -0.5330  0.6546
   63MOL   H53645300   5.864   1.001   7.647 -0.8865  0.0628 -0.4497
   63MOL   H53745301   6.106   0.999   7.457 -2.7481 -1.7496 -3.3355
   63MOL   H53845302   6.112   0.984   7.637  0.2676  1.1402 -1.4643
   63MOL   H53945303   5.998   0.760   7.585  1.3350 -2.3922 -1.9406
   63MOL   H54045304   6.379   1.634   7.545  0.9522  0.5776  0.2568
   63MOL   H54145305   6.574   1.783   7.506  0.0646  0.2103  0.6786
   63MOL   C54245306   6.190   0.757   7.521 -0.4640  0.6783 -0.6503
   63MOL   O54345307   6.291   0.813   7.477 -0.1082 -0.2296  0.5830
   63MOL   C54445308   6.189   0.609   7.554 -0.1804 -0.8555 -0.5234
   63MOL   C54545309   6.276   0.522   7.487  0.7481  0.0252  0.8487
   63MOL   C54645310   6.287   0.384   7.517 -0.2133  0.1963 -0.3012
   63MOL   C54745311   6.208   0.329   7.623  0.5303  0.0953  0.6770
   63MOL   C54845312   6.216   0.187   7.661 -0.3734  0.0908  0.5466
   63MOL   O54945313   6.301   0.116   7.611 -0.4100  0.0343  0.4287
   63MOL   N55045314   6.135   0.145   7.756  0.6625  0.2260 -0.2486
   63MOL   C55145315   6.121   0.007   7.800 -0.4602  0.4423  0.3250
   63MOL   C55245316   5.983   7.844   7.834  0.0924  0.1233 -0.0213
   63MOL   C55345317   5.944   0.043   0.072 -0.1058 -0.2931  0.2252
   63MOL   C55445318   5.814   7.880   0.127  0.3955  0.0911  0.1182
   63MOL   C55545319   5.793   0.056   0.271  0.3965 -0.0455 -0.3811
   63MOL   C55645320   5.640   0.037   0.313 -0.4094 -0.1415  0.0265
   63MOL   N55745321   5.554   0.101   0.220  0.6546 -0.3165  0.3250
   63MOL   C55845322   6.117   0.417   7.693  0.2402  0.1851 -0.2724
   63MOL   C55945323   6.100   0.553   7.650 -0.2431 -0.0969  0.4219
   63MOL   H56045324   6.329   0.553   7.398  0.8481 -1.2449  0.4575
   63MOL   H56145325   6.355   0.322   7.461 -1.1690 -0.8855 -0.2630
   63MOL   H56245326   6.069   0.206   7.801  2.3927  2.2818 -0.3722
   63MOL   H56345327   6.163   7.822   7.729  1.0512  0.6686  0.9718
   63MOL   H56445328   6.184   7.881   0.003  0.1767  0.9518 -0.0473
   63MOL   H56545329   5.994   7.738   7.858 -1.2749  0.0711  0.4477
   63MOL   H56645330   5.914   7.854   7.750 -1.9566 -0.4214  1.5457
   63MOL   H56745331   6.023   0.032   0.146  0.1971 -1.7830 -0.2977
   63MOL   H56845332   5.941   0.151   0.061  2.7492 -0.1131  0.8738
   63MOL   H56945333   5.819   7.772   0.140  2.3170  0.4068  2.4086
   63MOL   H57045334   5.732   0.018   0.060  0.1356 -0.1470  0.3536
   63MOL   H57145335   5.820   0.157   0.301 -0.1350 -0.0941  0.2863
   63MOL   H57245336   5.857   7.881   0.335 -0.9118 -0.3781  0.6352
   63MOL   H57345337   5.617   7.817   0.313  2.2452 -0.7685 -0.2039
   63MOL   H57445338   5.622   0.062   0.418 -1.1677 -0.2571 -0.0779
   63MOL   H57545339   5.540   0.051   0.134 -0.0757  1.0935 -0.3934
   63MOL   H57645340   6.054   0.371   7.767  1.5330  1.5513  1.7331
   63MOL   H57745341   6.026   0.617   7.696 -0.1551 -1.6786  2.8601
   63MOL   C57845342   5.516   0.227   0.222 -0.1378 -0.1850 -1.0179
   63MOL   O57945343   5.536   0.294   0.321 -0.1050  0.2604  0.1897
   63MOL   C58045344   5.450   0.273   0.095  0.1246 -0.1618 -0.2217
   63MOL   C58145345   5.356   0.379   0.107 -0.6802 -0.0021 -0.7296
   63MOL   C58245346   5.292   0.425   7.879  0.0844 -0.1299  0.9209
   63MOL   C58345347   5.324   0.371   7.750  0.4043 -0.3049 -0.4497
   63MOL   C58445348   5.258   0.428   7.628 -0.4767 -0.5630 -0.2306
   63MOL   O58545349   5.140   0.464   7.628  0.1040 -0.0039  0.1573
   63MOL   N58645350   5.335   0.438   7.520  0.0726  0.2147 -0.3135
   63MOL   C58745351   5.287   0.458   7.381  0.4006 -0.5866 -0.5032
   63MOL   C58845352   5.363   0.382   7.270  0.6218  0.5303  0.1793
   63MOL   C58945353   5.515   0.408   7.279  0.0502  0.1782 -0.3994
   63MOL   C59045354   5.586   0.362   7.146  0.4885  0.1302 -0.3674
   63MOL   C59145355   5.736   0.360   7.179 -0.2102 -0.1588 -0.0844
   63MOL   C59245356   5.827   0.359   7.051  0.0366 -0.0759  0.9261
   63MOL   N59345357   5.968   0.351   7.065 -0.3823 -0.1590 -0.3530
   63MOL   C59445358   5.410   0.265   7.746  0.6602 -0.4490  0.8683
   63MOL   C59545359   5.477   0.215   7.859  0.4464 -0.5823 -0.2863
   63MOL   H59645360   5.342   0.418   0.207  0.3628 -1.4957  0.0222
   63MOL   H59745361   5.228   0.512   0.001  0.1636 -0.1878  2.2864
   63MOL   H59845362   5.435   0.436   7.532  0.0382 -0.9543 -0.1815
   63MOL   H59945363   5.181   0.433   7.383 -0.2837  2.2720  1.1757
   63MOL   H60045364   5.302   0.564   7.361 -3.0934  0.4861  2.2115
   63MOL   H60145365   5.324   0.405   7.171 -0.5351 -0.9561  0.2773
   63MOL   H60245366   5.348   0.274   7.276  0.4127  0.6131  1.2012
   63MOL   H60345367   5.542   0.513   7.288 -0.4266  0.4977 -2.5050
   63MOL   H60445368   5.558   0.367   7.371 -1.7516 -1.7449 -0.3748
   63MOL   H60545369   5.561   0.426   7.061 -1.5402  1.4817  1.1925
   63MOL   H60645370   5.561   0.261   7.115 -0.3554  0.9636 -2.4618
   63MOL   H60745371   5.761   0.276   7.244  0.4296 -2.0533 -2.6766
   63MOL   H60845372   5.758   0.455   7.227  1.6276 -0.4837 -0.2592
   63MOL   H60945373   5.790   0.277   6.989 -2.0476  0.1717  1.7923
   63MOL   H61045374   5.802   0.458   7.013  2.6249  0.0818 -0.4490
   63MOL   H61145375   6.008   0.260   7.085  1.1516  0.8526  1.3506
   63MOL   H61245376   5.431   0.221   7.650 -4.6051  0.9796 -1.0860
   63MOL   H61345377   5.550   0.136   7.854 -0.7718 -1.8243  0.8900
   63MOL   C61445378   6.056   0.456   7.059  0.7038 -0.6636  0.6591
   63MOL   O61545379   6.014   0.571   7.028  0.3826  0.2347 -0.3525
   63MOL   C61645380   6.205   0.445   7.094  0.6331 -0.7214 -0.5115
   63MOL   C61745381   6.260   0.323   7.132  0.2500 -0.2290  0.3044
   63MOL   C61845382   6.391   0.319   7.180 -0.0232  0.2106 -0.4140
   63MOL   C61945383   6.470   0.432   7.182  0.0743 -0.3081  0.0150
   63MOL   C62045384   6.602   0.424   7.248  0.3506  0.5612 -0.4203
   63MOL   O62145385   6.618   0.341   7.336 -0.4107 -0.3514 -0.4083
   63MOL   N62245386   6.690   0.509   7.213  0.1907 -0.5557  0.6781
   63MOL   C62345387   6.823   0.526   7.270 -0.3078 -0.6154  0.1067
   63MOL   C62445388   6.925   0.607   7.188 -1.0711  0.1923 -0.7895
   63MOL   C62545389   6.901   0.756   7.189 -0.2612  0.9214  0.3201
   63MOL   C62645390   6.807   0.801   7.081  0.4475 -0.2006 -0.0424
   63MOL   C62745391   6.870   0.808   6.943 -0.6457  0.2179  0.1760
   63MOL   C62845392   6.758   0.838   6.836 -0.8238 -0.4683  0.2605
   63MOL   N62945393   6.653   0.732   6.826  0.2783  0.3543 -0.0429
   63MOL   C63045394   6.415   0.559   7.138 -0.5228  0.1049 -0.0937
   63MOL   C63145395   6.280   0.564   7.097 -0.2922 -0.2534  0.4316
   63MOL   H63245396   6.198   0.236   7.147  0.8251 -0.7944 -0.5709
   63MOL   H63345397   6.431   0.226   7.219 -0.0699  1.2691  2.2159
   63MOL   H63445398   6.656   0.568   7.138  0.4765 -1.3071 -0.0636
   63MOL   H63545399   6.831   0.559   7.373  0.9849 -0.8341  0.0796
   63MOL   H63645400   6.873   0.429   7.276  0.0615 -0.4834 -0.6985
   63MOL   H63745401   6.934   0.581   7.082 -0.8315  1.1554 -1.0074
   63MOL   H63845402   7.028   0.593   7.221 -1.0564  0.8256 -0.5762
   63MOL   H63945403   6.864   0.778   7.289 -1.1060  0.0975  0.1877
   63MOL   H64045404   6.994   0.814   7.189  0.0333  0.4584  1.2870
   63MOL   H64145405   6.773   0.895   7.124  0.3880 -0.0370 -0.4415
   63MOL   H64245406   6.729   0.726   7.070 -0.2078  0.7345 -2.0056
   63MOL   H64345407   6.913   0.714   6.909 -0.5064  0.7884 -1.2796
   63MOL   H64445408   6.933   0.897   6.938 -1.2670  0.5371 -3.5223
   63MOL   H64545409   6.714   0.934   6.860 -0.2365 -0.4673  1.3930
   63MOL   H64645410   6.811   0.843   6.740 -0.0101 -1.6615  0.6289
   63MOL   H64745411   6.682   0.645   6.784 -0.0458 -1.1013  2.6343
   63MOL   H64845412   6.480   0.644   7.157 -1.6687  0.8778  0.4224
   63MOL   H64945413   6.239   0.657   7.061 -2.1211 -0.4419  2.0108
   63MOL   C65045414   6.520   0.747   6.822 -0.2396  0.2608  0.0432
   63MOL   O65145415   6.476   0.866   6.825  0.4315  0.3503 -0.1003
   63MOL   C65245416   6.440   0.627   6.785  0.1755  0.1682 -0.8100
   63MOL   C65345417   6.502   0.502   6.785  0.5743 -0.1768  0.0248
   63MOL   C65445418   6.435   0.385   6.744  0.6758 -0.1026  0.0437
   63MOL   C65545419   6.298   0.397   6.702 -0.3339 -0.3759 -0.2908
   63MOL   C65645420   6.229   0.268   6.673 -0.0779  0.4290 -0.4608
   63MOL   O65745421   6.292   0.163   6.655  0.1021  0.0976 -0.0635
   63MOL   N65845422   6.091   0.276   6.667 -0.1212  0.5411  0.5962
   63MOL   C65945423   5.996   0.163   6.665 -0.3766  0.3843 -0.2610
   63MOL   C66045424   5.926   0.145   6.792  0.2911  0.2702 -0.9189
   63MOL   C66145425   5.825   0.032   6.798  0.0244 -0.4858 -0.5703
   63MOL   C66245426   5.768   0.013   6.937  0.3992  0.2339  0.2622
   63MOL   C66345427   5.703   7.761   6.959 -0.1879 -0.5426 -0.5172
   63MOL   C66445428   5.570   7.731   6.886  0.4684  0.9357  0.4006
   63MOL   N66545429   5.578   7.596   6.829 -0.4379  0.2834  0.0268
   63MOL   C66645430   6.234   0.523   6.706 -0.2586  0.3780  0.3582
   63MOL   C66745431   6.304   0.633   6.752  0.0567 -0.0913  0.2926
   63MOL   H66845432   6.600   0.497   6.828  0.3276 -1.6973  0.4134
   63MOL   H66945433   6.487   0.290   6.752 -0.6018 -0.9365 -1.2342
   63MOL   H67045434   6.053   0.370   6.665  1.0580  1.0164 -0.2480
   63MOL   H67145435   5.921   0.178   6.588 -0.7334  2.3992  0.4493
   63MOL   H67245436   6.048   0.072   6.636 -1.1678 -0.6059  1.3318
   63MOL   H67345437   5.881   0.243   6.807  1.2859  1.3047 -4.2927
   63MOL   H67445438   6.000   0.121   6.868  1.2579  0.7479 -1.6990
   63MOL   H67545439   5.743   0.035   6.727  0.8370 -0.9575 -1.5395
   63MOL   H67645440   5.879   7.826   6.774  0.2387  0.0586 -2.2284
   63MOL   H67745441   5.697   0.092   6.961  0.6035  0.5696 -0.2250
   63MOL   H67845442   5.846   0.022   7.013 -0.1584 -0.0858  0.8830
   63MOL   H67945443   5.686   7.747   7.066 -1.5077  1.0861 -0.4995
   63MOL   H68045444   5.777   7.690   6.921  1.6956  0.9351  0.2758
   63MOL   H68145445   5.483   7.732   6.952  1.1226  2.1598  1.2652
   63MOL   H68245446   5.551   7.816   6.820  0.8901  1.3872  0.8578
   63MOL   H68345447   5.535   7.524   6.886  1.5180 -1.1809 -0.3032
   63MOL   H68445448   6.130   0.531   6.679 -0.9867 -0.6254  2.7425
   63MOL   H68545449   6.254   0.728   6.758  1.2441  0.4817  1.2162
   63MOL   C68645450   5.602   7.560   6.700 -0.0241 -0.7553  0.2215
   63MOL   O68745451   5.611   7.644   6.607 -0.0227 -0.7155  0.5002
   63MOL   C68845452   5.622   7.410   6.687  0.7957 -0.2482 -0.1282
   63MOL   C68945453   5.560   7.313   6.771 -0.7930 -0.0435 -0.2015
   63MOL   C69045454   5.605   7.183   6.783  0.2683  0.4211  0.2811
   63MOL   C69145455   5.702   7.133   6.690  0.3873  0.2735 -0.0204
   63MOL   C69245456   5.758   6.998   6.701 -0.1890  0.3568 -0.2611
   63MOL   O69345457   5.774   6.936   6.806 -0.1125 -0.4125  0.5615
   63MOL   N69445458   5.792   6.941   6.584 -0.3468 -0.1859  0.2549
   63MOL   C69545459   5.865   6.821   6.561  0.0037  0.2643  0.0555
   63MOL   C69645460   6.011   6.815   6.587 -0.2090 -0.7120  0.9882
   63MOL   C69745461   6.096   6.894   6.484  0.3430  0.1206  0.3406
   63MOL   C69845462   6.245   6.873   6.495  0.3749 -0.2117 -0.1740
   63MOL   C69945463   6.320   7.002   6.451  0.0414  0.1941  0.2222
   63MOL   C70045464   6.319   7.023   6.298  0.2089  0.0613  0.0051
   63MOL   N70145465   6.409   7.131   6.265 -0.2122 -0.0069 -0.3049
   63MOL   C70245466   5.755   7.226   6.596 -0.6671 -1.3198  0.3094
   63MOL   C70345467   5.719   7.363   6.600  0.1880  0.0840  0.4780
   63MOL   H70445468   5.489   7.350   6.844 -2.0615 -1.9496 -0.4405
   63MOL   H70545469   5.571   7.121   6.865 -0.1005 -0.2751 -0.3893
   63MOL   H70645470   5.766   7.002   6.508  0.8921  0.0306 -0.0196
   63MOL   H70745471   5.823   6.735   6.613  1.3130 -2.7613 -3.6330
   63MOL   H70845472   5.846   6.808   6.455 -2.1903  0.5554  0.4008
   63MOL   H70945473   6.033   6.711   6.561  0.0246 -0.0025 -1.7738
   63MOL   H71045474   6.037   6.836   6.691 -0.9214  2.1247  0.6137
   63MOL   H71145475   6.069   6.878   6.379  2.4067  1.0762 -0.3546
   63MOL   H71245476   6.069   6.997   6.507  0.2167 -0.3137  2.2181
   63MOL   H71345477   6.276   6.779   6.449 -0.4048 -0.6746  0.2408
   63MOL   H71445478   6.270   6.858   6.600 -0.6308 -0.5217  0.0240
   63MOL   H71545479   6.423   6.996   6.486  0.9288  1.7462 -1.9433
   63MOL   H71645480   6.269   7.091   6.489 -2.6247 -1.1771 -0.1026
   63MOL   H71745481   6.358   6.929   6.258  2.1667  0.5384  0.7248
   63MOL   H71845482   6.216   7.043   6.269  0.0754  2.5593  2.0719
   63MOL   H71945483   6.396   7.152   6.166 -0.2237  0.8058 -0.1358
   63MOL   H72045484   5.831   7.192   6.526  0.0404  1.8455 -0.5184
   63MOL   H72145485   5.761   7.442   6.539 -2.3169  0.9884 -0.1733
   63MOL   H72245486   6.396   7.220   6.311  1.5645  1.2124 -2.0533
   64MOL     C145487   2.766   6.465   4.754 -0.2037  0.3007 -0.1321
   64MOL     O245488   2.643   6.458   4.778  0.0102  0.4037 -0.2129
   64MOL     C345489   2.823   6.510   4.626 -0.8464  0.4611  0.5063
   64MOL     C445490   2.965   6.519   4.613  0.0767  0.0708 -0.0964
   64MOL     C545491   3.018   6.550   4.491 -0.0167 -0.4587 -0.1667
   64MOL     C645492   2.937   6.576   4.378  0.1060  0.2964  0.6614
   64MOL     C745493   2.997   6.587   4.240  0.2985  0.1482 -0.4299
   64MOL     O845494   2.935   6.557   4.141  0.1850 -0.8345 -0.4026
   64MOL     N945495   3.126   6.631   4.226 -0.6364  0.3698 -0.0058
   64MOL    C1045496   3.175   6.671   4.095 -0.6862 -0.3995 -0.1641
   64MOL    C1145497   3.290   6.773   4.115  0.4480  1.1083 -0.4859
   64MOL    C1245498   3.354   6.824   3.981 -0.1243 -0.4070 -0.2682
   64MOL    C1345499   3.447   6.944   4.006 -0.2900 -0.3471  0.4234
   64MOL    C1445500   3.503   7.004   3.882 -0.4573  0.5998  0.3668
   64MOL    C1545501   3.614   7.109   3.907 -0.1079  0.6759 -0.4090
   64MOL    N1645502   3.653   7.173   3.784  0.3157 -0.1754 -0.6305
   64MOL    C1745503   2.797   6.565   4.391 -0.2404  0.4604 -0.1018
   64MOL    C1845504   2.740   6.534   4.511  1.0503  0.7819 -0.6681
   64MOL    H1945505   3.028   6.508   4.699 -1.7076 -0.8234  1.1405
   64MOL    H2045506   3.122   6.555   4.463 -0.2293 -0.1614 -0.9228
   64MOL    H2145507   3.185   6.663   4.301 -0.2248 -2.8801  1.1439
   64MOL    H2245508   3.209   6.583   4.040  0.2172 -0.1659  0.0140
   64MOL    H2345509   3.096   6.729   4.047 -1.2963 -0.9056  0.2193
   64MOL    H2445510   3.373   6.729   4.172 -2.8737  0.2439  3.9273
   64MOL    H2545511   3.251   6.852   4.179 -0.7472 -1.6427  2.3075
   64MOL    H2645512   3.410   6.744   3.932  0.4772 -0.6668  0.8188
   64MOL    H2745513   3.274   6.838   3.909  1.2228  3.1907 -1.1573
   64MOL    H2845514   3.527   6.909   4.071 -0.6817  3.3046  3.0248
   64MOL    H2945515   3.388   7.021   4.054  0.1789 -0.8468  1.8242
   64MOL    H3045516   3.418   7.045   3.827  0.2339 -1.3854 -2.3085
   64MOL    H3145517   3.549   6.928   3.819  0.9271  0.2149  1.8179
   64MOL    H3245518   3.583   7.178   3.985  2.1062  0.5839  0.6091
   64MOL    H3345519   3.705   7.068   3.951  0.4626  1.9063 -0.4175
   64MOL    H3445520   3.635   7.128   3.696 -1.5424  0.5932 -0.6777
   64MOL    H3545521   2.740   6.569   4.300 -0.1310 -1.2492 -0.2577
   64MOL    H3645522   2.636   6.519   4.534  1.2451  0.1727 -0.1707
   64MOL    H3745523   2.840   6.436   4.829  0.9883  2.1413 -0.5640
   64MOL    C3845524   3.689   7.300   3.775 -0.4488  0.6042 -0.0171
   64MOL    O3945525   3.697   7.376   3.871  0.1865 -0.1200 -0.2390
   64MOL    C4045526   3.718   7.356   3.632  0.5540 -0.6841 -0.1911
   64MOL    C4145527   3.731   7.273   3.516 -0.1313  0.3224 -0.3840
   64MOL    C4245528   3.752   7.335   3.393 -0.1843 -0.2863  0.0942
   64MOL    C4345529   3.774   7.472   3.381 -0.4251  0.2575  0.8795
   64MOL    C4445530   3.802   7.534   3.248 -0.0378  0.0285  1.2812
   64MOL    O4545531   3.777   7.472   3.137  0.0016  0.2825 -0.5645
   64MOL    N4645532   3.857   7.658   3.250 -0.4460 -0.4495  0.1256
   64MOL    C4745533   3.860   7.751   3.135  0.1526  0.3344 -0.1047
   64MOL    C4845534   3.716   7.816   3.117 -0.0676  0.4221 -0.2266
   64MOL    C4945535   3.698   0.060   3.045 -0.0789 -0.0833  0.0353
   64MOL    C5045536   3.554   0.125   3.070 -0.4672  0.8614 -0.4965
   64MOL    C5145537   3.521   0.227   2.956 -0.3601  0.1823 -0.0320
   64MOL    C5245538   3.580   0.371   2.983 -0.6310  0.1374 -0.7777
   64MOL    N5345539   3.507   0.438   3.099 -0.4258 -0.0890 -0.3967
   64MOL    C5445540   3.759   7.551   3.494 -0.1254 -0.0347  0.3937
   64MOL    C5545541   3.735   7.495   3.620 -0.4423  0.4156  0.2646
   64MOL    H5645542   3.732   7.165   3.524  1.0963  0.2211 -1.7628
   64MOL    H5745543   3.762   7.277   3.302 -0.8611 -0.7322  0.2966
   64MOL    H5845544   3.901   7.690   3.335 -0.0550  0.0127 -0.2546
   64MOL    H5945545   3.934   7.824   3.167  0.8702  0.2439 -1.5242
   64MOL    H6045546   3.879   7.692   3.045 -4.6605 -1.3319 -0.2279
   64MOL    H6145547   3.677   7.837   3.217 -2.6829  1.8432 -1.4807
   64MOL    H6245548   3.650   7.736   3.084  0.4867 -0.2205  0.2066
   64MOL    H6345549   3.780   0.127   3.070 -0.7622  1.5404 -1.9861
   64MOL    H6445550   3.710   0.032   2.940  1.2684  0.8813 -0.0908
   64MOL    H6545551   3.561   0.181   3.164 -0.4827  0.3405 -0.1822
   64MOL    H6645552   3.477   0.048   3.071  0.6428 -0.2859 -0.6834
   64MOL    H6745553   3.412   0.236   2.956 -0.4927 -1.2410  0.4983
   64MOL    H6845554   3.561   0.185   2.864  0.8139  0.3880  0.3808
   64MOL    H6945555   3.689   0.378   2.992 -0.4177 -0.2904 -2.6182
   64MOL    H7045556   3.553   0.426   2.892 -1.0301 -1.3996 -1.6129
   64MOL    H7145557   3.421   0.400   3.135  0.2687 -0.1333  1.2687
   64MOL    H7245558   3.768   7.658   3.484 -1.1655 -0.0037 -0.2413
   64MOL    H7345559   3.722   7.561   3.704 -1.3302 -0.1392  0.5636
   64MOL    C7445560   3.535   0.561   3.143  0.0962 -0.2107  0.0234
   64MOL    O7545561   3.632   0.633   3.104  0.2958  0.1085  0.7095
   64MOL    C7645562   3.425   0.613   3.238 -0.4808  0.1036  0.0828
   64MOL    C7745563   3.378   0.536   3.344  0.2975 -0.0314 -0.5765
   64MOL    C7845564   3.283   0.591   3.430 -0.2914  0.1722 -0.1324
   64MOL    C7945565   3.238   0.721   3.411 -0.2488 -0.0833 -0.4812
   64MOL    C8045566   3.125   0.770   3.499 -0.3807 -0.3667 -0.8180
   64MOL    O8145567   3.047   0.694   3.555 -0.3100 -0.2360  0.0495
   64MOL    N8245568   3.111   0.901   3.512  0.2586  0.5327 -0.3339
   64MOL    C8345569   2.993   0.967   3.564 -0.6870  0.1013 -0.3661
   64MOL    C8445570   2.879   0.982   3.457 -0.5970 -0.3712  0.3725
   64MOL    C8545571   2.772   1.078   3.502  0.3951 -0.0858  0.1979
   64MOL    C8645572   2.708   1.045   3.638  1.2160  0.4027 -0.3387
   64MOL    C8745573   2.657   0.898   3.652  0.7583  0.0308  0.2485
   64MOL    C8845574   2.516   0.877   3.589 -0.1679 -0.6763  0.4300
   64MOL    N8945575   2.542   0.879   3.444  0.8545 -0.8361  0.6778
   64MOL    C9045576   3.296   0.802   3.315  0.2431  0.1367 -0.0763
   64MOL    C9145577   3.388   0.752   3.224 -1.3358  0.7360 -0.7164
   64MOL    H9245578   3.421   0.441   3.371 -0.6520 -0.7261 -1.4711
   64MOL    H9345579   3.248   0.527   3.510  0.5050  0.7424  0.6799
   64MOL    H9445580   3.171   0.969   3.467  1.1332  0.1491  0.2504
   64MOL    H9545581   2.977   0.936   3.667  0.6498 -0.4697 -0.3171
   64MOL    H9645582   3.038   1.065   3.583  1.3660 -0.4691 -2.0981
   64MOL    H9745583   2.843   0.886   3.419  0.2476 -1.0598  1.3037
   64MOL    H9845584   2.926   1.025   3.368 -0.5467  2.5466  1.7537
   64MOL    H9945585   2.814   1.177   3.516 -1.4945  1.0757 -2.0036
   64MOL   H10045586   2.703   1.097   3.420 -0.1107 -0.8208  0.4372
   64MOL   H10145587   2.627   1.117   3.653  1.3631  0.4052  0.4940
   64MOL   H10245588   2.775   1.045   3.724 -0.1726 -0.2977  0.7599
   64MOL   H10345589   2.640   0.869   3.756  1.3767 -0.0407  0.3319
   64MOL   H10445590   2.729   0.828   3.609  2.4660  0.2646  2.6227
   64MOL   H10545591   2.476   0.778   3.609 -1.1300 -0.2720  0.5134
   64MOL   H10645592   2.449   0.953   3.630  0.2567  0.6675 -1.2660
   64MOL   H10745593   2.639   0.882   3.416  0.7059 -0.2754  0.2092
   64MOL   H10845594   3.267   0.905   3.306  1.0368  0.3954  0.2417
   64MOL   H10945595   3.415   0.811   3.137 -0.7358  1.6926  0.1098
   64MOL   C11045596   2.461   0.904   3.342 -0.0715  0.2169 -0.6259
   64MOL   O11145597   2.343   0.929   3.354  0.1575  0.0673 -0.3119
   64MOL   C11245598   2.527   0.906   3.208  0.8268 -0.4953 -0.1815
   64MOL   C11345599   2.462   0.978   3.102 -0.2698 -1.0447  0.4450
   64MOL   C11445600   2.510   0.963   2.971  0.1386  0.1185  0.5936
   64MOL   C11545601   2.611   0.871   2.943  0.5312 -0.4029 -1.1213
   64MOL   C11645602   2.656   0.854   2.804  0.4944 -0.1146  0.0474
   64MOL   O11745603   2.650   0.943   2.720  0.2170  0.1493 -0.8094
   64MOL   N11845604   2.707   0.733   2.781  0.1083  0.2822  0.3189
   64MOL   C11945605   2.741   0.679   2.645  0.2269  0.0540 -0.3663
   64MOL   C12045606   2.686   0.544   2.639  0.3955 -0.2012 -0.1712
   64MOL   C12145607   2.671   0.488   2.492 -0.1358  0.3291  0.4505
   64MOL   C12245608   2.598   0.346   2.508  0.5121 -0.2212 -0.9923
   64MOL   C12345609   2.555   0.276   2.372 -0.8392  0.1423  0.1466
   64MOL   C12445610   2.449   0.348   2.290  0.4606 -0.3090  0.7391
   64MOL   N12545611   2.431   0.283   2.159  0.3287 -0.0039  0.1476
   64MOL   C12645612   2.674   0.801   3.051  0.4605  0.0837 -0.4764
   64MOL   C12745613   2.629   0.819   3.175 -0.3198  0.1005  0.5126
   64MOL   H12845614   2.380   1.044   3.127 -0.5820 -1.3239  0.1646
   64MOL   H12945615   2.468   1.031   2.898  0.8588 -0.6672 -0.5731
   64MOL   H13045616   2.696   0.670   2.859 -1.0429 -0.1415 -0.1783
   64MOL   H13145617   2.708   0.751   2.570 -1.2804 -0.2398  0.0029
   64MOL   H13245618   2.850   0.672   2.646  0.1948 -0.5014  2.6591
   64MOL   H13345619   2.591   0.542   2.692 -1.3317 -3.0587 -3.1686
   64MOL   H13445620   2.736   0.468   2.699 -0.1170  1.0153  1.8340
   64MOL   H13545621   2.613   0.560   2.435  1.9751  1.5340 -0.2078
   64MOL   H13645622   2.770   0.479   2.448 -0.1162  0.9771  0.3539
   64MOL   H13745623   2.516   0.349   2.579  1.0993 -0.6872 -0.2944
   64MOL   H13845624   2.667   0.274   2.551 -0.8673 -0.6525  0.5134
   64MOL   H13945625   2.523   0.173   2.388  3.2699 -1.2513 -0.0564
   64MOL   H14045626   2.641   0.253   2.309 -0.2617 -1.7023  1.5800
   64MOL   H14145627   2.353   0.338   2.341  0.3363 -0.4662  0.4766
   64MOL   H14245628   2.469   0.455   2.285  0.3597 -0.3874 -2.8819
   64MOL   H14345629   2.478   0.196   2.137  0.0498 -0.4172  1.1543
   64MOL   H14445630   2.747   0.725   3.027  0.2385  0.4790 -2.5645
   64MOL   H14545631   2.664   0.759   3.258  0.6616  0.8695  0.6538
   64MOL   C14645632   2.371   0.347   2.055  0.2847 -0.0451  0.2519
   64MOL   O14745633   2.335   0.460   2.056 -0.0413  0.2834 -0.2982
   64MOL   C14845634   2.355   0.264   1.925  0.3064  0.4918  0.1101
   64MOL   C14945635   2.346   0.128   1.930  0.9209  0.0269  1.4354
   64MOL   C15045636   2.318   0.049   1.814 -0.3317  0.8790 -0.3150
   64MOL   C15145637   2.295   0.109   1.689 -0.1802 -0.1031 -0.3002
   64MOL   C15245638   2.248   0.020   1.577 -0.0907 -0.2439 -0.1830
   64MOL   O15345639   2.278   7.788   1.572 -0.3295 -0.4006  0.3466
   64MOL   N15445640   2.167   0.085   1.495 -0.5418  0.2936  0.1740
   64MOL   C15545641   2.117   0.030   1.373  0.0606  0.3487  0.2461
   64MOL   C15645642   2.114   0.138   1.262 -0.1230 -0.2469  0.3815
   64MOL   C15745643   2.248   0.164   1.192  0.6031 -0.1038 -0.9002
   64MOL   C15845644   2.229   0.272   1.086  0.0874  0.4275  0.6179
   64MOL   C15945645   2.340   0.282   0.973 -0.1495  0.2647  0.3256
   64MOL   C16045646   2.317   0.403   0.871  0.6106  0.4015 -0.4688
   64MOL   N16145647   2.331   0.532   0.935 -0.2056 -0.4541  0.6510
   64MOL   C16245648   2.307   0.250   1.685  0.3729  0.4163 -0.7540
   64MOL   C16345649   2.341   0.327   1.804  0.1675  1.1953 -0.1549
   64MOL   H16445650   2.350   0.079   2.027  0.3119 -0.6606  1.1148
   64MOL   H16545651   2.296   7.833   1.839  0.3989  0.6130 -0.7522
   64MOL   H16645652   2.146   0.178   1.526 -1.0344 -0.1229  1.1126
   64MOL   H16745653   2.171   7.827   1.340  0.3116 -1.0396  4.1190
   64MOL   H16845654   2.015   7.881   1.392 -0.0242  0.6067  0.2640
   64MOL   H16945655   2.082   0.236   1.297  2.0084  0.5773  0.0526
   64MOL   H17045656   2.033   0.113   1.194  1.8359  0.6834 -2.3470
   64MOL   H17145657   2.319   0.189   1.271 -0.9728 -1.0017  0.8312
   64MOL   H17245658   2.280   0.071   1.145 -1.0095 -0.7828 -0.6724
   64MOL   H17345659   2.218   0.370   1.133 -0.4256 -0.2772  2.0189
   64MOL   H17445660   2.132   0.243   1.048 -0.0174  0.8609  0.5490
   64MOL   H17545661   2.347   0.186   0.922  0.6809 -1.0620  2.8723
   64MOL   H17645662   2.437   0.294   1.021  0.2789 -1.3907 -0.0872
   64MOL   H17745663   2.377   0.389   0.782  1.4967  1.3441 -0.0228
   64MOL   H17845664   2.213   0.391   0.841 -0.0172  1.1890  1.3292
   64MOL   H17945665   2.336   0.528   1.035  0.4661  2.4531  0.7847
   64MOL   H18045666   2.300   0.302   1.590  0.2275  2.9201  0.5943
   64MOL   H18145667   2.366   0.432   1.795 -0.2528  1.1386 -2.3813
   64MOL   C18245668   2.313   0.652   0.875 -1.4936  0.2908  0.2715
   64MOL   O18345669   2.308   0.678   0.751 -0.4497 -0.1194  0.1669
   64MOL   C18445670   2.295   0.764   0.979  0.4242  0.0326 -0.7275
   64MOL   C18545671   2.353   0.890   0.959  0.0068 -0.4245 -0.3837
   64MOL   C18645672   2.332   0.991   1.051 -0.4875  0.8713  0.2195
   64MOL   C18745673   2.257   0.968   1.171  0.2809  0.9817 -0.0452
   64MOL   C18845674   2.243   1.070   1.279  0.1365  0.3505  0.0768
   64MOL   O18945675   2.342   1.147   1.297  0.4641 -0.0579  0.0776
   64MOL   N19045676   2.138   1.063   1.363  0.5926 -0.6379 -0.4417
   64MOL   C19145677   2.114   1.142   1.486  0.2953  0.3492 -0.2823
   64MOL   C19245678   2.133   1.056   1.609 -0.2739  0.5406 -0.3427
   64MOL   C19345679   2.042   0.924   1.615 -0.2504 -0.1337 -0.1900
   64MOL   C19445680   2.046   0.867   1.756  0.0012  0.9413  0.3483
   64MOL   C19545681   2.006   0.718   1.772  0.7241  0.2081 -0.0219
   64MOL   C19645682   2.120   0.612   1.784 -0.1544 -0.0573  0.4850
   64MOL   N19745683   2.220   0.629   1.682  0.3009  0.0792  0.2100
   64MOL   C19845684   2.187   0.844   1.182  0.1567 -0.3618 -0.0588
   64MOL   C19945685   2.207   0.745   1.088 -0.3684 -0.5453  0.2145
   64MOL   H20045686   2.407   0.901   0.866 -1.1961 -1.9805 -1.2785
   64MOL   H20145687   2.381   1.087   1.046  1.9630 -0.3560 -0.3233
   64MOL   H20245688   2.060   1.010   1.328 -0.4895  0.9228 -0.4187
   64MOL   H20345689   2.197   1.212   1.496  0.8556 -0.2697 -0.5342
   64MOL   H20445690   2.019   1.194   1.488  0.6847  1.0293  1.7356
   64MOL   H20545691   2.113   1.128   1.688  1.1008 -2.2631  2.6705
   64MOL   H20645692   2.239   1.032   1.619 -0.3081 -0.8907 -2.9152
   64MOL   H20745693   1.940   0.933   1.578 -0.0663  0.6270 -0.5327
   64MOL   H20845694   2.099   0.867   1.541 -1.1248 -0.9924 -0.2064
   64MOL   H20945695   1.979   0.931   1.814  1.1320  2.3428  0.1422
   64MOL   H21045696   2.142   0.878   1.806  0.1954 -0.0825  0.2055
   64MOL   H21145697   1.948   0.692   1.683  0.4384  2.6863 -0.6125
   64MOL   H21245698   1.953   0.708   1.866 -0.1511 -2.2030 -0.7241
   64MOL   H21345699   2.175   0.621   1.878 -2.4275  0.8531  1.7799
   64MOL   H21445700   2.091   0.507   1.777 -0.2123 -0.0671  0.8832
   64MOL   H21545701   2.307   0.667   1.716 -0.1302  2.4940 -1.2934
   64MOL   H21645702   2.125   0.818   1.267  1.6608 -0.5392  1.0149
   64MOL   H21745703   2.159   0.648   1.097 -1.7087  0.0954  0.0852
   64MOL   C21845704   2.207   0.579   1.560 -0.2316 -0.3804 -1.0344
   64MOL   O21945705   2.121   0.501   1.528  0.1345  0.1537 -0.1637
   64MOL   C22045706   2.311   0.621   1.462  0.1903  0.6683  0.0955
   64MOL   C22145707   2.357   0.528   1.367 -0.1384 -0.3101  0.1850
   64MOL   C22245708   2.454   0.563   1.266  0.3001  0.7612  0.0617
   64MOL   C22345709   2.504   0.691   1.257  0.5388  0.0746 -0.6602
   64MOL   C22445710   2.611   0.728   1.156 -1.1189  0.3493  0.4371
   64MOL   O22545711   2.688   0.636   1.121  0.0305  0.2500 -0.3429
   64MOL   N22645712   2.615   0.854   1.120 -0.3925  0.2503 -0.8464
   64MOL   C22745713   2.700   0.913   1.012 -0.3697 -1.1747 -0.4114
   64MOL   C22845714   2.768   1.035   1.088  0.2261 -0.6105 -0.1477
   64MOL   C22945715   2.900   1.073   1.020  0.3392 -0.4023  0.2574
   64MOL   C23045716   2.960   1.213   1.061  0.0400 -0.0916  0.0706
   64MOL   C23145717   2.969   1.233   1.212  0.3130  0.2318 -0.1411
   64MOL   C23245718   3.052   1.123   1.286  0.3226  0.4911  0.4043
   64MOL   N23345719   3.070   1.133   1.430  0.0291  0.3017 -0.3828
   64MOL   C23445720   2.451   0.788   1.350  0.4255 -0.5124  0.1926
   64MOL   C23545721   2.363   0.752   1.453 -0.5729 -0.4898  0.4278
   64MOL   H23645722   2.336   0.423   1.373  0.3021 -0.3819  0.4568
   64MOL   H23745723   2.489   0.486   1.199  0.2030  0.2091  0.6349
   64MOL   H23845724   2.532   0.906   1.143  1.1809  2.5098  0.0003
   64MOL   H23945725   2.771   0.838   0.979  0.4184 -0.3054 -0.7032
   64MOL   H24045726   2.626   0.942   0.937 -0.9477  0.1877  0.6405
   64MOL   H24145727   2.787   1.002   1.190 -0.0703  1.3063  0.5470
   64MOL   H24245728   2.705   1.123   1.100  1.0479 -0.2042  1.3188
   64MOL   H24345729   2.974   0.993   1.028  0.7563 -0.0191  0.2772
   64MOL   H24445730   2.877   1.082   0.914  1.1354  1.6564  0.2274
   64MOL   H24545731   2.890   1.278   1.008  1.2654  2.6828  1.7047
   64MOL   H24645732   3.063   1.228   1.027 -0.0008  0.8622  0.3265
   64MOL   H24745733   2.868   1.250   1.251  0.9306  2.1033  0.7302
   64MOL   H24845734   3.022   1.327   1.227  0.7919 -0.3082  1.6000
   64MOL   H24945735   3.024   1.019   1.266  1.9791  0.3982 -1.5847
   64MOL   H25045736   3.151   1.132   1.240 -0.9235  0.4373 -2.3617
   64MOL   H25145737   3.030   1.059   1.487 -1.2138 -0.3836 -2.1010
   64MOL   H25245738   2.487   0.890   1.349  0.6523 -0.5980 -1.1792
   64MOL   H25345739   2.335   0.827   1.526 -1.2847  0.0293 -0.3707
   64MOL   C25445740   3.146   1.223   1.489  0.1815 -0.3601 -1.0556
   64MOL   O25545741   3.206   1.304   1.428  0.1804  0.2843 -0.1104
   64MOL   C25645742   3.146   1.226   1.639  0.2069 -0.1005  1.0155
   64MOL   C25745743   3.036   1.188   1.716  0.5787  1.1584  0.0783
   64MOL   C25845744   3.046   1.188   1.857 -0.5666  0.1446 -1.1248
   64MOL   C25945745   3.166   1.224   1.920 -0.1424 -0.4462 -0.4485
   64MOL   C26045746   3.166   1.215   2.067 -0.2185  0.0735  1.1176
   64MOL   O26145747   3.108   1.124   2.121  0.4663  0.4613  0.5920
   64MOL   N26245748   3.222   1.318   2.129  0.0737  0.1305 -1.1251
   64MOL   C26345749   3.245   1.332   2.274 -0.4697  0.1307  1.3730
   64MOL   C26445750   3.119   1.367   2.352  0.8642  0.3873  0.3110
   64MOL   C26545751   3.146   1.383   2.504 -0.3733 -0.0472  0.3124
   64MOL   C26645752   3.031   1.353   2.598 -0.1810  0.2944  0.2451
   64MOL   C26745753   3.063   1.376   2.744  0.4102  0.3920 -0.9431
   64MOL   C26845754   2.963   1.323   2.843  0.3713  0.1867 -0.4493
   64MOL   N26945755   2.978   1.173   2.847 -0.7686 -0.4088 -0.4346
   64MOL   C27045756   3.272   1.274   1.844  0.1077 -0.1549  0.4678
   64MOL   C27145757   3.263   1.276   1.703  0.5798  0.0507  0.0976
   64MOL   H27245758   2.947   1.156   1.665  1.2814  1.8432 -1.6275
   64MOL   H27345759   2.962   1.151   1.914 -2.1089  1.2164 -2.6561
   64MOL   H27445760   3.250   1.397   2.071  0.1693  1.0902  0.2047
   64MOL   H27545761   3.269   1.231   2.308 -1.4160 -0.2740  0.8300
   64MOL   H27645762   3.338   1.385   2.295  0.8621 -1.5133 -0.2261
   64MOL   H27745763   3.044   1.289   2.341  2.6376 -1.8111  2.9386
   64MOL   H27845764   3.067   1.457   2.320 -4.5538 -1.7079  2.6141
   64MOL   H27945765   3.222   1.307   2.524  0.2969  1.2553  2.9468
   64MOL   H28045766   3.202   1.473   2.528  0.6794 -0.8704  1.0095
   64MOL   H28145767   3.015   1.245   2.587  0.4721 -0.0113  2.1985
   64MOL   H28245768   2.943   1.411   2.571  0.9300  2.9306  2.0886
   64MOL   H28345769   3.077   1.482   2.767  0.0459 -0.1902  2.0631
   64MOL   H28445770   3.157   1.330   2.776  0.1012  0.9745  0.8293
   64MOL   H28545771   2.982   1.367   2.941  1.6343 -0.0403 -0.5762
   64MOL   H28645772   2.872   1.366   2.802  0.5050  0.8863 -0.0061
   64MOL   H28745773   3.044   1.132   2.783 -0.4437  0.2599 -0.5387
   64MOL   H28845774   3.366   1.305   1.888  0.6739 -2.6440  1.0985
   64MOL   H28945775   3.341   1.307   1.635 -0.9570  0.8620 -1.3183
   64MOL   C29045776   2.929   1.102   2.946 -0.2179  0.1014 -0.8089
   64MOL   O29145777   2.851   1.140   3.033 -0.0717  0.1095  0.5081
   64MOL   C29245778   2.978   0.958   2.939  0.1784 -0.8737  0.6607
   64MOL   C29345779   3.017   0.895   3.055  0.3188  0.6845  0.8759
   64MOL   C29445780   3.057   0.759   3.051  0.5478  0.2832  0.5851
   64MOL   C29545781   3.079   0.701   2.928  0.0392  0.2317  0.5763
   64MOL   C29645782   3.115   0.552   2.924 -0.0509  0.1999 -0.3187
   64MOL   O29745783   3.232   0.522   2.905 -0.4249  0.1090  0.2956
   64MOL   N29845784   3.014   0.457   2.931  0.3396 -0.4297 -0.3403
   64MOL   C29945785   3.043   0.320   2.914  0.3767  0.1195 -0.0071
   64MOL   C30045786   3.055   0.234   3.043 -1.2921 -0.4403 -0.2828
   64MOL   C30145787   3.145   0.286   3.157  0.3041  0.4098 -0.6173
   64MOL   C30245788   3.183   0.165   3.244  0.2851 -0.9925  0.6598
   64MOL   C30345789   3.281   0.197   3.356  0.4791  0.2024 -0.3575
   64MOL   C30445790   3.336   0.081   3.448  0.0114 -0.3808  0.5610
   64MOL   N30545791   3.227   0.002   3.492  0.1279 -0.3702  0.4066
   64MOL   C30645792   3.045   0.765   2.810  0.4915 -0.0519 -0.3158
   64MOL   C30745793   2.994   0.896   2.812 -0.9394  0.1927  0.4038
   64MOL   H30845794   3.010   0.940   3.152 -1.8005  0.6433  0.7601
   64MOL   H30945795   3.075   0.698   3.138  0.6525  0.1990  0.5048
   64MOL   H31045796   2.920   0.493   2.918  0.8744  1.6937  1.3496
   64MOL   H31145797   2.964   0.280   2.850  1.5534  0.4092 -1.6613
   64MOL   H31245798   3.128   0.305   2.848  0.5620 -0.6219  0.3885
   64MOL   H31345799   3.103   0.140   3.015 -2.8836 -1.1217 -0.7424
   64MOL   H31445800   2.956   0.214   3.082 -1.6341  0.3509 -0.7423
   64MOL   H31545801   3.239   0.328   3.120  0.4180  2.3130  1.7479
   64MOL   H31645802   3.101   0.368   3.214  1.4122  1.4756 -1.2650
   64MOL   H31745803   3.235   0.086   3.189  2.3548  1.8341 -1.6201
   64MOL   H31845804   3.092   0.118   3.280 -0.2584 -0.6399 -0.2274
   64MOL   H31945805   3.232   0.270   3.420  3.3340  2.8340 -1.1033
   64MOL   H32045806   3.361   0.260   3.317  2.2633 -0.0056  2.7581
   64MOL   H32145807   3.412   0.015   3.408  0.0299 -0.1098  0.1420
   64MOL   H32245808   3.383   0.126   3.536  0.7708  0.5064 -0.2862
   64MOL   H32345809   3.137   0.019   3.448  1.4041  1.9673 -1.3879
   64MOL   H32445810   3.048   0.708   2.718 -2.5332 -1.1815  0.2169
   64MOL   H32545811   2.960   0.938   2.718  0.2950 -0.0523 -0.1551
   64MOL   C32645812   3.231   7.807   3.592 -0.0582 -0.3426  0.5993
   64MOL   O32745813   3.331   7.790   3.660  0.0245 -0.1751 -0.8158
   64MOL   C32845814   3.114   7.720   3.598  0.1015 -0.0271  0.4276
   64MOL   C32945815   3.080   7.664   3.723  0.1160  0.6179 -0.2969
   64MOL   C33045816   2.976   7.576   3.734  0.0508  0.4198  0.1029
   64MOL   C33145817   2.904   7.536   3.616 -0.3023  0.5878  0.1655
   64MOL   C33245818   2.781   7.454   3.642  0.2645  0.2958 -0.0619
   64MOL   O33345819   2.733   7.446   3.754 -0.2912  0.2671 -0.8523
   64MOL   N33445820   2.730   7.390   3.536  0.0811 -0.2549  0.2349
   64MOL   C33545821   2.601   7.309   3.551 -0.1345 -0.1516  0.0185
   64MOL   C33645822   2.554   7.240   3.423 -0.4123  0.4937  0.5420
   64MOL   C33745823   2.422   7.173   3.428  0.3398 -0.2724 -0.0978
   64MOL   C33845824   2.400   7.096   3.296  0.3467 -0.1528  0.7516
   64MOL   C33945825   2.260   7.051   3.261  0.0584  0.0943 -0.2904
   64MOL   C34045826   2.178   7.176   3.220 -0.3798 -0.4872  0.2022
   64MOL   N34145827   2.040   7.144   3.183  0.7065 -0.0350 -0.1025
   64MOL   C34245828   2.939   7.587   3.489  0.4470 -0.0937  0.3348
   64MOL   C34345829   3.039   7.686   3.483 -0.6673 -0.5845 -0.5663
   64MOL   H34445830   3.142   7.698   3.805  2.7800 -2.7602 -0.8119
   64MOL   H34545831   2.959   7.538   3.833 -0.6675 -0.9538 -0.5415
   64MOL   H34645832   2.780   7.389   3.449  2.4355  1.1991  1.5194
   64MOL   H34745833   2.611   7.231   3.627 -1.6511  0.2044  0.6132
   64MOL   H34845834   2.521   7.370   3.593  0.4496  0.9046 -0.3789
   64MOL   H34945835   2.621   7.158   3.397 -1.7591  0.2923 -2.5744
   64MOL   H35045836   2.557   7.317   3.346  1.9619  1.8289  1.9089
   64MOL   H35145837   2.419   7.087   3.496 -2.4092  0.7763  1.1788
   64MOL   H35245838   2.341   7.241   3.455 -0.8719 -2.4961  2.1420
   64MOL   H35345839   2.450   7.001   3.312  2.4159  0.8645  0.5353
   64MOL   H35445840   2.455   7.148   3.217  0.3426  2.8773  2.6465
   64MOL   H35545841   2.233   6.993   3.350 -2.9689 -0.3531 -1.4350
   64MOL   H35645842   2.276   6.990   3.172  1.9677 -0.9246  0.7077
   64MOL   H35745843   2.173   7.251   3.299  1.6465 -0.8568  0.6904
   64MOL   H35845844   2.225   7.231   3.138 -0.2623  1.8815  1.8133
   64MOL   H35945845   2.016   7.152   3.085  0.3788 -0.5640 -0.0666
   64MOL   H36045846   2.884   7.562   3.400  0.1596  2.9302 -0.3929
   64MOL   H36145847   3.064   7.730   3.387 -1.6502  3.1305  0.8350
   64MOL   C36245848   1.940   7.117   3.279  0.5961  0.0255  0.5605
   64MOL   O36345849   1.963   7.127   3.400  0.0917 -0.3091  0.6856
   64MOL   C36445850   1.803   7.086   3.227 -0.0344 -0.4601 -0.1049
   64MOL   C36545851   1.778   7.044   3.095  0.2600  0.0750 -0.0330
   64MOL   C36645852   1.648   7.016   3.044 -0.1957  0.1985  0.6969
   64MOL   C36745853   1.540   7.031   3.126  1.0063 -0.7798 -1.5298
   64MOL   C36845854   1.401   6.989   3.082 -0.1327  0.4257  0.1590
   64MOL   O36945855   1.307   7.006   3.160 -0.4929  0.4740 -0.5338
   64MOL   N37045856   1.398   6.920   2.965  0.6599 -0.0089  0.1041
   64MOL   C37145857   1.276   6.869   2.911 -0.1323  0.0914 -0.1170
   64MOL   C37245858   1.268   6.714   2.908 -0.3232 -1.2935 -0.5505
   64MOL   C37345859   1.385   6.648   2.826 -0.1384 -0.2933  0.0345
   64MOL   C37445860   1.360   6.497   2.815 -0.2348 -0.3955 -0.0369
   64MOL   C37545861   1.346   6.437   2.952 -0.4418  0.2439 -0.4891
   64MOL   C37645862   1.327   6.282   2.962  0.1517  0.1771  0.0655
   64MOL   N37745863   1.201   6.255   2.888 -0.5078 -0.7893 -0.4499
   64MOL   C37845864   1.559   7.072   3.260  0.2361  0.2693 -0.8169
   64MOL   C37945865   1.686   7.079   3.314 -0.1336 -0.4132 -0.8119
   64MOL   H38045866   1.860   7.039   3.025  1.1497 -2.7090  1.1221
   64MOL   H38145867   1.637   6.998   2.938 -1.5557  1.2614  0.6551
   64MOL   H38245868   1.485   6.915   2.914  0.6564  0.8565  0.0014
   64MOL   H38345869   1.191   6.894   2.974  0.1503  3.5111 -0.9891
   64MOL   H38445870   1.264   6.906   2.809  0.9581 -2.3854 -1.1807
   64MOL   H38545871   1.178   6.695   2.849  0.0143 -0.1170 -1.4543
   64MOL   H38645872   1.254   6.676   3.009  0.7483  0.1606  0.1553
   64MOL   H38745873   1.392   6.686   2.724 -0.3127  1.9755  0.8340
   64MOL   H38845874   1.485   6.676   2.861 -0.8245  1.2987  0.7867
   64MOL   H38945875   1.444   6.456   2.759 -0.5291 -0.3390 -0.5222
   64MOL   H39045876   1.267   6.483   2.760 -0.7646 -0.2186  0.8103
   64MOL   H39145877   1.258   6.476   3.003 -1.0782  0.2482 -1.5775
   64MOL   H39245878   1.438   6.469   3.002 -0.8581  1.2814 -0.3831
   64MOL   H39345879   1.406   6.236   2.901 -1.0932 -0.1528 -1.3283
   64MOL   H39445880   1.335   6.253   3.066 -3.0503  0.6341  0.4856
   64MOL   H39545881   1.209   6.200   2.804 -1.3015 -2.1183  0.3357
   64MOL   H39645882   1.471   7.085   3.321 -0.6263 -1.2691 -1.7156
   64MOL   H39745883   1.706   7.089   3.419 -1.0813 -3.4526 -0.3024
   64MOL   C39845884   1.080   6.276   2.940 -0.8028 -0.7176  0.4771
   64MOL   O39945885   1.061   6.331   3.049  0.1222  0.0367 -0.5333
   64MOL   C40045886   0.975   6.235   2.844  0.0279 -0.5609  0.0297
   64MOL   C40145887   0.997   6.139   2.742 -0.2519 -0.3880  0.0207
   64MOL   C40245888   0.884   6.104   2.656  0.2415  0.3458  0.3963
   64MOL   C40345889   0.756   6.154   2.687 -0.5177 -0.3450 -0.5935
   64MOL   C40445890   0.641   6.094   2.615  0.2521 -0.1646  0.6788
   64MOL   O40545891   0.549   6.052   2.686 -0.6807  0.3087  0.1305
   64MOL   N40645892   0.644   6.079   2.482  0.1743  0.1219 -0.3359
   64MOL   C40745893   0.545   6.020   2.388  0.3958 -0.1341  0.1275
   64MOL   C40845894   0.435   6.116   2.336  0.5170 -0.3091  0.5349
   64MOL   C40945895   0.482   6.240   2.255  0.0220  0.1025 -0.7092
   64MOL   C41045896   0.510   6.206   2.103  0.2848 -0.2689  0.1887
   64MOL   C41145897   0.551   6.320   2.020  0.1893  0.4081  0.5185
   64MOL   C41245898   0.667   6.403   2.080 -0.3643 -0.6781  0.5270
   64MOL   N41345899   0.698   6.523   1.996 -0.4373 -0.3186  0.4037
   64MOL   C41445900   0.738   6.254   2.786  0.1709 -0.2963  0.0820
   64MOL   C41545901   0.847   6.292   2.869 -0.3866  0.0929  0.4979
   64MOL   H41645902   1.089   6.083   2.733  1.8333  2.8634  0.2314
   64MOL   H41745903   0.892   6.022   2.587 -1.2088 -0.2821  0.9625
   64MOL   H41845904   0.712   6.143   2.443  1.2992 -1.0437 -0.2966
   64MOL   H41945905   0.588   5.972   2.300 -0.6484 -1.1474  0.1576
   64MOL   H42045906   0.497   5.939   2.443 -0.5410 -0.1668 -0.7309
   64MOL   H42145907   0.377   6.143   2.424 -2.0883 -0.1652 -1.1645
   64MOL   H42245908   0.367   6.061   2.270 -2.8860  1.7048  2.2117
   64MOL   H42345909   0.400   6.311   2.258 -0.6051 -0.6547  0.2811
   64MOL   H42445910   0.572   6.284   2.299 -2.0079  1.3647  2.3108
   64MOL   H42545911   0.430   6.143   2.065 -0.4531  0.3993  0.6362
   64MOL   H42645912   0.604   6.153   2.120  1.1172  0.7195 -1.2042
   64MOL   H42745913   0.462   6.382   2.016  0.2337  0.5031  0.9319
   64MOL   H42845914   0.570   6.289   1.918  0.1596 -3.1556  1.5419
   64MOL   H42945915   0.638   6.457   2.170 -2.3482  0.3137 -0.6650
   64MOL   H43045916   0.749   6.335   2.102 -2.2984 -3.9901 -1.9746
   64MOL   H43145917   0.643   6.608   2.000  1.5306  0.9178  1.9494
   64MOL   H43245918   0.637   6.289   2.803  0.5879  1.8579 -1.6936
   64MOL   H43345919   0.834   6.367   2.946 -0.4324  0.2665  0.3224
   64MOL   C43445920   0.786   6.537   1.898  0.7068  1.1118  0.0414
   64MOL   O43545921   0.864   6.443   1.871  0.2006  0.0761  0.5454
   64MOL   C43645922   0.768   6.666   1.818  0.1499  0.2778 -0.5249
   64MOL   C43745923   0.812   6.676   1.684  0.0310 -0.1994  0.0175
   64MOL   C43845924   0.801   6.800   1.615  1.0696  0.0329 -0.4572
   64MOL   C43945925   0.763   6.916   1.689 -0.5931 -0.8117  0.4435
   64MOL   C44045926   0.762   7.053   1.623  0.4474  0.0324 -0.2496
   64MOL   O44145927   0.662   7.127   1.636 -0.2312 -0.5678  0.5134
   64MOL   N44245928   0.868   7.081   1.544  0.0486 -0.1034 -0.5075
   64MOL   C44345929   0.888   7.214   1.494  0.2173  0.9609  0.4037
   64MOL   C44445930   0.812   7.227   1.365  0.3641  1.0114 -0.5928
   64MOL   C44545931   0.853   7.138   1.243 -0.2020  0.4344 -0.7494
   64MOL   C44645932   0.790   6.997   1.232  0.4063 -0.6008 -0.1836
   64MOL   C44745933   0.635   7.006   1.247 -0.0694  0.3925  0.3473
   64MOL   C44845934   0.570   6.867   1.234  0.0567 -1.2403 -0.4581
   64MOL   N44945935   0.424   6.882   1.226 -0.3930  0.7174  0.4155
   64MOL   C45045936   0.722   6.897   1.824  0.5362 -0.2619 -0.0414
   64MOL   C45145937   0.728   6.779   1.894 -0.3959  0.2745  0.2854
   64MOL   H45245938   0.865   6.595   1.635 -2.5444 -1.6179 -0.5094
   64MOL   H45345939   0.808   6.806   1.507  1.7254  0.5722 -0.3890
   64MOL   H45445940   0.943   7.014   1.535  1.1004  1.1957 -1.7469
   64MOL   H45545941   0.847   7.286   1.564 -0.6304 -0.1673  1.0915
   64MOL   H45645942   0.996   7.232   1.490  0.3340 -0.0128 -1.3052
   64MOL   H45745943   0.804   7.332   1.337 -1.0332  0.9892 -0.2917
   64MOL   H45845944   0.705   7.224   1.383  0.5228  1.1393  0.3706
   64MOL   H45945945   0.823   7.194   1.154 -2.7666 -1.6419 -1.2512
   64MOL   H46045946   0.961   7.137   1.225 -0.0506  1.7176  0.0001
   64MOL   H46145947   0.825   6.931   1.311 -1.0563 -0.9220  0.2023
   64MOL   H46245948   0.808   6.967   1.128 -0.6001  0.4241 -0.6587
   64MOL   H46345949   0.601   7.059   1.158 -0.7365  2.0200  1.5429
   64MOL   H46445950   0.606   7.055   1.340 -1.7888 -0.1379  0.1132
   64MOL   H46545951   0.600   6.802   1.152 -0.4225 -1.7037 -0.2739
   64MOL   H46645952   0.594   6.814   1.326  1.3348 -1.5349 -0.9653
   64MOL   H46745953   0.387   6.962   1.178  1.1734  1.6805  0.7698
   64MOL   H46845954   0.701   6.976   1.893 -3.1638 -1.0120 -0.2198
   64MOL   H46945955   0.693   6.772   1.995 -1.4235 -0.1770 -0.0986
   64MOL   C47045956   0.344   6.784   1.267 -0.2528 -0.2063 -0.4477
   64MOL   O47145957   0.377   6.677   1.309 -0.1220 -0.0276  0.2280
   64MOL   C47245958   0.193   6.820   1.268 -0.1629 -0.3602 -0.0719
   64MOL   C47345959   0.108   6.813   1.384 -0.0617  0.4237 -0.7088
   64MOL   C47445960   7.862   6.854   1.380 -0.7407  0.5435 -0.5697
   64MOL   C47545961   7.807   6.891   1.250  0.3525 -0.1408 -0.4947
   64MOL   C47645962   7.660   6.934   1.237 -0.3526  0.3469  0.6345
   64MOL   O47745963   7.618   6.998   1.140 -0.3748  0.0357  0.4940
   64MOL   N47845964   7.590   6.906   1.347  0.2911 -0.3546  0.0839
   64MOL   C47945965   7.453   6.947   1.370 -0.1245  0.2272  0.6156
   64MOL   C48045966   7.452   7.087   1.435  0.2055 -0.2273  0.2539
   64MOL   C48145967   7.313   7.146   1.461  0.3211  0.6255 -0.2812
   64MOL   C48245968   7.327   7.280   1.536  0.2177  0.1960  0.2313
   64MOL   C48345969   7.199   7.349   1.551  0.6107 -0.4928  0.2428
   64MOL   C48445970   7.191   7.492   1.592  0.0703 -0.3011 -0.5369
   64MOL   N48545971   7.217   7.586   1.486  0.3540 -0.0714  0.1384
   64MOL   C48645972   0.005   6.910   1.139 -0.2433 -0.9929 -0.5472
   64MOL   C48745973   0.139   6.873   1.144 -0.1642  0.3083  0.1337
   64MOL   H48845974   0.156   6.786   1.477 -0.5940 -0.9427 -0.8183
   64MOL   H48945975   7.811   6.852   1.476  0.0406 -1.3620 -0.1706
   64MOL   H49045976   7.634   6.859   1.424  1.1084  2.5791  1.4885
   64MOL   H49145977   7.389   6.945   1.282  1.5343 -0.5348 -0.5837
   64MOL   H49245978   7.423   6.874   1.445  0.3414 -1.6770 -1.0364
   64MOL   H49345979   7.504   7.153   1.365 -0.6656  0.4149  0.1954
   64MOL   H49445980   7.506   7.084   1.530  0.9601  4.4325  0.0898
   64MOL   H49545981   7.269   7.174   1.365  0.2908 -2.5670 -1.2588
   64MOL   H49645982   7.247   7.082   1.520 -1.0763  2.2810 -0.0157
   64MOL   H49745983   7.393   7.341   1.474  1.0021 -0.5309  0.3310
   64MOL   H49845984   7.370   7.256   1.633  2.2389 -1.9722 -1.1221
   64MOL   H49945985   7.141   7.289   1.621 -2.0167  1.9785  0.2892
   64MOL   H50045986   7.148   7.350   1.455 -0.3159 -1.6449  0.7021
   64MOL   H50145987   7.090   7.510   1.630  0.1204 -0.6666 -0.2277
   64MOL   H50245988   7.266   7.506   1.670  0.0906 -2.4930 -0.1330
   64MOL   H50345989   7.152   7.591   1.409  1.5235 -0.0464 -0.8548
   64MOL   H50445990   7.852   6.942   1.043 -0.9067  2.4055  0.7738
   64MOL   H50545991   0.213   6.868   1.066 -0.3333 -0.0222 -0.0089
   64MOL   C50645992   7.304   7.684   1.486 -0.7506  0.2502 -0.1309
   64MOL   O50745993   7.381   7.702   1.579  0.4958  0.1467 -0.0056
   64MOL   C50845994   7.305   7.785   1.372 -0.4301  0.0058 -0.4889
   64MOL   C50945995   7.426   7.835   1.319  0.4162 -0.3396  0.6701
   64MOL   C51045996   7.430   0.056   1.229 -0.4419  0.5970  0.7703
   64MOL   C51145997   7.309   0.113   1.194  0.6831  0.0522  0.1187
   64MOL   C51245998   7.309   0.228   1.096  0.5857 -0.1546  0.1717
   64MOL   O51345999   7.404   0.308   1.099  0.3491  0.2873 -0.9509
   64MOL   N51446000   7.220   0.228   1.000 -0.0065 -0.2782  0.3039
   64MOL   C51546001   7.212   0.321   0.884  0.0333  0.4849  0.2866
   64MOL   C51646002   7.284   0.253   0.762  0.1550 -0.0081 -0.7096
   64MOL   C51746003   7.199   0.174   0.664  0.4173 -0.0420  0.4489
   64MOL   C51846004   7.144   0.040   0.721  0.1213 -0.4575 -1.0470
   64MOL   C51946005   7.253   7.832   0.775  0.5450  0.0156  0.4197
   64MOL   C52046006   7.197   7.702   0.846  0.3383  0.1455 -0.2373
   64MOL   N52146007   7.309   7.632   0.908 -0.7305  0.4259  0.3211
   64MOL   C52246008   7.182   0.059   1.237 -0.7662  0.5273 -0.4584
   64MOL   C52346009   7.183   7.837   1.324 -0.1385 -0.6583 -0.5230
   64MOL   H52446010   7.520   7.795   1.353  0.1697 -0.8404  0.7568
   64MOL   H52546011   7.523   0.090   1.186  0.1103  0.7182  2.0481
   64MOL   H52646012   7.159   0.149   0.992 -0.3077 -0.3130  2.6543
   64MOL   H52746013   7.108   0.341   0.857 -1.2290 -2.7489  2.4649
   64MOL   H52846014   7.244   0.423   0.901 -1.6262  1.1850 -0.5979
   64MOL   H52946015   7.374   0.200   0.795 -1.7882 -1.9735  1.6229
   64MOL   H53046016   7.321   0.330   0.694  0.8460 -0.3210 -0.6973
   64MOL   H53146017   7.115   0.232   0.627  1.9649  2.9635  1.5333
   64MOL   H53246018   7.252   0.150   0.572 -0.3782  0.7130 -0.2103
   64MOL   H53346019   7.096   7.863   0.646  1.6108 -2.1095 -0.6417
   64MOL   H53446020   7.073   0.068   0.799  0.6154 -0.7235 -0.4991
   64MOL   H53546021   7.310   0.011   0.841  2.5464 -2.1664  0.9158
   64MOL   H53646022   7.319   7.806   0.692  1.1356  0.2921  0.8049
   64MOL   H53746023   7.117   7.724   0.915  0.3952  0.7428 -0.3550
   64MOL   H53846024   7.158   7.627   0.778  0.7000  0.0811 -0.3786
   64MOL   H53946025   7.399   7.645   0.862 -0.4230 -0.1051  0.7622
   64MOL   H54046026   7.095   0.104   1.191 -0.3181  1.5785 -0.3035
   64MOL   H54146027   7.094   7.788   1.360 -0.2778  1.7906  2.7617
   64MOL   C54246028   7.309   7.589   1.034 -0.4879 -0.1940  0.2631
   64MOL   O54346029   7.213   7.560   1.102 -0.0384 -0.1039 -0.1024
   64MOL   C54446030   7.443   7.574   1.097 -0.1816 -0.8925  0.0732
   64MOL   C54546031   7.466   7.515   1.223 -0.4892  0.7648  0.2786
   64MOL   C54646032   7.592   7.508   1.284  0.0190  0.1859  0.0141
   64MOL   C54746033   7.702   7.560   1.219  0.3359 -0.9851  0.6045
   64MOL   C54846034   7.841   7.547   1.288 -0.0570 -0.1500 -0.3986
   64MOL   O54946035   7.852   7.485   1.394  0.4165 -0.3634  0.9511
   64MOL   N55046036   0.058   7.614   1.234 -0.5108 -0.6783  0.2112
   64MOL   C55146037   0.202   7.603   1.268 -0.0512  0.3315  0.4432
   64MOL   C55246038   0.275   7.518   1.167 -0.0705 -0.0525  0.9395
   64MOL   C55346039   0.425   7.495   1.192  0.8916 -0.7624  0.6428
   64MOL   C55446040   0.497   7.615   1.247 -0.2755  0.0443  0.0743
   64MOL   C55546041   0.649   7.602   1.281 -0.1641 -0.1188 -0.2416
   64MOL   C55646042   0.720   7.737   1.295  0.3367  0.1624 -0.9386
   64MOL   N55746043   0.866   7.717   1.308  0.4868 -0.0283 -0.0905
   64MOL   C55846044   7.680   7.622   1.095 -0.4062 -0.3087  0.0836
   64MOL   C55946045   7.553   7.630   1.032 -0.1617 -0.2759  0.5036
   64MOL   H56046046   7.382   7.472   1.277  0.7469 -0.4940  1.2445
   64MOL   H56146047   7.605   7.459   1.379  1.0665  0.8263  0.2099
   64MOL   H56246048   0.039   7.661   1.146  1.4819 -0.9744 -0.4074
   64MOL   H56346049   0.233   7.707   1.274  1.6586 -0.2199  1.7645
   64MOL   H56446050   0.217   7.561   1.368  2.8121 -0.1007 -0.1066
   64MOL   H56546051   0.265   7.568   1.070  0.6137 -1.5507  0.0866
   64MOL   H56646052   0.228   7.421   1.154  1.8149 -0.9733  0.8584
   64MOL   H56746053   0.435   7.415   1.265 -0.2224 -0.5633  1.0146
   64MOL   H56846054   0.466   7.458   1.098 -0.4289 -4.8384  1.6038
   64MOL   H56946055   0.450   7.631   1.344  0.5005 -0.8314  0.6025
   64MOL   H57046056   0.488   7.706   1.187 -0.7333  0.4260  0.7050
   64MOL   H57146057   0.702   7.542   1.208  2.6970  2.0278 -0.0075
   64MOL   H57246058   0.662   7.561   1.381  1.1370  1.6531  0.3426
   64MOL   H57346059   0.692   7.798   1.209  0.0139 -1.9272 -2.3526
   64MOL   H57446060   0.681   7.795   1.378 -0.2385 -1.4578 -0.0683
   64MOL   H57546061   0.911   7.727   1.397  2.3612  0.9520 -1.1024
   64MOL   H57646062   7.766   7.653   1.038  1.1713 -1.3674  1.7955
   64MOL   H57746063   7.552   7.681   0.937 -0.7894  0.9296  1.1555
   64MOL   C57846064   0.941   7.678   1.207  0.4689 -0.2730  0.2348
   64MOL   O57946065   0.896   7.662   1.094  0.1211 -0.1800 -0.1869
   64MOL   C58046066   1.086   7.658   1.243 -0.1151 -0.0227 -0.2952
   64MOL   C58146067   1.159   7.770   1.292 -0.5288 -0.1535 -0.1322
   64MOL   C58246068   1.297   7.745   1.323 -0.9196  0.3402 -0.5043
   64MOL   C58346069   1.357   7.621   1.284 -0.2426  0.0976 -0.6549
   64MOL   C58446070   1.507   7.605   1.309  0.6472 -0.1416 -1.4778
   64MOL   O58546071   1.587   7.571   1.223 -0.0001 -0.0568  0.8412
   64MOL   N58646072   1.534   7.603   1.436 -0.2961 -0.0041  0.5244
   64MOL   C58746073   1.660   7.574   1.496 -0.4570  1.0730  0.0164
   64MOL   C58846074   1.678   7.432   1.558  0.4739  0.0618 -0.1821
   64MOL   C58946075   1.806   7.421   1.644  0.1119 -0.4523  0.4204
   64MOL   C59046076   1.835   7.279   1.679 -0.8070  0.0803  0.7393
   64MOL   C59146077   1.910   7.208   1.562  0.0343  0.2337 -0.2601
   64MOL   C59246078   1.897   7.053   1.549  0.0482  0.5755 -0.3927
   64MOL   N59346079   1.760   7.002   1.522 -1.3176  0.4124 -0.1512
   64MOL   C59446080   1.280   7.515   1.238  0.1497 -0.1625  0.1185
   64MOL   C59546081   1.143   7.533   1.233 -0.3264  0.7261  0.0505
   64MOL   H59646082   1.111   7.866   1.305  0.0117  0.0312  0.5438
   64MOL   H59746083   1.360   7.821   1.367 -0.0094  0.1407 -1.4283
   64MOL   H59846084   1.459   7.639   1.493 -1.1393 -0.0795 -0.5132
   64MOL   H59946085   1.744   7.601   1.432  1.1853 -0.5145  1.4358
   64MOL   H60046086   1.666   7.644   1.579  1.7037 -1.0783  1.7511
   64MOL   H60146087   1.662   7.358   1.479  2.3009 -0.6570  0.1017
   64MOL   H60246088   1.590   7.403   1.616  0.8965 -0.2380  0.3131
   64MOL   H60346089   1.890   7.463   1.589 -1.4970  1.4140 -0.6627
   64MOL   H60446090   1.786   7.481   1.733 -1.0152 -3.9716  2.6401
   64MOL   H60546091   1.741   7.227   1.698 -0.0873 -1.2154  0.7586
   64MOL   H60646092   1.886   7.265   1.774 -1.8773 -0.0904  1.3005
   64MOL   H60746093   2.013   7.241   1.563 -0.3309  1.4351 -1.1145
   64MOL   H60846094   1.880   7.256   1.469 -0.0391  0.9601  0.1383
   64MOL   H60946095   1.956   7.025   1.463  0.6896 -1.7933  0.7875
   64MOL   H61046096   1.943   7.012   1.639 -1.1185  0.5721  0.2178
   64MOL   H61146097   1.730   7.026   1.428  0.1694  0.7353 -0.5607
   64MOL   H61246098   1.337   7.425   1.219  2.5536  1.3591 -0.0713
   64MOL   H61346099   1.080   7.451   1.204  1.0505 -0.1313 -0.5642
   64MOL   C61446100   1.661   6.976   1.609 -0.0472 -0.1879  0.0833
   64MOL   O61546101   1.678   6.982   1.733  0.6433  0.3374 -0.3692
   64MOL   C61646102   1.534   6.936   1.538 -0.3470  0.3409 -0.0479
   64MOL   C61746103   1.404   6.985   1.587 -0.1307 -0.3206  0.2828
   64MOL   C61846104   1.284   6.942   1.526  0.1740  0.0850  0.0728
   64MOL   C61946105   1.289   6.848   1.415  0.2451  0.6099  0.1346
   64MOL   C62046106   1.161   6.799   1.363  0.0621  0.3616 -0.3502
   64MOL   O62146107   1.055   6.858   1.386  0.2710  0.4611  0.7925
   64MOL   N62246108   1.170   6.683   1.301 -0.0384 -0.3437  0.1989
   64MOL   C62346109   1.052   6.615   1.242  0.1667 -0.5166 -0.0123
   64MOL   C62446110   0.948   6.570   1.345  0.0331  0.7142 -0.0828
   64MOL   C62546111   0.823   6.515   1.284 -0.4922 -0.0362 -0.2709
   64MOL   C62646112   0.726   6.466   1.392  0.4159  0.5400 -0.5299
   64MOL   C62746113   0.596   6.416   1.334  0.7273  0.1813 -0.2221
   64MOL   C62846114   0.500   6.367   1.448  0.3945  0.2242 -1.1595
   64MOL   N62946115   0.460   6.487   1.523 -0.0579 -0.2516 -0.1055
   64MOL   C63046116   1.419   6.802   1.365 -0.3950 -0.3885  0.5676
   64MOL   C63146117   1.534   6.847   1.432  0.0419 -0.3867 -0.0834
   64MOL   H63246118   1.402   7.054   1.671 -0.0311  2.2235 -1.7509
   64MOL   H63346119   1.185   6.971   1.558 -0.5828  1.3119 -3.2329
   64MOL   H63446120   1.263   6.644   1.295 -0.4668 -1.2872 -0.3523
   64MOL   H63546121   1.011   6.680   1.165 -0.2549 -0.3341  0.3645
   64MOL   H63646122   1.091   6.522   1.199 -1.2499 -0.5317 -1.3335
   64MOL   H63746123   0.912   6.656   1.403 -1.2900 -0.2418  0.5415
   64MOL   H63846124   0.990   6.497   1.414 -1.0571 -1.3493 -1.5390
   64MOL   H63946125   0.770   6.595   1.232 -0.0636  0.5235  0.1491
   64MOL   H64046126   0.850   6.429   1.222 -2.7515 -0.4368 -0.7691
   64MOL   H64146127   0.699   6.545   1.462  0.1747  0.5230 -0.6047
   64MOL   H64246128   0.768   6.387   1.455  0.8939  2.0187  1.0220
   64MOL   H64346129   0.616   6.332   1.267 -0.9846  0.7580 -1.4725
   64MOL   H64446130   0.537   6.490   1.281 -0.1010 -0.0735  0.3375
   64MOL   H64546131   0.416   6.309   1.412  0.1143  0.7038 -1.2734
   64MOL   H64646132   0.552   6.302   1.519  0.1119  1.4425  0.1769
   64MOL   H64746133   0.433   6.567   1.469 -0.6669 -0.5492 -0.2463
   64MOL   H64846134   1.424   6.743   1.275 -3.0762  1.3248 -0.8090
   64MOL   H64946135   1.627   6.803   1.397 -1.4295 -1.5450 -2.6735
   64MOL   C65046136   0.447   6.505   1.654  0.0417  0.2831  0.4613
   64MOL   O65146137   0.450   6.409   1.730  0.1919 -1.2593  0.0904
   64MOL   C65246138   0.421   6.646   1.709 -0.2106  0.2743  0.3434
   64MOL   C65346139   0.368   6.660   1.838  0.6702 -0.2514 -0.4843
   64MOL   C65446140   0.357   6.787   1.898  1.0760  0.0870 -0.6112
   64MOL   C65546141   0.388   6.901   1.831 -0.1493 -0.2741  0.0669
   64MOL   C65646142   0.382   7.028   1.904 -0.0953 -0.4410  0.2771
   64MOL   O65746143   0.303   7.038   1.999 -0.3806  0.4878 -0.1660
   64MOL   N65846144   0.472   7.125   1.861  0.4076  0.0860  0.7635
   64MOL   C65946145   0.510   7.245   1.939 -0.0112  0.0422 -0.4936
   64MOL   C66046146   0.651   7.291   1.910 -0.9822 -0.1252  0.3166
   64MOL   C66146147   0.692   7.423   1.967 -0.8391 -0.1149 -0.3959
   64MOL   C66246148   0.826   7.465   1.906  0.1104  0.3328 -0.1324
   64MOL   C66346149   0.857   7.615   1.948 -0.6103  0.6277  0.0285
   64MOL   C66446150   0.971   7.676   1.878 -0.1509  0.3447  0.0219
   64MOL   N66546151   0.972   7.825   1.897  0.0752 -0.0776 -1.1079
   64MOL   C66646152   0.427   6.888   1.694 -0.4057 -0.1356  0.6483
   64MOL   C66746153   0.442   6.764   1.632  0.2431  0.2008  0.0131
   64MOL   H66846154   0.354   6.570   1.896 -0.5953 -0.9572 -1.8499
   64MOL   H66946155   0.336   6.797   2.003 -0.9449 -0.8978 -0.8827
   64MOL   H67046156   0.531   7.104   1.781  0.3309 -0.9924  0.9767
   64MOL   H67146157   0.434   7.321   1.921 -1.0998 -0.6587  1.0940
   64MOL   H67246158   0.496   7.229   2.046  1.0473  1.2160 -0.1616
   64MOL   H67346159   0.656   7.303   1.801  1.5640  3.5231  0.7379
   64MOL   H67446160   0.726   7.219   1.943 -0.7584  0.3322  0.8117
   64MOL   H67546161   0.618   7.497   1.937 -1.6568 -0.3436  1.0132
   64MOL   H67646162   0.686   7.409   2.075 -0.1299  1.3573 -0.1538
   64MOL   H67746163   0.830   7.450   1.798 -1.6187  1.1579 -0.3355
   64MOL   H67846164   0.900   7.399   1.952  0.6429  1.5894  0.8456
   64MOL   H67946165   0.881   7.620   2.054 -0.5904  1.0235  0.0067
   64MOL   H68046166   0.774   7.684   1.936  0.1934  1.8097  1.1994
   64MOL   H68146167   1.064   7.651   1.929 -1.1262 -2.9402  0.3053
   64MOL   H68246168   0.984   7.650   1.773 -2.0819  2.8132 -0.8920
   64MOL   H68346169   0.892   7.878   1.866 -0.2506  0.6985  0.9387
   64MOL   H68446170   0.443   6.974   1.630 -0.5404 -0.0099  0.7830
   64MOL   H68546171   0.484   6.773   1.533 -4.3995 -0.2978 -2.1125
   64MOL   C68646172   1.070   0.018   1.934  0.4353  0.6087 -0.6051
   64MOL   O68746173   1.185   7.862   1.960 -0.2136  0.2271 -0.5878
   64MOL   C68846174   1.041   0.164   1.920 -0.2792 -0.2302  0.3491
   64MOL   C68946175   1.143   0.254   1.879 -0.9886 -0.2419 -0.0647
   64MOL   C69046176   1.103   0.383   1.835 -0.5822 -0.0919 -0.5753
   64MOL   C69146177   0.970   0.431   1.845 -1.0287 -0.0156  0.1569
   64MOL   C69246178   0.936   0.568   1.798 -0.1248 -0.0215 -0.9869
   64MOL   O69346179   1.020   0.652   1.767  0.4057 -0.1405 -0.5301
   64MOL   N69446180   0.803   0.593   1.798 -0.0305  0.7320  0.3899
   64MOL   C69546181   0.741   0.717   1.741  0.7706  0.0780  0.5733
   64MOL   C69646182   0.646   0.668   1.628  0.1614  0.1674 -0.8635
   64MOL   C69746183   0.720   0.593   1.514 -0.3991 -0.5776 -0.5966
   64MOL   C69846184   0.844   0.665   1.451  0.2411  0.4198  0.0376
   64MOL   C69946185   0.806   0.785   1.363  0.3988  0.1894  0.7584
   64MOL   C70046186   0.850   0.768   1.221  0.2487 -0.1233  0.8744
   64MOL   N70146187   0.841   0.897   1.156  0.3286 -0.2944 -0.3103
   64MOL   C70246188   0.870   0.338   1.897 -1.1306  0.8495 -0.5650
   64MOL   C70346189   0.905   0.207   1.940  0.2776 -0.2768  0.1270
   64MOL   H70446190   1.242   0.215   1.860 -1.1842 -0.2098 -1.1603
   64MOL   H70546191   1.176   0.447   1.787 -0.9271  0.3741 -0.4796
   64MOL   H70646192   0.745   0.522   1.841  0.0160  0.4143 -0.0648
   64MOL   H70746193   0.694   0.777   1.819  1.3716  0.2237  0.8250
   64MOL   H70846194   0.812   0.786   1.696  1.1016 -1.6965 -1.6918
   64MOL   H70946195   0.592   0.760   1.603  1.6185  1.9266  2.1912
   64MOL   H71046196   0.568   0.605   1.669 -1.1506  2.8498  0.8814
   64MOL   H71146197   0.741   0.493   1.550 -0.1400 -0.2397  0.2121
   64MOL   H71246198   0.638   0.576   1.445  0.2801 -0.6699 -1.3861
   64MOL   H71346199   0.894   0.592   1.388  3.3582  3.3486 -1.0819
   64MOL   H71446200   0.917   0.693   1.527 -1.2202  0.6834  1.3732
   64MOL   H71546201   0.839   0.876   1.414 -0.9938  1.2128 -0.1207
   64MOL   H71646202   0.697   0.788   1.370  0.2978 -0.1777 -0.5240
   64MOL   H71746203   0.953   0.736   1.203 -0.0538 -0.4622 -0.3578
   64MOL   H71846204   0.772   0.714   1.166 -0.6629  0.4037  1.6352
   64MOL   H71946205   0.753   0.944   1.172 -1.3662 -3.0057 -1.4426
   64MOL   H72046206   0.767   0.365   1.914 -2.0262 -1.1817 -2.5270
   64MOL   H72146207   0.831   0.155   1.999 -0.1614  0.0438 -0.1351
   64MOL   H72246208   0.839   0.895   1.055  0.1705 -0.9950 -0.2886
   65MOL     C146209   3.381   1.428   6.627 -0.0101  0.9236  0.0620
   65MOL     O246210   3.457   1.351   6.569 -0.2503  0.1789 -0.0909
   65MOL     C346211   3.405   1.474   6.772 -0.5983 -0.4552 -0.3097
   65MOL     C446212   3.294   1.518   6.841  0.5498 -0.0466  0.3129
   65MOL     C546213   3.310   1.560   6.977  0.5989 -0.1202 -0.0758
   65MOL     C646214   3.432   1.546   7.040  0.4724  0.4316 -0.3671
   65MOL     C746215   3.460   1.572   7.184  0.7776  0.5351  0.3923
   65MOL     O846216   3.538   1.500   7.249  0.3796 -0.2844 -0.3184
   65MOL     N946217   3.381   1.671   7.234  0.5494 -0.2697  0.3141
   65MOL    C1046218   3.369   1.711   7.374  0.2886  0.2442  0.2252
   65MOL    C1146219   3.335   1.859   7.396  0.1711 -0.1999 -0.1177
   65MOL    C1246220   3.439   1.960   7.350  0.5341 -0.6157  0.0816
   65MOL    C1346221   3.415   2.104   7.395  0.3820  0.1938  0.3521
   65MOL    C1446222   3.437   2.113   7.544 -0.1168  0.5014  0.7018
   65MOL    C1546223   3.396   2.240   7.599  0.2204  0.6121 -0.5545
   65MOL    N1646224   3.396   2.235   7.745 -0.2154 -0.4718 -0.2990
   65MOL    C1746225   3.542   1.492   6.971  0.5533 -0.1182 -0.9492
   65MOL    C1846226   3.533   1.464   6.833  0.2440  0.2291  0.2803
   65MOL    H1946227   3.196   1.518   6.797 -0.4647  0.7103  2.5334
   65MOL    H2046228   3.227   1.597   7.035  0.1708  0.2522 -0.9157
   65MOL    H2146229   3.317   1.717   7.171  1.5259 -2.2986 -2.2258
   65MOL    H2246230   3.288   1.645   7.404  1.2474 -0.4733  1.2728
   65MOL    H2346231   3.447   1.683   7.444 -0.4276 -0.1299  0.8837
   65MOL    H2446232   3.318   1.873   7.503  1.2056  2.2681 -0.2437
   65MOL    H2546233   3.247   1.869   7.333  0.8760  0.5352 -1.0122
   65MOL    H2646234   3.531   1.916   7.389  0.5411 -0.5905  0.0943
   65MOL    H2746235   3.431   1.959   7.242 -1.6603  0.8772  0.2148
   65MOL    H2846236   3.312   2.138   7.388  0.4527  0.1342 -1.2372
   65MOL    H2946237   3.486   2.170   7.345  0.2988 -0.6620 -0.9360
   65MOL    H3046238   3.536   2.083   7.580  0.2183  1.2204  0.3966
   65MOL    H3146239   3.374   2.038   7.591  1.8573 -2.6832 -1.5347
   65MOL    H3246240   3.463   2.319   7.565  1.4446 -1.1179 -2.2454
   65MOL    H3346241   3.295   2.268   7.568 -0.2063  2.8061  2.5669
   65MOL    H3446242   3.432   2.147   7.780 -0.9369 -1.3217 -1.6391
   65MOL    H3546243   3.634   1.456   7.014  0.6268  0.2462 -0.8021
   65MOL    H3646244   3.617   1.426   6.778  1.5476  1.2654  1.5008
   65MOL    H3746245   3.285   1.455   6.583  0.5771  1.1270 -1.1192
   65MOL    C3846246   3.311   2.308   7.827 -0.8693 -0.6992  0.7129
   65MOL    O3946247   3.247   2.404   7.784 -0.2561  0.2196  0.5493
   65MOL    C4046248   3.302   2.255   0.077 -0.8757 -0.1594 -0.1088
   65MOL    C4146249   3.289   2.119   0.108  0.0805  0.2345  0.1430
   65MOL    C4246250   3.276   2.075   0.246 -0.4439  0.5632  0.4774
   65MOL    C4346251   3.283   2.168   0.342 -0.2876  0.4145  0.2090
   65MOL    C4446252   3.252   2.115   0.476 -0.9028  0.2310 -0.9421
   65MOL    O4546253   3.186   2.013   0.493  0.3241 -0.1625 -0.2255
   65MOL    N4646254   3.294   2.180   0.581 -0.7978  0.2516  0.5161
   65MOL    C4746255   3.261   2.156   0.718 -0.2925 -0.1724  0.1880
   65MOL    C4846256   3.154   2.249   0.770 -0.3157 -0.4009  0.4082
   65MOL    C4946257   3.108   2.217   0.914 -0.7924  0.0671 -0.0565
   65MOL    C5046258   3.002   2.308   0.971  0.0673 -0.2798 -0.0114
   65MOL    C5146259   2.912   2.267   1.092  0.2317 -0.2893 -0.2688
   65MOL    C5246260   2.820   2.376   1.147 -0.0657 -0.1488  0.1346
   65MOL    N5346261   2.900   2.481   1.212 -0.0036  0.2897  0.1194
   65MOL    C5446262   3.300   2.305   0.317 -0.3122 -0.8229 -0.0899
   65MOL    C5546263   3.308   2.345   0.182  0.2773 -0.4461 -0.7236
   65MOL    H5646264   3.277   2.044   0.031  0.1859  0.3677 -0.0035
   65MOL    H5746265   3.268   1.972   0.280  3.2386 -0.1454 -0.5952
   65MOL    H5846266   3.372   2.241   0.562 -1.9478  1.6576  0.1849
   65MOL    H5946267   3.224   2.058   0.749 -1.3297 -0.1624 -0.9840
   65MOL    H6046268   3.352   2.167   0.776 -1.6105  1.2135  2.0619
   65MOL    H6146269   3.065   2.244   0.707  0.4013 -2.9843 -0.4522
   65MOL    H6246270   3.181   2.355   0.766 -0.8293 -0.2556  0.6780
   65MOL    H6346271   3.069   2.117   0.934  1.4254 -0.6291  0.9382
   65MOL    H6446272   3.197   2.208   0.976 -0.3200  3.4160 -0.1428
   65MOL    H6546273   2.933   2.331   0.889 -0.4014 -1.4949  0.0213
   65MOL    H6646274   3.062   2.396   0.990  0.6937 -1.0618  1.7506
   65MOL    H6746275   2.978   2.235   1.172  1.2984  0.8449 -0.6907
   65MOL    H6846276   2.856   2.179   1.059  1.4799 -0.5625 -1.7171
   65MOL    H6946277   2.761   2.409   1.062  0.7965 -1.0215 -0.8040
   65MOL    H7046278   2.750   2.340   1.223 -0.9954  0.2257 -0.5352
   65MOL    H7146279   2.999   2.469   1.193 -0.5240 -0.2924 -2.4498
   65MOL    H7246280   3.292   2.375   0.399  1.7128  0.1227 -0.6793
   65MOL    H7346281   3.317   2.449   0.156  1.5090 -0.4281 -0.2610
   65MOL    C7446282   2.858   2.591   1.271 -0.1944 -0.5504 -0.3573
   65MOL    O7546283   2.740   2.621   1.276 -0.3014  0.4276  0.2566
   65MOL    C7646284   2.959   2.663   1.357 -0.4492  0.1285  0.4750
   65MOL    C7746285   2.936   2.795   1.405 -0.5534  0.0817  0.6498
   65MOL    C7846286   3.015   2.849   1.505 -0.3448  0.7331 -0.6944
   65MOL    C7946287   3.122   2.786   1.557  0.1246  0.1215  0.2710
   65MOL    C8046288   3.201   2.840   1.674  0.4961 -0.5123 -0.3264
   65MOL    O8146289   3.287   2.772   1.729  0.0953 -0.3540 -0.4688
   65MOL    N8246290   3.166   2.963   1.717  0.3020 -0.2280 -0.1247
   65MOL    C8346291   3.228   3.032   1.835  0.0369 -0.1246  0.4795
   65MOL    C8446292   3.162   3.014   1.971  0.0828 -0.1726  0.2255
   65MOL    C8546293   3.114   2.869   1.999  0.1342 -0.2333  0.1503
   65MOL    C8646294   3.059   2.868   2.145  0.6496 -0.4643 -0.0746
   65MOL    C8746295   2.993   2.738   2.170  0.0851 -0.6449  0.3286
   65MOL    C8846296   2.988   2.708   2.324  0.1597 -0.1622 -0.0680
   65MOL    N8946297   2.951   2.575   2.352 -0.8267 -0.4493  0.0777
   65MOL    C9046298   3.162   2.667   1.497  0.3833  0.0619  0.3010
   65MOL    C9146299   3.076   2.604   1.401 -0.1564  0.4223 -0.2370
   65MOL    H9246300   2.854   2.854   1.368 -0.5316  0.9003  1.8682
   65MOL    H9346301   2.976   2.945   1.536 -0.5411  0.8141 -1.1853
   65MOL    H9446302   3.083   3.006   1.679 -1.6013 -3.3762  0.3738
   65MOL    H9546303   3.332   3.000   1.849  0.2312  1.4026  2.7466
   65MOL    H9646304   3.232   3.138   1.812 -0.8042 -0.1212  0.3546
   65MOL    H9746305   3.081   3.085   1.987 -1.5263 -1.4573 -2.0023
   65MOL    H9846306   3.233   3.030   2.052  1.5267 -2.9399 -0.4325
   65MOL    H9946307   3.041   2.840   1.923 -0.1951  0.5055  0.1781
   65MOL   H10046308   3.188   2.791   1.983 -1.3650 -1.6173 -0.1095
   65MOL   H10146309   2.985   2.946   2.161 -0.8958 -1.8371 -0.4247
   65MOL   H10246310   3.137   2.889   2.218 -0.0251  0.8841  0.2903
   65MOL   H10346311   3.052   2.657   2.128 -1.8248 -1.5451 -0.6822
   65MOL   H10446312   2.893   2.738   2.128 -0.4133  0.4667  1.4915
   65MOL   H10546313   3.084   2.738   2.366  0.7146 -0.6771 -0.9399
   65MOL   H10646314   2.917   2.777   2.368  1.7970  0.1717  2.1323
   65MOL   H10746315   2.907   2.526   2.276 -0.9240  0.2932 -0.3485
   65MOL   H10846316   3.253   2.621   1.534 -0.0333  0.9687  2.5350
   65MOL   H10946317   3.109   2.507   1.366 -0.4333  0.8257 -1.6379
   65MOL   C11046318   2.966   2.520   2.476  0.4710 -0.6678 -0.8889
   65MOL   O11146319   2.991   2.585   2.579 -0.2041  0.7816 -0.0336
   65MOL   C11246320   2.942   2.369   2.474 -0.5194  0.7237 -0.4036
   65MOL   C11346321   2.971   2.285   2.360  0.4094  0.1944 -0.0824
   65MOL   C11446322   2.947   2.146   2.359 -0.3422 -0.3521  0.0668
   65MOL   C11546323   2.896   2.082   2.475  0.1990 -0.2956 -0.4596
   65MOL   C11646324   2.875   1.931   2.489 -0.1088  0.7628 -0.4429
   65MOL   O11746325   2.913   1.876   2.591  0.1168 -0.1627  0.3310
   65MOL   N11846326   2.814   1.874   2.386  0.3059  1.0196  0.4319
   65MOL   C11946327   2.778   1.733   2.382 -0.6781 -0.4814  0.6833
   65MOL   C12046328   2.639   1.711   2.430  0.1509 -0.4905  0.0737
   65MOL   C12146329   2.618   1.726   2.580  0.1114 -0.1839 -0.1804
   65MOL   C12246330   2.468   1.695   2.615 -0.4208 -0.6489 -0.2350
   65MOL   C12346331   2.435   1.707   2.764 -0.2348 -0.0233  0.2928
   65MOL   C12446332   2.286   1.713   2.792  0.3478  0.1984 -0.2181
   65MOL   N12546333   2.256   1.719   2.942 -0.1047  0.5476 -0.0229
   65MOL   C12646334   2.876   2.161   2.592  1.0049 -1.1576 -0.7257
   65MOL   C12746335   2.893   2.297   2.587 -0.2089 -0.7185  0.3807
   65MOL   H12846336   3.001   2.332   2.267 -0.0620  0.4843 -0.0901
   65MOL   H12946337   2.964   2.088   2.270  0.2392 -0.8779  0.5149
   65MOL   H13046338   2.779   1.937   2.315 -0.1606 -0.0198 -0.2792
   65MOL   H13146339   2.781   1.718   2.274 -0.3430  1.0103  0.4792
   65MOL   H13246340   2.845   1.672   2.443 -0.1713  0.2439  0.8429
   65MOL   H13346341   2.598   1.611   2.413  0.6168 -0.8693  1.1255
   65MOL   H13446342   2.562   1.771   2.380 -2.3205 -1.5009  2.5266
   65MOL   H13546343   2.682   1.663   2.641 -2.4194  0.4964  3.3565
   65MOL   H13646344   2.633   1.829   2.613  2.2624 -0.9256  1.2368
   65MOL   H13746345   2.434   1.600   2.574 -1.3428 -0.9821  1.2899
   65MOL   H13846346   2.412   1.766   2.554  1.6979 -0.5030 -2.1129
   65MOL   H13946347   2.486   1.799   2.791 -1.1316 -0.1280  2.4102
   65MOL   H14046348   2.478   1.631   2.830 -1.0137  1.6712  2.8047
   65MOL   H14146349   2.246   1.800   2.740  0.2340 -1.3963 -2.8612
   65MOL   H14246350   2.235   1.626   2.752 -0.6470  0.8493 -0.3883
   65MOL   H14346351   2.301   1.639   2.982 -1.4808 -0.9442 -1.3802
   65MOL   H14446352   2.849   2.109   2.682  0.2203  1.2204  0.4577
   65MOL   H14546353   2.884   2.352   2.680  1.1957 -1.0759  0.7384
   65MOL   C14646354   2.185   1.815   3.009  0.3463 -0.0471  0.1661
   65MOL   O14746355   2.130   1.907   2.949  0.0486 -0.5618  0.2416
   65MOL   C14846356   2.171   1.795   3.156 -0.4846  0.3831 -0.5002
   65MOL   C14946357   2.252   1.706   3.228 -0.2553 -0.2072  0.1773
   65MOL   C15046358   2.241   1.680   3.367 -0.4752  0.6381 -0.1570
   65MOL   C15146359   2.133   1.742   3.435  0.2264  0.3437  0.0069
   65MOL   C15246360   2.102   1.721   3.582 -0.4648  0.3831  0.1342
   65MOL   O15346361   2.082   1.612   3.628 -0.7311  0.5061 -0.0387
   65MOL   N15446362   2.107   1.837   3.654  0.4287  0.2276 -0.4202
   65MOL   C15546363   2.134   1.829   3.800 -0.0014 -0.4273  0.6398
   65MOL   C15646364   2.013   1.884   3.880 -0.1889  0.3644 -0.7666
   65MOL   C15746365   2.040   1.874   4.032 -0.5439 -0.5927 -0.1540
   65MOL   C15846366   1.950   1.964   4.111  0.8401 -0.7101  0.3848
   65MOL   C15946367   1.971   1.971   4.261  0.2857 -0.4717 -0.3678
   65MOL   C16046368   1.853   2.020   4.347  0.1748 -0.8320  0.0702
   65MOL   N16146369   1.905   2.054   4.484  0.1301  0.3046 -0.1806
   65MOL   C16246370   2.050   1.836   3.362 -0.3127  0.3218 -0.1710
   65MOL   C16346371   2.075   1.870   3.226  0.6739  0.0888 -0.6232
   65MOL   H16446372   2.333   1.654   3.178 -0.0021 -2.1947  2.5345
   65MOL   H16546373   2.310   1.616   3.420 -1.2008  0.8333  1.0277
   65MOL   H16646374   2.136   1.926   3.616 -0.9845  0.6493 -0.5513
   65MOL   H16746375   2.159   1.726   3.828  0.8528 -0.3171  0.3030
   65MOL   H16846376   2.233   1.873   3.811  0.8816 -2.2189  0.1598
   65MOL   H16946377   1.917   1.839   3.857 -1.0002  0.6459  1.8878
   65MOL   H17046378   2.003   1.989   3.853 -0.1557  0.8618  1.0727
   65MOL   H17146379   2.026   1.772   4.069  1.0419 -0.0077  2.1222
   65MOL   H17246380   2.145   1.899   4.040 -0.5734 -0.8849  1.3101
   65MOL   H17346381   1.847   1.936   4.093  0.6665  0.2277 -0.1269
   65MOL   H17446382   1.959   2.064   4.068  1.7290 -1.0792 -0.3158
   65MOL   H17546383   2.051   2.044   4.273  0.5111 -0.9524  1.1646
   65MOL   H17646384   2.017   1.882   4.303  0.6385 -0.7618 -1.3599
   65MOL   H17746385   1.805   2.110   4.311 -1.2040 -1.8488 -0.6742
   65MOL   H17846386   1.771   1.948   4.357 -0.6851  0.3241  1.7285
   65MOL   H17946387   1.975   1.986   4.510 -1.1079 -1.9206 -2.4436
   65MOL   H18046388   1.967   1.882   3.414 -0.3949 -1.2155  1.1037
   65MOL   H18146389   2.003   1.934   3.178 -0.7592 -0.7167  0.4091
   65MOL   C18246390   1.892   2.170   4.553 -0.4484 -0.3525 -0.0925
   65MOL   O18346391   1.816   2.255   4.518 -0.1007 -0.3523  0.1174
   65MOL   C18446392   1.983   2.197   4.669 -0.0520 -0.3690 -0.4886
   65MOL   C18546393   2.036   2.328   4.693 -0.0876 -0.5123 -0.5392
   65MOL   C18646394   2.117   2.354   4.805  0.1391  0.2384 -0.3533
   65MOL   C18746395   2.148   2.246   4.891 -0.1988 -0.3719  0.5051
   65MOL   C18846396   2.213   2.273   5.022  0.9918  0.5329 -1.0385
   65MOL   O18946397   2.244   2.180   5.095  0.2719  0.0103 -0.6070
   65MOL   N19046398   2.231   2.405   5.067  0.3395 -0.2249  0.3864
   65MOL   C19146399   2.278   2.441   5.196 -0.1214  0.1392 -0.7175
   65MOL   C19246400   2.225   2.584   5.239  0.6059  0.2030  0.9117
   65MOL   C19346401   2.082   2.567   5.282  0.2613  0.1106 -0.1510
   65MOL   C19446402   2.008   2.701   5.307  0.5639 -0.0241 -0.8885
   65MOL   C19546403   1.869   2.696   5.376  0.7532  0.1200 -0.1258
   65MOL   C19646404   1.805   2.833   5.411 -0.0953  0.5011  0.4117
   65MOL   N19746405   1.779   2.914   5.287  0.0416  0.0493 -0.1230
   65MOL   C19846406   2.098   2.116   4.866  0.8089 -0.6579 -0.4740
   65MOL   C19946407   2.011   2.090   4.759  0.2280 -0.1920 -0.5800
   65MOL   H20046408   2.022   2.410   4.624 -2.9170 -1.3108 -0.9782
   65MOL   H20146409   2.156   2.455   4.811 -1.1913  0.7636 -0.5078
   65MOL   H20246410   2.226   2.485   5.006  4.1023 -2.3335 -2.9170
   65MOL   H20346411   2.238   2.368   5.267  1.1119 -0.5475 -0.7204
   65MOL   H20446412   2.386   2.433   5.185 -0.1239 -0.5846 -0.2622
   65MOL   H20546413   2.231   2.649   5.152 -2.9883 -0.5059  0.0481
   65MOL   H20646414   2.280   2.633   5.319  0.2878  3.7449 -0.9526
   65MOL   H20746415   2.018   2.519   5.208 -0.4311  0.8399 -0.0320
   65MOL   H20846416   2.083   2.502   5.370  1.6971 -2.9163 -2.3110
   65MOL   H20946417   2.008   2.768   5.221  0.3810  1.7554  0.4781
   65MOL   H21046418   2.063   2.750   5.387 -1.6061  0.5521  0.2803
   65MOL   H21146419   1.879   2.653   5.475  0.7274 -1.1880 -0.6820
   65MOL   H21246420   1.800   2.624   5.330 -0.1469  1.6049 -1.1648
   65MOL   H21346421   1.712   2.821   5.466  0.3047 -1.7420  0.6443
   65MOL   H21446422   1.866   2.896   5.475 -0.7748  1.4901  0.0931
   65MOL   H21546423   1.703   2.886   5.226  0.4849 -0.5015 -0.4269
   65MOL   H21646424   2.125   2.027   4.921  3.1323 -0.4107 -1.1621
   65MOL   H21746425   1.968   1.995   4.731  0.1106  0.0912 -1.3833
   65MOL   C21846426   1.840   3.021   5.246  0.4486 -0.0162 -0.4274
   65MOL   O21946427   1.931   3.072   5.306 -0.1699 -0.0621  0.4975
   65MOL   C22046428   1.801   3.075   5.108 -0.0037  0.2327  0.8325
   65MOL   C22146429   1.849   3.196   5.053 -0.2680  0.1750  0.1278
   65MOL   C22246430   1.793   3.255   4.938  0.2725  0.0030 -0.1736
   65MOL   C22346431   1.693   3.183   4.869  0.1964  0.1127  0.3009
   65MOL   C22446432   1.632   3.238   4.746  0.1032  0.1150 -0.0322
   65MOL   O22546433   1.696   3.320   4.683  0.7572  0.5393 -1.2401
   65MOL   N22646434   1.506   3.209   4.721  0.6581 -0.5907 -0.2627
   65MOL   C22746435   1.444   3.237   4.594 -0.0348 -0.6490  0.1344
   65MOL   C22846436   1.313   3.162   4.595  0.2586  0.0057  0.3792
   65MOL   C22946437   1.316   3.008   4.600 -0.3949  0.0634  0.0378
   65MOL   C23046438   1.307   2.933   4.732  0.5382  0.5486 -0.7299
   65MOL   C23146439   1.234   2.801   4.713 -0.5242  0.6512 -1.1495
   65MOL   C23246440   1.313   2.707   4.619  0.1818 -0.6761  0.3318
   65MOL   N23346441   1.251   2.575   4.599  0.2433 -0.1297  0.4039
   65MOL   C23446442   1.660   3.052   4.909 -0.1588 -0.0509  0.8913
   65MOL   C23546443   1.701   3.009   5.036  0.3047 -0.4320 -0.0823
   65MOL   H23646444   1.927   3.244   5.110 -0.1952 -0.5178  0.6099
   65MOL   H23746445   1.818   3.353   4.900  2.9738 -0.5867  0.0027
   65MOL   H23846446   1.454   3.166   4.796 -0.9575  0.5620 -0.6924
   65MOL   H23946447   1.423   3.343   4.584  0.5419 -0.5543 -0.0338
   65MOL   H24046448   1.509   3.201   4.514  0.2626  0.4658 -0.1253
   65MOL   H24146449   1.260   3.193   4.505  1.7519  4.0690  0.7937
   65MOL   H24246450   1.262   3.198   4.684  1.8775 -0.3310  1.4768
   65MOL   H24346451   1.221   2.980   4.553 -1.1394  1.2198  0.8332
   65MOL   H24446452   1.397   2.966   4.541  1.0322  0.2122  1.8463
   65MOL   H24546453   1.261   2.998   4.806 -0.7880 -2.0327  0.7787
   65MOL   H24646454   1.408   2.914   4.768 -0.4377 -0.9966  1.2674
   65MOL   H24746455   1.135   2.809   4.668 -1.0147 -1.1615 -0.4224
   65MOL   H24846456   1.219   2.755   4.810 -0.7135  0.1043 -1.4338
   65MOL   H24946457   1.345   2.756   4.527 -0.0928  0.1288  0.6620
   65MOL   H25046458   1.409   2.700   4.671  0.0699 -0.3492  0.5869
   65MOL   H25146459   1.160   2.589   4.558  0.2779  2.1608  1.0262
   65MOL   H25246460   1.592   2.986   4.857  0.6847  0.6620 -1.1577
   65MOL   H25346461   1.657   2.919   5.077 -0.5160  0.8661  1.9592
   65MOL   C25446462   1.305   2.468   4.655  0.3262 -0.2912  0.2114
   65MOL   O25546463   1.418   2.466   4.700 -0.7384  0.0397 -0.3022
   65MOL   C25646464   1.215   2.344   4.641 -0.2656 -0.4479 -0.0272
   65MOL   C25746465   1.269   2.216   4.685  0.0977 -0.5842  0.4360
   65MOL   C25846466   1.207   2.090   4.658  0.0108  0.1695  0.9415
   65MOL   C25946467   1.075   2.097   4.602 -0.4609  0.3885 -0.2019
   65MOL   C26046468   0.995   1.967   4.587 -0.2273 -0.2317  0.3401
   65MOL   O26146469   0.945   1.937   4.481 -0.2590  0.3333  0.6951
   65MOL   N26246470   0.971   1.904   4.705 -0.0700  0.0419  0.0498
   65MOL   C26346471   0.885   1.788   4.713 -0.2021 -0.5697 -0.0911
   65MOL   C26446472   0.954   1.660   4.763 -0.0571  0.2335 -0.0398
   65MOL   C26546473   0.875   1.526   4.740  0.0676 -0.1104 -0.4576
   65MOL   C26646474   0.794   1.487   4.860  0.5571 -0.1311  0.3684
   65MOL   C26746475   0.813   1.334   4.897 -0.2815 -0.0899 -0.0831
   65MOL   C26846476   0.740   1.235   4.804 -0.3181 -0.6598  0.1222
   65MOL   N26946477   0.597   1.269   4.816  0.0443  0.0406 -0.3200
   65MOL   C27046478   1.029   2.224   4.556  0.4358  0.1877  0.2860
   65MOL   C27146479   1.093   2.349   4.573 -0.4395  0.3728  0.6565
   65MOL   H27246480   1.365   2.211   4.733  0.3392  0.3591  0.0643
   65MOL   H27346481   1.249   2.005   4.708  0.4446  0.6103  1.3348
   65MOL   H27446482   1.018   1.936   4.789 -0.5514  1.9303 -0.3815
   65MOL   H27546483   0.804   1.804   4.784 -0.9060  2.0581 -1.4244
   65MOL   H27646484   0.845   1.771   4.612 -1.2956  0.5744  0.1380
   65MOL   H27746485   0.973   1.662   4.870 -3.2709 -1.0270  0.5985
   65MOL   H27846486   1.055   1.644   4.725 -0.4386  1.6193 -1.7039
   65MOL   H27946487   0.820   1.549   4.649 -0.1525 -1.9240 -0.7973
   65MOL   H28046488   0.957   1.459   4.717 -0.0295 -0.0843 -0.8808
   65MOL   H28146489   0.692   1.509   4.830  0.3715 -1.0608  0.2877
   65MOL   H28246490   0.808   1.549   4.949 -1.2171 -0.1659  0.6893
   65MOL   H28346491   0.786   1.319   5.002  0.6281  2.1355  0.4927
   65MOL   H28446492   0.920   1.314   4.895 -0.0431  1.1832 -1.1636
   65MOL   H28546493   0.780   1.232   4.703 -0.6237 -0.2692 -0.0078
   65MOL   H28646494   0.755   1.134   4.845 -0.0135 -0.4081  0.6512
   65MOL   H28746495   0.568   1.359   4.781 -3.3618 -1.6366 -2.1313
   65MOL   H28846496   0.935   2.226   4.504  0.6185  1.7030  0.0152
   65MOL   H28946497   1.037   2.440   4.558 -2.6655 -0.8756  1.2361
   65MOL   C29046498   0.502   1.177   4.847  0.0040 -0.1773  0.0374
   65MOL   O29146499   0.524   1.062   4.877  0.1051 -0.2456  0.5269
   65MOL   C29246500   0.358   1.237   4.851 -0.4746  0.8150 -0.5133
   65MOL   C29346501   0.244   1.156   4.862 -0.1420  0.6494 -0.3172
   65MOL   C29446502   0.113   1.208   4.866  0.8727 -0.0471 -0.2396
   65MOL   C29546503   0.089   1.346   4.867 -0.1433 -0.9832 -0.2594
   65MOL   C29646504   7.836   1.405   4.862  0.3061 -0.2166  0.0065
   65MOL   O29746505   7.807   1.500   4.794 -0.0725 -0.1744  0.1828
   65MOL   N29846506   7.762   1.347   4.947 -0.7956  0.1575  0.0467
   65MOL   C29946507   7.620   1.365   4.969 -0.4987  0.0404  0.4457
   65MOL   C30046508   7.563   1.280   5.078  0.1439 -0.3226  0.5240
   65MOL   C30146509   7.600   1.132   5.075  0.1270  0.2775  0.1949
   65MOL   C30246510   7.515   1.052   5.179  0.6778 -1.1130 -0.1290
   65MOL   C30346511   7.374   1.025   5.144 -0.0799 -0.0026  0.3802
   65MOL   C30446512   7.302   0.920   5.233  0.1070 -0.3825 -0.2592
   65MOL   N30546513   7.315   0.936   5.381  0.2750 -0.2025 -0.1807
   65MOL   C30646514   0.206   1.428   4.849 -1.1882 -0.1859 -0.3136
   65MOL   C30746515   0.340   1.377   4.852 -0.1154 -0.6662 -0.2585
   65MOL   H30846516   0.260   1.049   4.872  1.3261  0.7594 -1.4276
   65MOL   H30946517   0.034   1.136   4.874  0.1928  0.6931 -0.1697
   65MOL   H31046518   7.813   1.300   5.020 -1.1098  0.4761  0.4757
   65MOL   H31146519   7.594   1.470   4.983 -1.0706 -0.0573  0.1390
   65MOL   H31246520   7.575   1.342   4.872  3.5426 -1.3865 -1.2216
   65MOL   H31346521   7.455   1.289   5.084  0.2544  3.4879 -1.1915
   65MOL   H31446522   7.607   1.335   5.162  3.0465 -0.2204 -0.9939
   65MOL   H31546523   7.576   1.101   4.973  1.2636  1.6377 -0.5082
   65MOL   H31646524   7.707   1.123   5.089  0.5957  2.2458 -1.7051
   65MOL   H31746525   7.521   1.104   5.275  1.0835 -1.8069  0.2238
   65MOL   H31846526   7.568   0.961   5.208 -0.9824 -1.7781  0.8755
   65MOL   H31946527   7.373   0.985   5.042 -0.3113  0.0824  0.3478
   65MOL   H32046528   7.321   1.121   5.138  1.1406  0.7709  1.7983
   65MOL   H32146529   7.196   0.904   5.215 -0.7647  1.4669  2.7657
   65MOL   H32246530   7.349   0.824   5.211 -0.1344 -0.1497 -1.8391
   65MOL   H32346531   7.404   0.949   5.427  0.0697 -1.4161  0.5811
   65MOL   H32446532   0.201   1.535   4.831 -0.6507 -0.0621  0.2727
   65MOL   H32546533   0.419   1.449   4.839 -0.3640 -0.2063  0.7284
   65MOL   C32646534   7.216   0.922   5.475 -0.7085 -0.0461 -0.2641
   65MOL   O32746535   7.105   0.881   5.445 -0.3057 -0.2630  0.0603
   65MOL   C32846536   7.244   0.960   5.615  0.1055 -0.6869  0.7389
   65MOL   C32946537   7.181   0.887   5.719  0.4942  0.2198  0.1809
   65MOL   C33046538   7.175   0.942   5.847  0.2650 -0.3552  0.7031
   65MOL   C33146539   7.254   1.060   5.880  0.6349  0.4397  0.0252
   65MOL   C33246540   7.258   1.113   6.014 -0.9503  0.2679 -0.5147
   65MOL   O33346541   7.306   1.228   6.035  0.5786 -0.5857  0.1365
   65MOL   N33446542   7.227   1.023   6.113 -0.2123 -0.3697 -0.3075
   65MOL   C33546543   7.208   1.057   6.253 -0.5314 -0.0117 -0.5880
   65MOL   C33646544   7.065   1.058   6.315 -0.0717  0.2513 -0.7062
   65MOL   C33746545   7.062   1.102   6.464  0.2357  0.3187 -0.2045
   65MOL   C33846546   7.130   0.998   6.563 -0.0921  0.4780 -0.0010
   65MOL   C33946547   7.119   1.045   6.706 -0.4582  0.7099  0.3858
   65MOL   C34046548   7.222   0.983   6.799  0.5569  0.3328  0.1963
   65MOL   N34146549   7.198   0.834   6.815  0.0643  0.3198 -0.0365
   65MOL   C34246550   7.329   1.117   5.774  0.0484  0.1056 -0.0623
   65MOL   C34346551   7.317   1.071   5.641 -0.9314 -0.4742  0.6123
   65MOL   H34446552   7.122   0.799   5.698 -0.0479  0.0448  2.2759
   65MOL   H34546553   7.114   0.888   5.919 -1.7026  1.4243  0.4245
   65MOL   H34646554   7.197   0.931   6.084  1.3451 -1.2642  0.8728
   65MOL   H34746555   7.264   0.982   6.308 -0.5960  0.0256 -0.4706
   65MOL   H34846556   7.260   1.152   6.268  1.0055 -0.9693  0.1574
   65MOL   H34946557   7.023   0.958   6.315 -1.0401  0.6134  1.8002
   65MOL   H35046558   7.011   1.121   6.244 -0.8397 -0.2922 -0.5991
   65MOL   H35146559   7.096   1.203   6.484  0.1423  0.5343 -1.1448
   65MOL   H35246560   6.958   1.103   6.497  0.4959 -2.9960  0.9045
   65MOL   H35346561   7.235   0.986   6.537  0.0152 -3.1915  1.8146
   65MOL   H35446562   7.078   0.904   6.550 -0.8786  0.9820 -0.5445
   65MOL   H35546563   7.017   1.031   6.743  0.3386 -1.6251  1.7806
   65MOL   H35646564   7.120   1.154   6.713 -1.2500  0.7368  0.1510
   65MOL   H35746565   7.327   0.993   6.772  0.7975 -1.2744  0.4865
   65MOL   H35846566   7.216   1.031   6.896 -0.5858 -0.3238  0.4666
   65MOL   H35946567   7.205   0.765   6.741  2.5436  1.0510 -0.5379
   65MOL   H36046568   7.398   1.197   5.797  0.0300  0.0564  0.1579
   65MOL   H36146569   7.368   1.123   5.561 -2.6305  2.0590  1.1417
   65MOL   C36246570   7.206   0.779   6.934  0.4686  0.0793  0.1486
   65MOL   O36346571   7.211   0.838   7.039 -0.1527 -0.1001  0.3324
   65MOL   C36446572   7.210   0.626   6.937  0.6530 -0.2150  0.6850
   65MOL   C36546573   7.192   0.538   6.823  0.5009  0.1117 -0.0847
   65MOL   C36646574   7.201   0.398   6.833 -1.6883  0.0326 -0.2902
   65MOL   C36746575   7.232   0.345   6.964 -0.1476  0.4826  0.0920
   65MOL   C36846576   7.257   0.198   6.973 -0.2148 -0.5852 -0.5735
   65MOL   O36946577   7.169   0.116   6.948  0.3401  0.4925 -0.3455
   65MOL   N37046578   7.383   0.166   7.000 -0.1339  0.6161 -0.2513
   65MOL   C37146579   7.431   0.031   7.028  0.1630 -0.0252 -0.5117
   65MOL   C37246580   7.579   0.046   7.070 -0.2467 -0.3332  0.5214
   65MOL   C37346581   7.666   7.819   7.006  0.0053 -0.7079 -0.1313
   65MOL   C37446582   7.813   7.805   7.043  1.0940 -1.1134 -0.2499
   65MOL   C37546583   7.845   7.802   7.196 -0.4720 -0.3570  0.3266
   65MOL   C37646584   7.808   7.677   7.271 -0.5886 -0.3115  0.0268
   65MOL   N37746585   7.665   7.668   7.293  0.4052  0.0675 -0.9766
   65MOL   C37846586   7.247   0.424   7.076  0.1389 -0.0648  0.3509
   65MOL   C37946587   7.238   0.564   7.062 -0.2411 -0.2558  0.1650
   65MOL   H38046588   7.169   0.575   6.724 -0.1919  0.6887  0.2838
   65MOL   H38146589   7.196   0.340   6.742  0.2229  1.3037 -1.2269
   65MOL   H38246590   7.456   0.235   7.008 -0.0531  0.4178  0.8125
   65MOL   H38346591   7.373   0.001   7.116  0.3150  2.5804  0.5131
   65MOL   H38446592   7.422   7.854   6.939 -1.0499  0.3753 -0.6888
   65MOL   H38546593   7.584   0.047   7.179  1.1080 -1.7070  0.4780
   65MOL   H38646594   7.625   0.137   7.030  0.6967 -0.2444  1.7765
   65MOL   H38746595   7.612   7.727   7.030 -1.2747  0.1644  0.4320
   65MOL   H38846596   7.669   7.827   6.898 -1.7322  1.9111 -0.0273
   65MOL   H38946597   7.865   0.007   7.006 -0.6081 -0.1365 -0.3539
   65MOL   H39046598   7.854   7.718   6.992 -0.1945 -1.2037 -1.1438
   65MOL   H39146599   7.810   0.002   7.253 -1.5870 -0.3252 -0.3718
   65MOL   H39246600   0.067   7.805   7.207 -0.3020  0.3267 -1.2908
   65MOL   H39346601   7.848   7.581   7.237  1.0926  0.6050 -0.6017
   65MOL   H39446602   7.851   7.683   7.371  0.7427 -0.8159 -0.5128
   65MOL   H39546603   7.623   7.759   7.310 -1.9322 -1.2200  0.3051
   65MOL   H39646604   7.268   0.381   7.173 -3.0562  1.4967  1.8318
   65MOL   H39746605   7.252   0.616   7.156  1.8088  0.4000 -0.4696
   65MOL   C39846606   7.590   7.563   7.261 -0.0363  0.8150  0.3648
   65MOL   O39946607   7.627   7.452   7.225 -0.1736 -0.2253  0.4071
   65MOL   C40046608   7.443   7.592   7.271  0.3654 -0.3538  0.3428
   65MOL   C40146609   7.385   7.661   7.384  1.0473 -0.5814  0.5475
   65MOL   C40246610   7.248   7.701   7.375 -0.6154 -0.3627  0.4330
   65MOL   C40346611   7.168   7.682   7.261 -0.1372 -0.5296  0.2532
   65MOL   C40446612   7.026   7.730   7.243  0.7400  0.6354  0.2063
   65MOL   O40546613   6.947   7.677   7.165 -0.3477 -0.2409  0.3153
   65MOL   N40646614   6.997   7.840   7.311 -0.3368 -0.7438  0.2030
   65MOL   C40746615   6.862   0.007   7.330 -0.0358 -0.0930 -0.3313
   65MOL   C40846616   6.780   0.043   7.207 -0.6378 -0.8451  0.6480
   65MOL   C40946617   6.866   0.126   7.112  0.0456  0.0955  0.4472
   65MOL   C41046618   6.772   0.182   6.996 -0.4157 -0.3168 -0.3113
   65MOL   C41146619   6.857   0.235   6.879  0.2138 -0.2100  0.1633
   65MOL   C41246620   6.771   0.275   6.755  0.0874  0.4677  0.5473
   65MOL   N41346621   6.862   0.333   6.659  0.1945  0.0169 -0.1434
   65MOL   C41446622   7.225   7.609   7.156  0.1982  1.2317  0.3523
   65MOL   C41546623   7.361   7.570   7.152  0.7068 -0.1012  0.3015
   65MOL   H41646624   7.446   7.675   7.472  1.3985 -1.8242  0.5171
   65MOL   H41746625   7.198   7.736   7.465  0.7948  0.8151  0.7763
   65MOL   H41846626   7.077   7.881   7.356  0.4780 -1.9676 -0.1020
   65MOL   H41946627   6.820   7.810   7.387  0.5996 -0.1645  0.0275
   65MOL   H42046628   6.856   0.085   7.406 -0.3562 -0.0262 -0.4228
   65MOL   H42146629   6.689   0.094   7.240 -0.6070 -1.2750  1.4149
   65MOL   H42246630   6.750   7.839   7.153 -1.3849  0.1806 -0.6712
   65MOL   H42346631   6.901   0.211   7.170  0.3153  0.1201  0.2462
   65MOL   H42446632   6.943   0.059   7.073  1.1577  1.0391  1.0237
   65MOL   H42546633   6.706   0.263   7.024  1.2497  1.0233 -0.1930
   65MOL   H42646634   6.705   0.104   6.958 -1.5884  0.8570 -0.6819
   65MOL   H42746635   6.935   0.168   6.843  0.8603  1.4429 -1.5681
   65MOL   H42846636   6.907   0.326   6.909  0.3797  0.3948 -1.9210
   65MOL   H42946637   6.721   0.191   6.707  1.3939  0.1438 -0.2622
   65MOL   H43046638   6.698   0.350   6.786  1.4005  2.4173 -0.9408
   65MOL   H43146639   6.907   0.269   6.594 -2.9063  1.3617 -3.8288
   65MOL   H43246640   7.168   7.582   7.069 -0.5720 -0.5946  1.4146
   65MOL   H43346641   7.399   7.521   7.064 -0.5812  0.5276 -0.6257
   65MOL   C43446642   6.880   0.466   6.638 -0.6577 -0.1184  0.4610
   65MOL   O43546643   6.833   0.552   6.708  0.2836 -0.4769 -1.0122
   65MOL   C43646644   6.963   0.498   6.515  0.0514 -0.3850 -0.2270
   65MOL   C43746645   7.017   0.628   6.509 -0.2375 -0.7979  0.1570
   65MOL   C43846646   7.093   0.661   6.394 -0.1278 -0.0135  0.1130
   65MOL   C43946647   7.102   0.575   6.280 -0.0830 -0.3309  0.5540
   65MOL   C44046648   7.152   0.631   6.151  0.6774 -0.1882 -0.4898
   65MOL   O44146649   7.134   0.750   6.116  0.5868  0.2396  0.1302
   65MOL   N44246650   7.214   0.539   6.077 -0.0058 -0.4047 -0.5442
   65MOL   C44346651   7.250   0.562   5.932  0.7215 -0.0996  0.0170
   65MOL   C44446652   7.202   0.447   5.842  0.1951  0.3064  0.1965
   65MOL   C44546653   7.230   0.474   5.696 -0.9937 -0.4089 -0.1206
   65MOL   C44646654   7.382   0.481   5.665 -0.4885 -0.3859  0.3961
   65MOL   C44746655   7.404   0.514   5.515  0.3094  0.2964  0.3597
   65MOL   C44846656   7.551   0.509   5.469  0.7219 -0.5989 -0.1582
   65MOL   N44946657   7.643   0.595   5.546  0.0811  0.3347  0.0035
   65MOL   C45046658   7.039   0.451   6.291  0.1497 -0.4102 -0.0108
   65MOL   C45146659   6.977   0.411   6.408 -0.2594  0.2468  0.1603
   65MOL   H45246660   6.993   0.691   6.593 -1.0836  0.0285 -0.6884
   65MOL   H45346661   7.145   0.755   6.389 -0.6071  0.2883  0.6305
   65MOL   H45446662   7.241   0.453   6.123  1.3569  0.5357  0.4662
   65MOL   H45546663   7.205   0.655   5.897 -0.6028 -0.9521 -0.5818
   65MOL   H45646664   7.359   0.560   5.927  0.7823 -0.1548  1.3058
   65MOL   H45746665   7.095   0.447   5.862  0.0528 -0.6453 -0.5261
   65MOL   H45846666   7.241   0.350   5.873  0.2604  0.4004  0.4097
   65MOL   H45946667   7.181   0.390   5.648 -2.9998 -0.0900  1.3256
   65MOL   H46046668   7.194   0.571   5.662  0.6915  0.0503 -0.6382
   65MOL   H46146669   7.433   0.389   5.695 -2.0593 -0.6537  2.3076
   65MOL   H46246670   7.438   0.556   5.721 -1.2064  0.3464  0.1415
   65MOL   H46346671   7.359   0.610   5.491 -0.6915 -0.3322 -0.3465
   65MOL   H46446672   7.350   0.440   5.455 -1.1519  1.4921  0.1657
   65MOL   H46546673   7.579   0.404   5.464  0.3256 -0.7427  0.4617
   65MOL   H46646674   7.558   0.541   5.365 -1.2302  1.0081  0.1688
   65MOL   H46746675   7.716   0.538   5.585 -1.5006 -0.7808  1.4279
   65MOL   H46846676   7.050   0.381   6.209  2.4884  1.7875 -1.6433
   65MOL   H46946677   6.927   0.316   6.418  0.0439  0.1005  0.2978
   65MOL   C47046678   7.643   0.725   5.547  0.4597  0.4462  0.0292
   65MOL   O47146679   7.545   0.795   5.521  0.1566 -0.2258 -0.8731
   65MOL   C47246680   7.778   0.780   5.587  0.3060  0.1084 -0.0535
   65MOL   C47346681   7.870   0.703   5.663 -0.2434  0.2214  0.0824
   65MOL   C47446682   0.115   0.755   5.688 -0.0542 -0.1625  0.6843
   65MOL   C47546683   0.155   0.879   5.636 -1.2248 -0.2996  0.1585
   65MOL   C47646684   0.295   0.933   5.658  0.5574  0.3532  0.4073
   65MOL   O47746685   0.394   0.866   5.633 -0.4259 -0.4102  0.0367
   65MOL   N47846686   0.300   1.058   5.709  0.4240  0.2844  0.4736
   65MOL   C47946687   0.419   1.133   5.731  0.1600  0.1532  0.6042
   65MOL   C48046688   0.383   1.279   5.769  0.3766 -0.1917 -0.1383
   65MOL   C48146689   0.500   1.369   5.802 -0.6844 -0.4041 -0.6792
   65MOL   C48246690   0.451   1.515   5.830 -0.5787 -0.1749 -0.5435
   65MOL   C48346691   0.561   1.623   5.842  0.5601  0.0740  0.2753
   65MOL   C48446692   0.524   1.767   5.883 -0.5377 -0.0657  0.2107
   65MOL   N48546693   0.437   1.833   5.779  0.4944 -0.3010 -0.7333
   65MOL   C48646694   0.062   0.952   5.557 -0.2056 -0.2158 -0.0797
   65MOL   C48746695   7.818   0.902   5.538 -0.6317 -0.0907 -0.3621
   65MOL   H48846696   7.843   0.608   5.706  2.0504 -0.4601  0.0506
   65MOL   H48946697   0.180   0.689   5.744 -0.0319 -0.3928  0.3894
   65MOL   H49046698   0.209   1.095   5.731  1.6691  3.0880  1.0678
   65MOL   H49146699   0.475   1.078   5.807 -0.6754  1.8971  2.5298
   65MOL   H49246700   0.484   1.125   5.644  0.3375  1.3327  0.6231
   65MOL   H49346701   0.298   1.274   5.837 -0.5035 -1.7732 -1.3248
   65MOL   H49446702   0.329   1.316   5.682  2.2767 -1.4602 -1.9211
   65MOL   H49546703   0.572   1.333   5.876 -0.5130 -0.3120 -0.8007
   65MOL   H49646704   0.566   1.364   5.716 -1.2439  2.3415 -1.3367
   65MOL   H49746705   0.403   1.517   5.928 -0.7456 -0.7074 -0.6154
   65MOL   H49846706   0.375   1.552   5.761 -0.8653  0.3400  0.0369
   65MOL   H49946707   0.596   1.618   5.739  1.1396 -2.1168  0.5552
   65MOL   H50046708   0.639   1.593   5.912 -0.2830 -0.8529  0.8449
   65MOL   H50146709   0.491   1.779   5.986  0.9927  3.7082  0.3315
   65MOL   H50246710   0.617   1.823   5.872 -1.1328  0.7428 -0.9282
   65MOL   H50346711   0.479   1.839   5.687  0.0832 -4.1632 -1.2667
   65MOL   H50446712   0.090   1.044   5.508 -0.7231 -1.5863 -3.0221
   65MOL   H50546713   7.752   0.961   5.476  2.1422  1.2580 -2.1179
   65MOL   C50646714   0.313   1.868   5.813 -0.2673  0.2531  0.6542
   65MOL   O50746715   0.263   1.855   5.923 -0.2748  0.4334  0.4613
   65MOL   C50846716   0.241   1.926   5.699 -0.2042  0.3898  0.2636
   65MOL   C50946717   0.188   1.843   5.600 -0.2790  0.0750 -0.9762
   65MOL   C51046718   0.127   1.894   5.488 -0.1623 -0.5025 -1.0687
   65MOL   C51146719   0.127   2.032   5.459 -0.6589 -0.6752  0.2835
   65MOL   C51246720   0.088   2.083   5.324  0.0774  0.0747 -0.2839
   65MOL   O51346721   0.026   2.011   5.243 -0.1106 -0.1111 -0.0363
   65MOL   N51446722   0.132   2.206   5.286  0.2320  0.4008  0.0799
   65MOL   C51546723   0.086   2.251   5.151 -0.7039 -0.2943  0.1378
   65MOL   C51646724   0.141   2.391   5.123 -0.4738 -0.2087  0.5903
   65MOL   C51746725   0.289   2.405   5.122 -0.2190  0.5158 -0.0241
   65MOL   C51846726   0.324   2.510   5.022 -1.1382  0.2369 -0.0180
   65MOL   C51946727   0.475   2.542   5.012 -0.2912  0.0427  0.3624
   65MOL   C52046728   0.515   2.669   4.930 -0.1080 -0.2217 -0.3321
   65MOL   N52146729   0.420   2.709   4.828  0.1251 -0.0098 -0.3640
   65MOL   C52246730   0.177   2.119   5.556 -0.5104  0.0858 -0.1081
   65MOL   C52346731   0.233   2.066   5.675  0.3784 -0.0381  0.4905
   65MOL   H52446732   0.211   1.738   5.603  1.1216  0.3584 -1.0868
   65MOL   H52546733   0.097   1.817   5.418 -0.8549 -0.5119 -0.7622
   65MOL   H52646734   0.163   2.274   5.354  0.1827 -0.5422  1.0592
   65MOL   H52746735   0.128   2.182   5.078  1.7501  0.5770  0.6710
   65MOL   H52846736   7.863   2.244   5.148 -0.7202  0.2948 -1.0910
   65MOL   H52946737   0.097   2.466   5.189  0.5302  1.3473 -0.4895
   65MOL   H53046738   0.094   2.419   5.029  0.4329 -3.0377 -0.7479
   65MOL   H53146739   0.335   2.431   5.218  2.0431  0.1095 -0.9778
   65MOL   H53246740   0.329   2.311   5.084  1.4719  1.9151 -1.8432
   65MOL   H53346741   0.269   2.600   5.047  0.4004  0.5704  2.2903
   65MOL   H53446742   0.304   2.463   4.925 -2.3346 -0.7680  0.7072
   65MOL   H53546743   0.528   2.455   4.973  0.5691  0.1524  1.2716
   65MOL   H53646744   0.523   2.552   5.109  0.9259  0.0119 -0.2340
   65MOL   H53746745   0.537   2.752   4.997  0.6194  1.0019 -2.0438
   65MOL   H53846746   0.606   2.643   4.874 -1.1923 -1.6706 -1.4636
   65MOL   H53946747   0.407   2.644   4.752 -0.1038 -1.2329  0.7199
   65MOL   H54046748   0.189   2.224   5.531 -2.0404  0.3954  0.4443
   65MOL   H54146749   0.272   2.139   5.744 -1.0498  1.8412 -0.6437
   65MOL   C54246750   0.332   2.807   4.836  0.2573  0.1205 -0.2052
   65MOL   O54346751   0.347   2.895   4.921  0.1461 -0.7346  0.4212
   65MOL   C54446752   0.218   2.812   4.737  0.0397  0.3933 -0.2622
   65MOL   C54546753   0.155   2.930   4.705 -0.4060  0.0931  0.0622
   65MOL   C54646754   0.044   2.927   4.618  0.2592  0.2058  0.4913
   65MOL   C54746755   0.006   2.803   4.558 -0.0202  0.1799 -0.4841
   65MOL   C54846756   7.796   2.803   4.450  0.4861  0.7024  0.3040
   65MOL   O54946757   7.726   2.900   4.427 -0.2465  0.3096  0.2431
   65MOL   N55046758   7.780   2.685   4.387  0.4166  0.5711 -0.0865
   65MOL   C55146759   7.694   2.655   4.273 -1.1371  0.4509  0.1202
   65MOL   C55246760   7.787   2.579   4.172 -0.3542 -0.3736  0.1266
   65MOL   C55346761   7.853   2.446   4.227 -0.2502 -0.3304  0.5534
   65MOL   C55446762   0.060   2.372   4.125 -0.4464 -0.1077  0.1741
   65MOL   C55546763   0.101   2.234   4.185 -0.8631  0.6951  0.0201
   65MOL   C55646764   0.233   2.234   4.263  0.3000  0.2678  0.2086
   65MOL   N55746765   0.285   2.099   4.304 -0.6482  0.5368 -0.5045
   65MOL   C55846766   0.062   2.682   4.600  1.3253 -0.0661  0.8073
   65MOL   C55946767   0.166   2.688   4.691 -0.6420 -0.2780 -0.1465
   65MOL   H56046768   0.184   3.030   4.729  3.0374 -1.2122  1.5992
   65MOL   H56146769   0.006   3.022   4.582  1.0889  0.7658  1.0765
   65MOL   H56246770   7.853   2.617   4.406 -0.4783 -0.4799 -0.3524
   65MOL   H56346771   7.604   2.598   4.297 -0.7231  0.5006  1.9121
   65MOL   H56446772   7.663   2.739   4.212  0.4162 -0.7834 -2.4220
   65MOL   H56546773   7.864   2.650   4.143 -1.2104  0.0678 -1.1297
   65MOL   H56646774   7.724   2.561   4.084  0.4913 -4.3212  0.2196
   65MOL   H56746775   0.014   2.483   4.318  2.5506  2.4041 -1.8671
   65MOL   H56846776   7.779   2.380   4.271 -1.5075  0.0752 -0.8986
   65MOL   H56946777   0.141   2.444   4.114 -0.9858  0.6573  1.1550
   65MOL   H57046778   0.009   2.346   4.032 -1.3901  0.2340  0.5996
   65MOL   H57146779   0.112   2.164   4.103 -0.1286  0.1584  0.5656
   65MOL   H57246780   0.028   2.187   4.251 -1.5521  0.0156 -1.2228
   65MOL   H57346781   0.311   2.298   4.222  0.8788  0.1591  1.1246
   65MOL   H57446782   0.211   2.282   4.358  0.7274  2.0402 -0.5645
   65MOL   H57546783   0.255   2.027   4.239  2.7168  0.6484 -2.2622
   65MOL   H57646784   0.034   2.589   4.553  0.5438  2.0030 -2.9492
   65MOL   H57746785   0.222   2.597   4.709  1.5454  1.2901  1.2703
   65MOL   C57846786   0.375   2.071   4.398  0.5746  0.1110  0.7911
   65MOL   O57946787   0.416   2.168   4.464  0.2079 -0.5540 -0.8768
   65MOL   C58046788   0.410   1.926   4.421 -0.2170  0.2577 -0.2445
   65MOL   C58146789   0.509   1.888   4.514  0.2265  0.1159  0.0889
   65MOL   C58246790   0.547   1.755   4.536 -0.6795  0.7879 -0.3161
   65MOL   C58346791   0.483   1.656   4.464 -0.2207  0.0889  0.7126
   65MOL   C58446792   0.491   1.516   4.506  0.4365 -0.6535  0.4616
   65MOL   O58546793   0.527   1.493   4.616  0.0181  0.2792 -0.5513
   65MOL   N58646794   0.443   1.417   4.423 -0.1104  0.0645  0.3042
   65MOL   C58746795   0.445   1.272   4.460 -0.1786 -0.1138 -0.0328
   65MOL   C58846796   0.516   1.181   4.354 -0.6580 -0.5809  0.3896
   65MOL   C58946797   0.487   1.030   4.383  0.4442 -0.1563 -0.3296
   65MOL   C59046798   0.559   0.963   4.500  0.2595  0.4312 -0.5233
   65MOL   C59146799   0.498   0.830   4.544  0.3567 -0.5108  0.4405
   65MOL   C59246800   0.540   0.714   4.456 -0.5727 -0.3073  0.1326
   65MOL   N59346801   0.484   0.588   4.489 -0.6424  0.1775 -0.0495
   65MOL   C59446802   0.390   1.694   4.361 -0.3724  0.0851 -0.4897
   65MOL   C59546803   0.360   1.827   4.337 -0.1594  0.3938  0.7352
   65MOL   H59646804   0.551   1.974   4.565 -0.6245  0.9717 -0.6178
   65MOL   H59746805   0.617   1.732   4.614 -0.7944 -0.7560 -0.6428
   65MOL   H59846806   0.407   1.434   4.330 -2.4473  1.4725  1.4149
   65MOL   H59946807   0.491   1.252   4.557 -0.7964  0.5649  0.4056
   65MOL   H60046808   0.342   1.248   4.486 -0.1618 -0.7063 -0.5067
   65MOL   H60146809   0.625   1.178   4.360 -0.6123 -1.7695 -0.8786
   65MOL   H60246810   0.486   1.212   4.254  0.0607  1.0549  0.6531
   65MOL   H60346811   0.379   1.023   4.398  0.7263 -0.7287  1.4946
   65MOL   H60446812   0.519   0.972   4.296  1.2619  0.2471 -0.3081
   65MOL   H60546813   0.546   1.030   4.585 -3.5673  0.5276 -1.0755
   65MOL   H60646814   0.666   0.959   4.483  0.5834 -1.8283  1.7513
   65MOL   H60746815   0.390   0.849   4.542  0.3419 -0.7108 -1.1243
   65MOL   H60846816   0.548   0.814   4.640  3.9691  0.9886 -1.1094
   65MOL   H60946817   0.491   0.739   4.362  1.1740  0.2448 -0.6474
   65MOL   H61046818   0.648   0.708   4.445 -0.5144 -0.8306  0.9600
   65MOL   H61146819   0.406   0.544   4.443 -1.0062  1.0364 -0.2759
   65MOL   H61246820   0.352   1.608   4.307  1.6316  0.2771 -2.3096
   65MOL   H61346821   0.298   1.856   4.254  0.7858 -0.8119 -0.4214
   65MOL   C61446822   0.532   0.509   4.587 -0.0625  0.0740  0.3635
   65MOL   O61546823   0.634   0.537   4.657  0.7506 -0.2602 -0.6197
   65MOL   C61646824   0.447   0.387   4.618 -0.3339  1.0250  0.1033
   65MOL   C61746825   0.364   0.329   4.516  0.5819  0.3281 -0.4767
   65MOL   C61846826   0.299   0.207   4.533 -0.1382  0.1863 -0.6727
   65MOL   C61946827   0.319   0.143   4.655 -0.3489 -0.5712  0.6321
   65MOL   C62046828   0.255   0.010   4.671 -0.0268  0.2491 -0.2288
   65MOL   O62146829   0.132   0.006   4.658  0.0088  0.6794 -0.2089
   65MOL   N62246830   0.330   7.789   4.708 -0.3998 -0.0156  0.5339
   65MOL   C62346831   0.269   7.661   4.741 -0.5124  0.7751  0.1332
   65MOL   C62446832   0.331   7.557   4.646  0.9981  0.8192 -0.0245
   65MOL   C62546833   0.291   7.409   4.676  0.3842  0.4225  0.2810
   65MOL   C62646834   0.366   7.316   4.580 -0.0614  0.7558  0.3027
   65MOL   C62746835   0.277   7.195   4.528  0.1655 -0.1414  0.1410
   65MOL   C62846836   0.163   7.239   4.434  0.5108  0.1771  0.1635
   65MOL   N62946837   0.212   7.323   4.322 -0.1579  0.8220 -0.8775
   65MOL   C63046838   0.393   0.201   4.758  0.0274  0.6262  0.7590
   65MOL   C63146839   0.455   0.325   4.745 -0.2841 -0.3048 -0.5407
   65MOL   H63246840   0.359   0.379   4.421 -2.4166 -1.5041 -1.3469
   65MOL   H63346841   0.261   0.153   4.448 -0.8842 -0.1709 -0.1092
   65MOL   H63446842   0.428   7.799   4.732 -0.7107 -0.1012  1.9041
   65MOL   H63546843   0.287   7.639   4.846  0.4834 -1.8865 -0.5669
   65MOL   H63646844   0.163   7.659   4.715 -0.5619  1.2163  0.2940
   65MOL   H63746845   0.438   7.567   4.661  0.9814  1.6619 -0.4368
   65MOL   H63846846   0.306   7.581   4.543 -0.6264  2.2326  0.6822
   65MOL   H63946847   0.297   7.382   4.781  1.6611  1.2903  0.4560
   65MOL   H64046848   0.183   7.403   4.664  0.6691  0.2082 -2.5498
   65MOL   H64146849   0.461   7.283   4.623 -1.0626 -0.9971  1.2297
   65MOL   H64246850   0.402   7.369   4.491 -1.1912  0.8259 -0.1150
   65MOL   H64346851   0.243   7.140   4.615 -1.0870  0.8552  0.2800
   65MOL   H64446852   0.347   7.128   4.477 -1.1241 -2.1440  0.9548
   65MOL   H64546853   0.098   7.159   4.399 -0.6217  0.1382  2.2741
   65MOL   H64646854   0.103   7.308   4.494 -0.5671 -1.3683  0.8936
   65MOL   H64746855   0.164   7.412   4.328  1.0718  1.4986 -1.0368
   65MOL   H64846856   0.401   0.148   4.852 -1.5927  0.2419  0.6974
   65MOL   H64946857   0.517   0.367   4.823 -2.5400  0.6389  0.7977
   65MOL   C65046858   0.257   7.281   4.202 -0.5279 -0.2333 -0.0893
   65MOL   O65146859   0.271   7.159   4.173 -0.2069  0.2574  0.2251
   65MOL   C65246860   0.270   7.388   4.099 -0.3816 -0.2443 -0.9042
   65MOL   C65346861   0.288   7.361   3.966 -0.0984 -0.4526  0.3379
   65MOL   C65446862   0.337   7.453   3.870  0.5633 -0.0701  0.2790
   65MOL   C65546863   0.364   7.587   3.909  0.1971 -0.1032  0.0209
   65MOL   C65646864   0.408   7.689   3.806 -0.2365 -0.0900  0.8468
   65MOL   O65746865   0.433   7.659   3.687 -0.0419  0.0657 -0.0765
   65MOL   N65846866   0.412   7.818   3.839 -0.1685  0.9814  0.2720
   65MOL   C65946867   0.482   0.032   3.762 -0.1616 -0.9661 -0.0443
   65MOL   C66046868   0.385   0.154   3.763 -0.7066  0.5340  0.3603
   65MOL   C66146869   0.414   0.236   3.641  0.2216  0.6707 -0.1320
   65MOL   C66246870   0.560   0.286   3.620 -0.2464 -0.6188  0.3506
   65MOL   C66346871   0.589   0.376   3.500  0.1540  0.0129  0.0972
   65MOL   C66446872   0.736   0.418   3.486  0.0002  0.1217  0.2595
   65MOL   N66546873   0.756   0.481   3.359  0.1937  0.3167 -0.1622
   65MOL   C66646874   0.333   7.618   4.043  0.3313 -0.5241 -0.2528
   65MOL   C66746875   0.291   7.523   4.141 -0.5639 -0.7876  0.7101
   65MOL   H66846876   0.248   7.266   3.933  0.5623 -0.8654  0.7306
   65MOL   H66946877   0.344   7.416   3.769  2.3931  0.7747  0.0866
   65MOL   H67046878   0.370   7.845   3.927 -0.5465  1.5844 -0.0920
   65MOL   H67146879   0.581   0.050   3.804 -0.7738 -2.1456  1.9880
   65MOL   H67246880   0.501   0.001   3.659  1.5299  0.1137 -0.0607
   65MOL   H67346881   0.389   0.219   3.850 -0.8855  1.8960 -0.6296
   65MOL   H67446882   0.280   0.126   3.755 -0.6738  0.4079  0.3704
   65MOL   H67546883   0.382   0.188   3.548  1.7554  1.5909 -1.1538
   65MOL   H67646884   0.349   0.323   3.646  2.4421  2.3229  0.2758
   65MOL   H67746885   0.637   0.211   3.638  0.8107  0.1462 -0.9457
   65MOL   H67846886   0.582   0.342   3.711 -0.2007 -0.3631  0.1816
   65MOL   H67946887   0.524   0.463   3.509  1.6411  1.1736 -0.1999
   65MOL   H68046888   0.558   0.319   3.413 -0.7794  2.2447 -1.0832
   65MOL   H68146889   0.770   0.489   3.561  2.6828 -1.0745  0.2322
   65MOL   H68246890   0.790   0.324   3.502  0.4804  0.5583  1.2387
   65MOL   H68346891   0.717   0.573   3.345 -0.2526  0.2949  0.8298
   65MOL   H68446892   0.346   7.716   4.088 -0.3627 -1.7447  2.7012
   65MOL   H68546893   0.286   7.552   4.245  1.4562  1.5584  0.1955
   65MOL   C68646894   0.866   0.463   3.285 -0.1469 -0.8519 -0.0974
   65MOL   O68746895   0.950   0.380   3.310  0.6106 -0.0986 -0.0886
   65MOL   C68846896   0.879   0.571   3.178  0.3067 -0.1263 -0.0121
   65MOL   C68946897   0.772   0.651   3.128 -0.6442 -0.4463 -0.0914
   65MOL   C69046898   0.791   0.764   3.048 -0.1575 -0.1944 -0.3784
   65MOL   C69146899   0.918   0.785   2.996 -0.5937 -0.0328  0.1431
   65MOL   C69246900   0.945   0.905   2.904  0.2230 -0.3132 -0.0414
   65MOL   O69346901   0.907   1.015   2.937 -0.3356 -0.7743 -0.4900
   65MOL   N69446902   1.012   0.872   2.793  0.3987 -0.1747  0.1273
   65MOL   C69546903   1.059   0.961   2.695 -0.2820 -0.9626 -0.6211
   65MOL   C69646904   1.105   0.900   2.561 -0.1072 -0.3194 -0.7171
   65MOL   C69746905   0.993   0.837   2.475 -0.1667  0.2325 -0.5702
   65MOL   C69846906   0.930   0.709   2.532 -0.2646 -0.3908  0.2785
   65MOL   C69946907   1.022   0.607   2.587 -0.1243  0.1259 -0.0170
   65MOL   C70046908   0.943   0.492   2.644  0.2400 -0.6570  0.5424
   65MOL   N70146909   0.876   0.538   2.767  0.2828 -0.3717 -0.5562
   65MOL   C70246910   1.027   0.698   3.020  0.1110 -0.0115  0.1345
   65MOL   C70346911   1.005   0.596   3.117 -0.3161 -0.5585 -0.3616
   65MOL   H70446912   0.677   0.635   3.176 -0.4934 -0.3220  0.2479
   65MOL   H70546913   0.715   0.840   3.038  0.9621  0.7706 -1.7798
   65MOL   H70646914   1.032   0.775   2.772  0.2827 -0.3355  0.7590
   65MOL   H70746915   0.982   1.036   2.681 -0.7159 -0.4439  3.7667
   65MOL   H70846916   1.146   1.019   2.729  1.1258 -2.6883 -1.1861
   65MOL   H70946917   1.191   0.837   2.579 -0.9217 -1.2176  0.0615
   65MOL   H71046918   1.152   0.972   2.493  0.5827 -0.0252  0.0732
   65MOL   H71146919   0.917   0.911   2.451 -0.2985 -0.7634 -3.3752
   65MOL   H71246920   1.033   0.819   2.376 -0.5574 -2.0120 -0.3454
   65MOL   H71346921   0.859   0.667   2.460  0.3065  1.1079 -1.2078
   65MOL   H71446922   0.867   0.735   2.617 -0.6289  0.3754 -0.2161
   65MOL   H71546923   1.098   0.644   2.655  0.0555 -0.8075  0.3059
   65MOL   H71646924   1.071   0.571   2.496 -0.0782  0.3896 -0.0954
   65MOL   H71746925   0.866   0.452   2.578 -1.1798  1.3545  0.9382
   65MOL   H71846926   1.012   0.409   2.660  0.5222 -0.1001  2.4137
   65MOL   H71946927   0.823   0.464   2.810 -0.0924  0.1435 -0.1243
   65MOL   H72046928   1.126   0.697   2.977  0.8123 -1.4252  1.7336
   65MOL   H72146929   1.087   0.532   3.145 -0.7872 -0.3907  1.4490
   65MOL   H72246930   0.945   0.567   2.835  1.1494 -0.5068 -1.3660
   66MOL     C146931   5.289   3.903   6.961 -0.1723 -0.4926 -0.1566
   66MOL     O246932   5.306   3.877   6.842 -0.3796 -0.3283  0.6164
   66MOL     C346933   5.374   3.993   7.036  0.0998 -0.4724 -0.5367
   66MOL     C446934   5.337   4.010   7.172 -0.0519 -0.0263 -0.4036
   66MOL     C546935   5.406   4.114   7.238  0.2740 -0.3285 -0.8958
   66MOL     C646936   5.506   4.195   7.180  0.1259 -0.4943 -0.4066
   66MOL     C746937   5.579   4.306   7.261 -0.7114  0.1704 -0.2294
   66MOL     O846938   5.688   4.353   7.220 -0.1766  0.4127 -0.5393
   66MOL     N946939   5.521   4.355   7.371  0.4991  1.3265 -0.3651
   66MOL    C1046940   5.571   4.455   7.461  0.2071  0.2002  0.0839
   66MOL    C1146941   5.554   4.415   7.605  0.3886  0.0698  0.6344
   66MOL    C1246942   5.578   4.532   7.706 -0.1262  0.0784 -0.0493
   66MOL    C1346943   5.568   4.473   7.850 -0.1052 -0.5667 -0.3320
   66MOL    C1446944   5.586   4.587   0.066  0.3135  0.3688 -0.0172
   66MOL    C1546945   5.599   4.542   0.219 -0.4497 -0.5694  1.4705
   66MOL    N1646946   5.489   4.462   0.256  0.3867  0.2791 -0.5002
   66MOL    C1746947   5.537   4.170   7.045  0.3012 -0.5113  0.2529
   66MOL    C1846948   5.475   4.067   6.970 -0.4681  0.4059  0.0006
   66MOL    H1946949   5.268   3.945   7.223 -0.9062  1.5811  0.5073
   66MOL    H2046950   5.373   4.132   7.340 -0.3251 -1.5273 -0.8666
   66MOL    H2146951   5.434   4.309   7.394  1.0075 -0.9902 -2.8356
   66MOL    H2246952   5.676   4.478   7.448 -0.3874  1.0865 -3.6413
   66MOL    H2346953   5.512   4.545   7.443  0.8996  0.4649 -0.8762
   66MOL    H2446954   5.611   4.326   7.630  0.6592  0.7151  2.4267
   66MOL    H2546955   5.454   4.373   7.620 -0.6971  2.1310 -0.6548
   66MOL    H2646956   5.682   4.559   7.687 -0.2173 -0.0217 -0.6788
   66MOL    H2746957   5.512   4.617   7.689 -0.0931  0.4547  1.5744
   66MOL    H2846958   5.648   4.399   7.852 -1.3870 -1.9604  0.8696
   66MOL    H2946959   5.475   4.416   7.857 -1.1844  1.2172  0.0503
   66MOL    H3046960   5.517   4.671   0.055  0.9932  0.9782  0.2833
   66MOL    H3146961   5.681   4.637   0.049  0.8267 -0.6932 -0.3146
   66MOL    H3246962   5.697   4.498   0.239 -0.6035 -1.2768  0.6911
   66MOL    H3346963   5.605   4.622   0.292 -1.3082 -0.1668  1.1063
   66MOL    H3446964   5.404   4.479   0.203 -0.0705  2.0051  0.7623
   66MOL    H3546965   5.612   4.230   6.996  4.0127 -2.1858  3.5852
   66MOL    H3646966   5.496   4.056   6.864  1.7493 -0.4233  0.4880
   66MOL    H3746967   5.211   3.863   7.026 -0.9176  0.3733 -0.5114
   66MOL    C3846968   5.482   4.348   0.335 -0.0525  0.1779 -0.4389
   66MOL    O3946969   5.579   4.309   0.404  0.4004 -0.4743  0.0967
   66MOL    C4046970   5.345   4.281   0.332  0.4976 -0.6985  0.2123
   66MOL    C4146971   5.255   4.301   0.225 -0.2183 -0.0740 -0.6838
   66MOL    C4246972   5.126   4.231   0.235  0.2647 -0.5042  0.8966
   66MOL    C4346973   5.097   4.130   0.330  0.4401  0.1138 -0.5721
   66MOL    C4446974   4.970   4.049   0.327 -0.3944 -0.1946  1.0508
   66MOL    O4546975   4.893   4.054   0.231  0.4130 -1.1281  0.2581
   66MOL    N4646976   4.946   3.965   0.430  0.1006  0.0133 -0.0021
   66MOL    C4746977   4.832   3.875   0.435 -0.1766 -0.7607  0.5529
   66MOL    C4846978   4.792   3.867   0.583  0.1063  0.1579  1.1588
   66MOL    C4946979   4.696   3.754   0.616  0.3010  0.0928  0.1978
   66MOL    C5046980   4.636   3.745   0.762 -0.0919 -0.2125  0.4056
   66MOL    C5146981   4.501   3.803   0.762 -0.0761  0.7139  0.8735
   66MOL    C5246982   4.437   3.838   0.905 -0.1245 -0.2794 -0.2534
   66MOL    N5346983   4.305   3.901   0.886  0.2821 -0.2045 -0.1635
   66MOL    C5446984   5.192   4.111   0.434 -0.2520  0.1113  0.6204
   66MOL    C5546985   5.310   4.188   0.435 -0.4438 -0.4359  1.1177
   66MOL    H5646986   5.263   4.384   0.156 -0.8083  0.4626 -0.1229
   66MOL    H5746987   5.056   4.237   0.153 -1.7267 -1.8558  2.4593
   66MOL    H5846988   4.994   3.980   0.517  1.9760  0.3776 -1.0778
   66MOL    H5946989   4.748   3.914   0.377 -0.0779  1.1847  1.6823
   66MOL    H6046990   4.869   3.783   0.389  0.5235  0.0313 -0.4823
   66MOL    H6146991   4.747   3.964   0.604 -0.4316  0.7054 -2.2865
   66MOL    H6246992   4.877   3.845   0.648  0.9023 -0.7353 -0.1606
   66MOL    H6346993   4.613   3.743   0.546 -0.8638 -1.2062  1.7442
   66MOL    H6446994   4.747   3.664   0.580 -0.9424  0.2817 -2.2027
   66MOL    H6546995   4.705   3.791   0.833 -1.0708  2.1876 -0.1408
   66MOL    H6646996   4.643   3.641   0.793 -0.1991  0.0083  1.1952
   66MOL    H6746997   4.428   3.741   0.710 -0.6790  2.1986 -0.1107
   66MOL    H6846998   4.508   3.897   0.707 -1.8259  0.0682 -0.5022
   66MOL    H6946999   4.433   3.748   0.967  1.1987 -0.0096  0.2321
   66MOL    H7047000   4.504   3.907   0.955 -1.7501 -0.2210  1.9100
   66MOL    H7147001   4.273   3.928   0.794 -0.2623  0.5154  0.2278
   66MOL    H7247002   5.179   4.040   0.515  1.2868  1.5138  2.1248
   66MOL    H7347003   5.376   4.186   0.520  0.6011  0.1347  0.3368
   66MOL    C7447004   4.203   3.903   0.978 -0.0930 -0.1276  0.3857
   66MOL    O7547005   4.211   3.856   1.089  0.0719 -0.0511 -0.2712
   66MOL    C7647006   4.071   3.963   0.931 -0.5327  0.3431  0.3727
   66MOL    C7747007   3.948   3.928   0.993  0.0379  0.5850  0.5450
   66MOL    C7847008   3.830   3.983   0.947 -0.4341 -0.2186 -0.3226
   66MOL    C7947009   3.828   4.075   0.842 -0.1215  0.3115  0.4710
   66MOL    C8047010   3.697   4.135   0.804 -0.7356 -0.3782 -1.0060
   66MOL    O8147011   3.686   4.217   0.711 -0.4528 -0.5777 -0.2250
   66MOL    N8247012   3.592   4.089   0.872 -0.4823 -0.5015 -0.2549
   66MOL    C8347013   3.458   4.140   0.860  0.3932  0.6545  0.2994
   66MOL    C8447014   3.418   4.256   0.959  0.1989  0.5814  0.8641
   66MOL    C8547015   3.285   4.322   0.914  0.1042 -0.2916  0.1242
   66MOL    C8647016   3.218   4.399   1.028 -0.4025 -0.4716 -0.1618
   66MOL    C8747017   3.079   4.444   0.985  0.1323  0.0167 -0.4537
   66MOL    C8847018   2.983   4.505   1.089 -0.0181  0.2736  1.2165
   66MOL    N8947019   3.012   4.635   1.148  0.4656 -0.0060  0.5083
   66MOL    C9047020   3.954   4.115   0.784  0.3043  0.1066  0.2494
   66MOL    C9147021   4.073   4.050   0.821 -0.6296 -0.1882  0.3580
   66MOL    H9247022   3.953   3.853   1.070  1.6388 -0.7987 -0.8757
   66MOL    H9347023   3.736   3.947   0.988 -0.2138  1.0952  1.3926
   66MOL    H9447024   3.610   4.011   0.934  2.1657 -0.9180 -1.4875
   66MOL    H9547025   3.434   4.147   0.753  0.7642 -0.3786  0.1443
   66MOL    H9647026   3.396   4.053   0.882  2.0852 -1.1606 -1.9043
   66MOL    H9747027   3.504   4.322   0.963  0.7388 -0.0684  0.1934
   66MOL    H9847028   3.414   4.228   1.064  1.9699  1.2197  1.1096
   66MOL    H9947029   3.302   4.394   0.834 -2.0145 -0.8535 -0.8694
   66MOL   H10047030   3.212   4.250   0.878  0.5778 -0.6554 -0.1192
   66MOL   H10147031   3.270   4.491   1.055 -0.6306 -0.1564 -0.7875
   66MOL   H10247032   3.200   4.336   1.114 -0.2991 -0.1332  0.1095
   66MOL   H10347033   3.019   4.358   0.955  0.6870 -0.3655 -0.4857
   66MOL   H10447034   3.084   4.514   0.901  0.6800 -1.1062 -1.3694
   66MOL   H10547035   2.883   4.505   1.046  0.7740 -2.4987 -0.8054
   66MOL   H10647036   2.981   4.428   1.167  0.5640 -1.0557 -0.0417
   66MOL   H10747037   3.017   4.716   1.089  4.2351 -0.8184 -0.4498
   66MOL   H10847038   3.949   4.189   0.706 -0.0845  0.0401  0.2084
   66MOL   H10947039   4.167   4.077   0.774 -0.6891 -1.9568 -0.8330
   66MOL   C11047040   3.044   4.650   1.278  0.2048 -0.3189 -0.0235
   66MOL   O11147041   3.040   4.558   1.361  0.0996 -0.1039 -0.1540
   66MOL   C11247042   3.068   4.791   1.323 -1.2222 -0.1265 -0.1557
   66MOL   C11347043   3.092   4.818   1.463  0.2880  0.4622  0.5164
   66MOL   C11447044   3.113   4.955   1.502  0.6225 -0.5924 -0.2493
   66MOL   C11547045   3.111   5.060   1.411 -0.3386  0.0066  0.4986
   66MOL   C11647046   3.124   5.203   1.455 -0.1854  0.9408  0.8656
   66MOL   O11747047   3.053   5.245   1.548  0.2890  0.2491 -0.0921
   66MOL   N11847048   3.208   5.283   1.397 -0.2436  0.6590  0.1814
   66MOL   C11947049   3.314   5.246   1.293 -0.3699 -0.3117  0.5869
   66MOL   C12047050   3.285   5.307   1.154 -0.0558 -0.2511 -0.5714
   66MOL   C12147051   3.384   5.279   1.043  0.3754 -0.4261  0.0293
   66MOL   C12247052   3.382   5.131   0.997 -0.1497  0.0188 -0.8831
   66MOL   C12347053   3.501   5.106   0.901 -0.5031 -0.2708  0.4117
   66MOL   C12447054   3.640   5.087   0.956 -0.4083  0.3696 -1.1584
   66MOL   N12547055   3.698   5.212   1.000  0.0224 -0.0432 -0.1533
   66MOL   C12647056   3.098   5.029   1.271 -0.5352  0.4105  0.0456
   66MOL   C12747057   3.078   4.897   1.228 -0.1732  0.5310  0.2260
   66MOL   H12847058   3.092   4.738   1.536 -1.0446 -1.2151 -1.2641
   66MOL   H12947059   3.123   4.974   1.608 -0.9549  3.0663 -0.6551
   66MOL   H13047060   3.204   5.379   1.428 -0.7763  0.2859  1.2816
   66MOL   H13147061   3.400   5.298   1.336 -1.4061  0.5479  1.6624
   66MOL   H13247062   3.338   5.141   1.282 -3.7446 -1.4332  3.2271
   66MOL   H13347063   3.274   5.415   1.169 -0.9897 -0.0518 -2.5666
   66MOL   H13447064   3.191   5.272   1.111  1.3921 -3.2123 -1.4244
   66MOL   H13547065   3.377   5.350   0.961 -0.1212 -0.1385  0.3162
   66MOL   H13647066   3.479   5.300   1.093 -0.0641  1.2323  0.2114
   66MOL   H13747067   3.285   5.108   0.954 -0.5479 -1.1283  0.5837
   66MOL   H13847068   3.380   5.050   1.070  0.7772  0.3423 -0.4835
   66MOL   H13947069   3.493   5.180   0.821 -0.8401  1.7114  2.1966
   66MOL   H14047070   3.481   5.017   0.842 -1.3417 -0.4265  0.9170
   66MOL   H14147071   3.643   5.015   1.038 -0.9734  0.3472 -1.1497
   66MOL   H14247072   3.703   5.038   0.882 -0.7052 -0.9156 -0.5764
   66MOL   H14347073   3.638   5.291   1.022  0.7305  0.3292  0.4805
   66MOL   H14447074   3.084   5.110   1.200 -0.9770  0.6648  0.4169
   66MOL   H14547075   3.069   4.881   1.121  1.2000  0.7796  0.0621
   66MOL   C14647076   3.827   5.229   1.013  0.2299 -0.0079  0.3608
   66MOL   O14747077   3.905   5.156   0.952  0.8654  0.5153  0.3591
   66MOL   C14847078   3.884   5.346   1.085 -0.4754  0.3751 -0.4047
   66MOL   C14947079   4.001   5.403   1.031  0.6558 -0.7569 -0.0177
   66MOL   C15047080   4.056   5.516   1.093 -0.1491  0.4886 -0.9511
   66MOL   C15147081   3.995   5.568   1.209  0.4090 -0.4759  0.4158
   66MOL   C15247082   4.069   5.676   1.282  0.3045 -0.3084 -0.1660
   66MOL   O15347083   4.149   5.658   1.377  0.1033  0.4550  0.6256
   66MOL   N15447084   4.053   5.793   1.216  0.3169 -0.0563 -0.0191
   66MOL   C15547085   4.094   5.925   1.261  0.4777  0.2691  0.4300
   66MOL   C15647086   3.980   6.017   1.310 -0.7169 -0.0437  0.7333
   66MOL   C15747087   4.037   6.140   1.388  0.0065  1.0619  0.7507
   66MOL   C15847088   3.919   6.208   1.459  0.1550 -0.4432 -0.1323
   66MOL   C15947089   3.979   6.288   1.577 -0.2433  0.0782  1.2362
   66MOL   C16047090   3.880   6.345   1.673 -0.1252 -0.5737  0.6759
   66MOL   N16147091   3.945   6.415   1.780 -0.5275 -0.4323  0.0165
   66MOL   C16247092   3.877   5.521   1.261 -0.0134  0.7778  0.3299
   66MOL   C16347093   3.820   5.411   1.198 -0.2658 -0.2784 -0.2387
   66MOL   H16447094   4.044   5.353   0.946 -0.9316 -0.5551 -0.9653
   66MOL   H16547095   4.141   5.566   1.049  1.3032 -1.8373 -0.8867
   66MOL   H16647096   4.009   5.790   1.125 -0.1339 -0.2160  0.2002
   66MOL   H16747097   4.159   5.916   1.348  1.4058  1.4926 -0.1207
   66MOL   H16847098   4.149   5.990   1.193  1.5588 -1.6606 -0.5790
   66MOL   H16947099   3.917   5.955   1.375 -1.8737  0.1835 -0.1645
   66MOL   H17047100   3.918   6.043   1.224 -1.3954 -1.2462  0.8424
   66MOL   H17147101   4.107   6.108   1.465 -1.9232 -4.4116  0.4563
   66MOL   H17247102   4.093   6.202   1.318  3.1199 -0.8528  1.4754
   66MOL   H17347103   3.837   6.143   1.492  0.5481 -0.4623  0.8285
   66MOL   H17447104   3.872   6.284   1.396  0.2027 -1.0886 -0.9575
   66MOL   H17547105   4.048   6.360   1.534 -0.0614  0.5144  2.2672
   66MOL   H17647106   4.050   6.230   1.635 -2.0014 -1.0736  2.2834
   66MOL   H17747107   3.830   6.431   1.627  1.3771  1.6772  3.1212
   66MOL   H17847108   3.797   6.281   1.702 -0.0489 -0.8374  0.3234
   66MOL   H17947109   3.976   6.508   1.756 -1.4306  0.0174  0.5929
   66MOL   H18047110   3.829   5.549   1.354 -1.8564 -2.0818  0.2990
   66MOL   H18147111   3.727   5.365   1.228 -1.1986  0.2413 -2.2879
   66MOL   C18247112   3.967   6.374   1.897  0.6847  0.7572  0.2862
   66MOL   O18347113   3.940   6.261   1.927  0.7106  0.1130 -0.0058
   66MOL   C18447114   4.026   6.471   1.996 -0.3535 -1.1050  0.1856
   66MOL   C18547115   4.015   6.610   1.976 -0.0450 -0.8765  0.1818
   66MOL   C18647116   4.084   6.698   2.069  0.0401 -0.5159  0.2397
   66MOL   C18747117   4.160   6.644   2.179  0.1757 -0.3775  0.3776
   66MOL   C18847118   4.231   6.740   2.268  0.3599  0.0913  0.0479
   66MOL   O18947119   4.341   6.775   2.230  0.3348 -0.5464 -0.1094
   66MOL   N19047120   4.157   6.780   2.373  0.2783 -0.6666 -0.0184
   66MOL   C19147121   4.201   6.880   2.467  0.4432  0.5263 -0.3299
   66MOL   C19247122   4.078   6.914   2.546 -0.2026 -0.0920  0.5120
   66MOL   C19347123   4.097   7.036   2.624  0.6736  0.0382  0.0778
   66MOL   C19447124   3.977   7.071   2.710  0.5165 -0.3286 -0.6729
   66MOL   C19547125   3.999   7.208   2.768 -1.0250 -0.7354 -0.3287
   66MOL   C19647126   3.885   7.264   2.860  0.6800  0.4593  0.1381
   66MOL   N19747127   3.850   7.177   2.969 -0.3033  0.3807 -0.1753
   66MOL   C19847128   4.151   6.508   2.205 -0.2532 -0.1905 -0.2590
   66MOL   C19947129   4.092   6.419   2.110 -0.3389 -0.9124 -0.5107
   66MOL   H20047130   3.967   6.654   1.890  2.4262  0.6128 -0.4676
   66MOL   H20147131   4.077   6.805   2.055  1.1241 -0.4071  0.4101
   66MOL   H20247132   4.076   6.720   2.382  0.8627 -1.5240 -0.3983
   66MOL   H20347133   4.279   6.838   2.530  0.1878  0.6211  0.0477
   66MOL   H20447134   4.230   6.966   2.406  0.0906  0.9318  0.0638
   66MOL   H20547135   4.069   6.828   2.613 -0.4804  0.4945  1.2429
   66MOL   H20647136   3.997   6.911   2.474 -0.7166 -1.8209  1.1300
   66MOL   H20747137   4.182   7.022   2.691  2.0364 -0.4869 -1.7262
   66MOL   H20847138   4.114   7.113   2.549  1.0765  0.1311  0.2657
   66MOL   H20947139   3.970   6.991   2.784  0.1321 -0.1904 -0.5583
   66MOL   H21047140   3.885   7.074   2.652 -0.4918  0.4398  0.9453
   66MOL   H21147141   4.016   7.281   2.689  0.2652  0.2082  0.7937
   66MOL   H21247142   4.088   7.200   2.830 -1.2813  1.0044  0.2768
   66MOL   H21347143   3.915   7.367   2.880 -0.9961  1.5209 -2.5075
   66MOL   H21447144   3.798   7.279   2.796  1.4209  0.9673 -0.7903
   66MOL   H21547145   3.921   7.149   3.035 -0.9271 -1.4798 -0.2668
   66MOL   H21647146   4.186   6.471   2.300 -0.7227  1.5359  0.6109
   66MOL   H21747147   4.092   6.312   2.122 -0.3280 -1.0205 -1.4408
   66MOL   C21847148   3.723   7.137   2.996 -0.5955  0.7201 -0.3887
   66MOL   O21947149   3.625   7.165   2.921  0.2762 -0.9012 -0.5974
   66MOL   C22047150   3.698   7.059   3.118  0.2403  0.3792 -0.1759
   66MOL   C22147151   3.588   7.089   3.200 -0.1351 -0.1780  0.3579
   66MOL   C22247152   3.557   7.016   3.317 -0.0925  0.0634  0.0861
   66MOL   C22347153   3.639   6.899   3.348  0.2558 -0.2915  0.2243
   66MOL   C22447154   3.601   6.810   3.467 -0.2271  0.2418  0.9502
   66MOL   O22547155   3.682   6.734   3.515 -0.2684 -0.0502  0.7688
   66MOL   N22647156   3.474   6.811   3.508 -0.0703  0.0776  0.5302
   66MOL   C22747157   3.431   6.729   3.629 -0.2965  0.4514 -0.4152
   66MOL   C22847158   3.333   6.615   3.589  0.0374 -0.5220 -0.0739
   66MOL   C22947159   3.248   6.589   3.713  0.2961  0.6010  0.5128
   66MOL   C23047160   3.130   6.489   3.694  0.2227  0.2445  0.2018
   66MOL   C23147161   3.035   6.474   3.820 -0.2000 -0.1159 -0.1264
   66MOL   C23247162   2.949   6.348   3.819  0.4167 -0.1073 -0.2967
   66MOL   N23347163   2.856   6.340   3.931  0.6497 -0.5109 -0.3702
   66MOL   C23447164   3.758   6.875   3.270  0.4088 -0.2305 -0.1867
   66MOL   C23547165   3.783   6.959   3.160  0.7949  0.2950 -0.1348
   66MOL   H23647166   3.526   7.170   3.165  1.8973  1.3210  0.1153
   66MOL   H23747167   3.468   7.043   3.371  0.9597  1.4001  1.1902
   66MOL   H23847168   3.417   6.874   3.455 -2.7665 -1.0824  1.9478
   66MOL   H23947169   3.516   6.700   3.691 -1.3838  0.9252  1.3272
   66MOL   H24047170   3.377   6.789   3.702  0.1701  0.1760  0.1707
   66MOL   H24147171   3.385   6.524   3.560 -0.1437 -0.8292  0.5426
   66MOL   H24247172   3.272   6.638   3.502 -1.2625 -1.8482  0.4653
   66MOL   H24347173   3.317   6.552   3.788  0.3826 -2.1090 -0.8103
   66MOL   H24447174   3.208   6.686   3.741  0.9352  1.2270 -0.7153
   66MOL   H24547175   3.174   6.391   3.681  2.8782  1.5703 -1.2051
   66MOL   H24647176   3.075   6.514   3.603  2.5359  1.7826 -0.8133
   66MOL   H24747177   2.979   6.567   3.825 -2.5848 -1.6123  3.0871
   66MOL   H24847178   3.098   6.469   3.909 -2.5314 -0.1877  1.5528
   66MOL   H24947179   2.900   6.354   3.722 -0.5936 -0.6962  0.1687
   66MOL   H25047180   3.018   6.263   3.818  1.1244  0.4761 -1.1082
   66MOL   H25147181   2.826   6.426   3.975 -0.9775 -1.2558  0.0349
   66MOL   H25247182   3.813   6.784   3.290 -0.0297 -0.4497  0.0374
   66MOL   H25347183   3.879   6.946   3.112  1.0455  0.8269  0.2198
   66MOL   C25447184   2.796   6.229   3.980  0.4824 -0.1471 -0.0694
   66MOL   O25547185   2.837   6.119   3.953  0.1806  0.6047 -0.3208
   66MOL   C25647186   2.687   6.249   4.074 -0.4588  0.0295 -0.2916
   66MOL   C25747187   2.651   6.375   4.115  0.2816 -0.2847 -0.6851
   66MOL   C25847188   2.528   6.400   4.180  0.0539  0.1719  0.2004
   66MOL   C25947189   2.439   6.296   4.187  0.1539  0.5639 -0.6183
   66MOL   C26047190   2.296   6.311   4.236  0.2246  0.4087  0.8002
   66MOL   O26147191   2.262   6.381   4.328  0.2992  0.0081  0.2721
   66MOL   N26247192   2.210   6.244   4.157  0.2347  0.6072  0.4634
   66MOL   C26347193   2.066   6.239   4.170 -0.5110  0.0509 -0.3004
   66MOL   C26447194   2.013   6.148   4.061  0.7601 -0.4762 -0.6195
   66MOL   C26547195   1.862   6.103   4.085  0.1743  0.0898 -0.0336
   66MOL   C26647196   1.790   6.026   3.975  0.1186  0.4617  0.1963
   66MOL   C26747197   1.640   6.022   3.995  0.1695 -0.0325  0.4426
   66MOL   C26847198   1.570   5.938   3.883  0.0044 -0.3314  0.1972
   66MOL   N26947199   1.430   5.909   3.924  0.1319 -0.6149  0.1965
   66MOL   C27047200   2.474   6.165   4.152  0.5728 -0.4732  0.1662
   66MOL   C27147201   2.604   6.143   4.108  0.1507  0.0246  0.2678
   66MOL   H27247202   2.719   6.458   4.107 -0.9154  0.5249 -2.8588
   66MOL   H27347203   2.498   6.497   4.217 -0.8028 -0.0209  0.0173
   66MOL   H27447204   2.248   6.196   4.076  0.4929  1.4524  0.0843
   66MOL   H27547205   2.031   6.188   4.260  2.3580  1.3956  1.6614
   66MOL   H27647206   2.025   6.339   4.184 -0.3966  0.3425 -1.9168
   66MOL   H27747207   2.078   6.064   4.033  0.7095 -0.0362 -2.1180
   66MOL   H27847208   2.018   6.204   3.968 -2.2703  0.6384 -0.1523
   66MOL   H27947209   1.846   6.056   4.182 -1.3547  0.5408 -0.0512
   66MOL   H28047210   1.799   6.191   4.097 -0.3108 -0.5473  2.3456
   66MOL   H28147211   1.823   5.924   3.956 -1.7573 -0.2565  0.5998
   66MOL   H28247212   1.816   6.068   3.878 -0.3759 -1.8851 -1.0109
   66MOL   H28347213   1.606   6.125   4.007  0.9164  0.5565 -2.0993
   66MOL   H28447214   1.612   5.976   4.089 -1.7959  0.3757  0.0749
   66MOL   H28547215   1.557   5.994   3.790  1.2272 -0.0290  0.2026
   66MOL   H28647216   1.607   5.839   3.858  0.8111 -0.3304  1.3253
   66MOL   H28747217   1.399   5.954   4.009 -0.2471 -2.7349  1.2331
   66MOL   H28847218   2.404   6.083   4.161  2.2819 -1.9513  0.1782
   66MOL   H28947219   2.626   6.040   4.086 -0.8009 -0.6228  2.2107
   66MOL   C29047220   1.337   5.823   3.886  0.5889 -0.6771 -0.4427
   66MOL   O29147221   1.355   5.751   3.788 -0.1025 -0.1199 -0.3200
   66MOL   C29247222   1.223   5.802   3.985 -0.2135 -0.3522 -0.4824
   66MOL   C29347223   1.239   5.749   4.112  0.0572  0.4586 -0.4121
   66MOL   C29447224   1.132   5.731   4.201 -0.0926 -0.2792  0.3230
   66MOL   C29547225   1.003   5.768   4.161 -0.4756 -0.9854 -0.5097
   66MOL   C29647226   0.895   5.767   4.258  0.5136 -0.3168  0.2260
   66MOL   O29747227   0.910   5.732   4.379  0.4997 -0.0538  0.0275
   66MOL   N29847228   0.771   5.788   4.205  0.2189 -0.1841 -0.2981
   66MOL   C29947229   0.640   5.792   4.258  0.4965  0.0534 -0.4811
   66MOL   C30047230   0.598   5.927   4.322 -0.2698  0.7846 -0.9442
   66MOL   C30147231   0.448   5.934   4.345 -0.2216 -0.7726 -0.0080
   66MOL   C30247232   0.418   6.069   4.422  0.2026  0.8056 -0.5445
   66MOL   C30347233   0.455   6.199   4.344 -0.0283  0.4187 -0.1217
   66MOL   C30447234   0.390   6.327   4.410 -1.1193 -0.0005 -0.1316
   66MOL   N30547235   0.418   6.446   4.335  0.4489 -0.0356  0.2853
   66MOL   C30647236   0.989   5.823   4.031  0.4230 -0.3003  0.8347
   66MOL   C30747237   1.094   5.841   3.940 -0.0039  0.6317  0.2283
   66MOL   H30847238   1.330   5.699   4.142 -0.7174 -0.3541  0.6252
   66MOL   H30947239   1.146   5.673   4.291 -2.4598 -1.8937 -0.3011
   66MOL   H31047240   0.778   5.819   4.109 -0.4409 -0.8197 -0.5608
   66MOL   H31147241   0.573   5.769   4.175 -1.2136 -1.3837  1.2440
   66MOL   H31247242   0.628   5.720   4.339  0.0572 -0.3444 -0.8957
   66MOL   H31347243   0.626   6.001   4.247  0.2579 -1.0545 -2.6156
   66MOL   H31447244   0.655   5.942   4.413 -2.3935 -0.4785  0.6287
   66MOL   H31547245   0.403   5.942   4.246  0.0395 -1.3748 -0.1810
   66MOL   H31647246   0.411   5.850   4.404 -3.9759  0.5770 -0.3172
   66MOL   H31747247   0.462   6.057   4.522 -1.1436  0.9223  0.0698
   66MOL   H31847248   0.312   6.071   4.447  0.3452 -0.0275  0.1773
   66MOL   H31947249   0.430   6.183   4.239 -1.0720 -0.1331  0.2061
   66MOL   H32047250   0.564   6.210   4.344  0.0980 -0.7486  0.5806
   66MOL   H32147251   0.282   6.324   4.416 -1.2456 -0.3599 -2.1647
   66MOL   H32247252   0.425   6.334   4.513 -0.8464  2.7619 -0.3633
   66MOL   H32347253   0.411   6.440   4.234  2.4293 -2.0133  0.2370
   66MOL   H32447254   0.893   5.859   3.997  0.4466  1.3235  2.3902
   66MOL   H32547255   1.064   5.876   3.842 -0.2974 -1.1000 -0.3128
   66MOL   C32647256   0.443   6.562   4.394 -0.1021  0.8674 -0.6493
   66MOL   O32747257   0.430   6.582   4.516 -0.3191 -0.2418  0.1544
   66MOL   C32847258   0.487   6.675   4.312 -0.4954  0.8242 -0.1667
   66MOL   C32947259   0.445   6.807   4.335  0.2403 -0.6963 -0.1348
   66MOL   C33047260   0.489   6.914   4.257  0.2881 -0.0828 -0.0308
   66MOL   C33147261   0.569   6.889   4.144  0.6164 -0.1286  0.1638
   66MOL   C33247262   0.618   7.000   4.060  0.6705  0.0925  0.3061
   66MOL   O33347263   0.710   6.984   3.985 -0.0336 -0.1258 -0.3348
   66MOL   N33447264   0.552   7.116   4.063 -0.2856 -0.0018 -0.1825
   66MOL   C33547265   0.603   7.236   4.000 -0.0989  0.1024 -0.4903
   66MOL   C33647266   0.620   7.352   4.099 -0.0834  0.1764 -0.1706
   66MOL   C33747267   0.674   7.309   4.239  0.6709 -0.6577 -0.0301
   66MOL   C33847268   0.672   7.417   4.341 -0.1589 -0.9629 -0.1861
   66MOL   C33947269   0.670   7.565   4.295  0.5781  0.7472 -0.0491
   66MOL   C34047270   0.650   7.665   4.409  0.1809  0.0922  0.3012
   66MOL   N34147271   0.684   7.804   4.376  0.3182 -0.1426 -0.1182
   66MOL   C34247272   0.606   6.756   4.117 -0.4053 -0.0853  0.3159
   66MOL   C34347273   0.572   6.652   4.208 -0.0883 -0.5372 -0.5416
   66MOL   H34447274   0.393   6.820   4.428  1.9099 -0.2898  0.7711
   66MOL   H34547275   0.460   7.010   4.297 -1.1838  0.2598 -1.8663
   66MOL   H34647276   0.474   7.118   4.126  1.2028 -1.9891  1.7907
   66MOL   H34747277   0.699   7.229   3.948  0.1248  2.3442 -0.4065
   66MOL   H34847278   0.535   7.263   3.919  0.1805 -1.9297 -1.4327
   66MOL   H34947279   0.522   7.397   4.107 -0.2386 -0.2148  0.1624
   66MOL   H35047280   0.679   7.429   4.049  1.6687  0.6233  2.5036
   66MOL   H35147281   0.621   7.228   4.289  1.8906 -0.9503  0.8240
   66MOL   H35247282   0.775   7.267   4.235  1.7711  1.9635 -0.7136
   66MOL   H35347283   0.752   7.399   4.413 -0.6393  1.2110  0.9250
   66MOL   H35447284   0.583   7.393   4.398 -0.0426 -1.4831 -0.2169
   66MOL   H35547285   0.594   7.584   4.219  0.4748 -1.0085 -0.4083
   66MOL   H35647286   0.766   7.589   4.248  1.9017 -0.0855  2.1777
   66MOL   H35747287   0.546   7.659   4.442 -0.1886 -1.0303 -0.9939
   66MOL   H35847288   0.715   7.639   4.492 -1.7449  0.3497  1.9303
   66MOL   H35947289   0.761   7.846   4.426 -0.7214  1.1537  0.4208
   66MOL   H36047290   0.658   6.737   4.024 -1.7169  0.9876 -0.6475
   66MOL   H36147291   0.625   6.559   4.194  2.3567  0.3302  2.2362
   66MOL   C36247292   0.615   7.881   4.287 -0.1808 -0.4133  0.1847
   66MOL   O36347293   0.521   7.840   4.223 -0.5657  0.3227  0.0394
   66MOL   C36447294   0.673   0.135   4.276 -0.0956 -0.0086 -0.7892
   66MOL   C36547295   0.714   0.203   4.395  0.5422 -0.0592  0.5041
   66MOL   C36647296   0.747   0.337   4.393 -0.6718  0.0660  0.0505
   66MOL   C36747297   0.762   0.405   4.262 -0.5935  1.0153  0.1285
   66MOL   C36847298   0.803   0.551   4.267  0.0103  0.1494 -0.4291
   66MOL   O36947299   0.880   0.601   4.347  0.0386  0.5350 -0.2266
   66MOL   N37047300   0.752   0.623   4.166 -0.6504  0.1137  0.2732
   66MOL   C37147301   0.788   0.760   4.137  0.3921  0.5133  0.2087
   66MOL   C37247302   0.695   0.809   4.031  0.6698  0.0261 -0.7965
   66MOL   C37347303   0.690   0.962   4.010 -0.0250 -0.1509 -0.1963
   66MOL   C37447304   0.599   0.995   3.883  0.5508  0.2035 -0.4115
   66MOL   C37547305   0.577   1.142   3.862  0.0776  0.0499 -0.6475
   66MOL   C37647306   0.472   1.174   3.758  0.1813 -0.6818  0.4286
   66MOL   N37747307   0.350   1.110   3.794 -0.0845  0.3503  0.4628
   66MOL   C37847308   0.734   0.333   4.145 -0.0297  0.3533 -0.1881
   66MOL   C37947309   0.677   0.204   4.151 -0.3287  0.0689 -0.1032
   66MOL   H38047310   0.704   0.161   4.494  2.3762 -1.6212  0.0613
   66MOL   H38147311   0.775   0.389   4.484 -2.0524  1.0564 -0.0775
   66MOL   H38247312   0.706   0.572   4.093  0.3597 -1.1292  0.4895
   66MOL   H38347313   0.763   0.814   4.228  0.4025 -1.9249  1.6935
   66MOL   H38447314   0.890   0.770   4.098  1.1989  0.4971  2.2626
   66MOL   H38547315   0.594   0.787   4.064  0.9940 -2.4258 -1.3638
   66MOL   H38647316   0.725   0.748   3.945  0.0610 -2.2665  0.5812
   66MOL   H38747317   0.643   1.012   4.095  0.1385  1.3329 -0.9483
   66MOL   H38847318   0.792   1.003   4.003  1.3469 -3.3782  0.1458
   66MOL   H38947319   0.508   0.938   3.898  1.0353 -0.8612 -1.4717
   66MOL   H39047320   0.641   0.962   3.788 -0.2974 -4.5167  0.7251
   66MOL   H39147321   0.669   1.191   3.829  0.0502 -0.2049 -1.1081
   66MOL   H39247322   0.555   1.192   3.957  1.0126  3.1818 -2.0135
   66MOL   H39347323   0.459   1.281   3.749 -0.6182 -0.7910  0.2705
   66MOL   H39447324   0.512   1.136   3.664 -0.8247  0.9828 -0.6816
   66MOL   H39547325   0.322   1.104   3.891  0.1680 -0.7050  0.4738
   66MOL   H39647326   0.745   0.382   4.049  1.7601  2.9025  1.2801
   66MOL   H39747327   0.650   0.139   4.069  2.9250  0.4183 -1.5159
   66MOL   C39847328   0.267   1.046   3.710 -0.7873  0.1334 -0.5424
   66MOL   O39947329   0.275   1.060   3.588 -0.0092 -0.4267  0.5357
   66MOL   C40047330   0.164   0.962   3.780 -0.0845  0.8627  0.1943
   66MOL   C40147331   0.180   0.923   3.917 -0.2816  0.0273  1.0319
   66MOL   C40247332   0.090   0.837   3.978 -0.6275  0.2243  0.0952
   66MOL   C40347333   7.869   0.780   3.901 -0.8395  0.0867  0.0426
   66MOL   C40447334   7.782   0.672   3.968  0.4070 -0.2922 -0.8297
   66MOL   O40547335   7.819   0.617   4.069  0.1872  0.0860  0.2108
   66MOL   N40647336   7.663   0.654   3.911  0.0499  0.4418 -0.5243
   66MOL   C40747337   7.551   0.602   3.979 -0.2058 -0.8278 -0.1065
   66MOL   C40847338   7.534   0.451   3.947  0.7402  0.0675  0.0641
   66MOL   C40947339   7.410   0.387   4.012 -0.3828 -0.3405 -0.1453
   66MOL   C41047340   7.424   0.230   4.004 -0.3682 -0.0377 -0.6873
   66MOL   C41147341   7.343   0.150   4.104 -0.7432 -0.2447  0.1015
   66MOL   C41247342   7.405   0.015   4.143 -0.4423 -0.1167 -0.1389
   66MOL   N41347343   7.361   7.867   4.276  0.5252  0.1631  0.0063
   66MOL   C41447344   7.848   0.823   3.767 -0.2170  0.3599 -0.0070
   66MOL   C41547345   0.053   0.913   3.706 -0.5141 -0.2673  0.0891
   66MOL   H41647346   0.270   0.952   3.969 -0.0159  0.2905  0.4234
   66MOL   H41747347   0.116   0.816   4.081  0.5049  3.3838  0.4834
   66MOL   H41847348   7.641   0.703   3.826 -2.1705 -0.2486 -0.3808
   66MOL   H41947349   7.566   0.626   4.085  0.7284 -0.9350 -0.2079
   66MOL   H42047350   7.461   0.653   3.944  0.1714 -0.7835 -1.0274
   66MOL   H42147351   7.615   0.399   3.997 -1.3292 -1.8269  1.5117
   66MOL   H42247352   7.531   0.423   3.841  0.0513 -1.6257  0.5132
   66MOL   H42347353   7.406   0.433   4.111  1.0091  0.2992 -0.3679
   66MOL   H42447354   7.325   0.413   3.948  0.3227  0.6706 -0.6925
   66MOL   H42547355   7.530   0.211   4.025  0.1736  2.9525 -0.4918
   66MOL   H42647356   7.408   0.190   3.904  2.4689  0.0674 -1.2344
   66MOL   H42747357   7.237   0.151   4.076 -0.6468  1.1755 -0.2638
   66MOL   H42847358   7.345   0.208   4.196 -0.4587 -0.6294  0.3397
   66MOL   H42947359   7.371   7.825   4.073 -1.3587 -0.0233  0.2061
   66MOL   H43047360   7.513   0.009   4.156 -0.6530 -0.7889  1.3550
   66MOL   H43147361   7.435   7.870   4.345  1.4690 -1.2045 -0.9111
   66MOL   H43247362   7.764   0.791   3.708  0.3020 -0.7648 -0.1558
   66MOL   H43347363   0.041   0.931   3.600 -1.2311 -0.4923  0.1318
   66MOL   C43447364   7.254   7.783   4.301  0.1100  0.8068  0.5787
   66MOL   O43547365   7.187   7.738   4.209  0.0804  0.0125 -0.1847
   66MOL   C43647366   7.238   7.743   4.443  0.3240 -0.0793 -0.6423
   66MOL   C43747367   7.147   7.637   4.472  0.0216 -0.7642 -0.4757
   66MOL   C43847368   7.131   7.595   4.604 -0.0339 -0.1376 -0.7210
   66MOL   C43947369   7.208   7.653   4.705  0.3412 -0.1587 -0.4295
   66MOL   C44047370   7.197   7.598   4.847  0.4459  0.4525  0.4809
   66MOL   O44147371   7.191   7.477   4.865  0.5646 -0.3843  0.4540
   66MOL   N44247372   7.206   7.689   4.943  0.1525  0.3856  0.1538
   66MOL   C44347373   7.238   7.659   5.082 -0.1550  0.0472  0.2701
   66MOL   C44447374   7.129   7.569   5.149  0.8889  0.7355  0.5338
   66MOL   C44547375   7.137   7.579   5.303  0.4155 -0.3067 -0.9957
   66MOL   C44647376   7.037   7.485   5.375 -0.8235 -0.4837 -0.5025
   66MOL   C44747377   7.082   7.340   5.376 -0.1144 -0.2061  0.1356
   66MOL   C44847378   6.980   7.256   5.460  0.4474  0.9356  0.9754
   66MOL   N44947379   6.991   7.113   5.423  0.8762  0.3983 -0.0516
   66MOL   C45047380   7.293   7.762   4.680  0.1915 -0.6677 -0.6700
   66MOL   C45147381   7.308   7.806   4.546 -0.2975  0.3198 -0.3842
   66MOL   H45247382   7.103   7.601   4.381  0.6828  1.5594 -1.7674
   66MOL   H45347383   7.058   7.520   4.628 -1.0701  0.9446 -0.4444
   66MOL   H45447384   7.193   7.788   4.924  1.3667  0.9738  2.3015
   66MOL   H45547385   7.336   7.617   5.101 -0.8935 -1.8804 -0.1149
   66MOL   H45647386   7.239   7.757   5.130 -1.6333  0.7990 -1.1730
   66MOL   H45747387   7.147   7.463   5.129 -1.2531  0.6671 -1.2267
   66MOL   H45847388   7.035   7.600   5.104  1.7071  0.2389 -1.5658
   66MOL   H45947389   7.238   7.567   5.341 -0.0967 -1.9913 -0.0878
   66MOL   H46047390   7.118   7.681   5.336  0.0911 -0.3039 -1.1858
   66MOL   H46147391   6.934   7.496   5.341 -0.6655  1.6212 -0.3630
   66MOL   H46247392   7.029   7.514   5.480 -0.8368 -0.2296 -0.5741
   66MOL   H46347393   7.180   7.344   5.423  0.2210 -1.2174 -0.4529
   66MOL   H46447394   7.088   7.301   5.274 -0.7407  2.2439 -0.8669
   66MOL   H46547395   6.983   7.279   5.567  1.3088  1.8317  0.7702
   66MOL   H46647396   6.877   7.286   5.439 -0.1979 -0.7308  1.6694
   66MOL   H46747397   7.031   7.088   5.333 -0.2750  3.4225 -1.4614
   66MOL   H46847398   7.356   7.796   4.761 -1.1986  1.9966 -0.6578
   66MOL   H46947399   7.368   0.007   4.527  1.6074 -1.2809 -1.9065
   66MOL   C47047400   6.945   7.013   5.499 -0.0324 -0.8577 -0.5671
   66MOL   O47147401   6.928   7.034   5.616 -0.3386 -0.1542 -0.3239
   66MOL   C47247402   6.912   6.883   5.436  0.5970  1.0197  0.1276
   66MOL   C47347403   6.920   6.764   5.508 -0.8543 -0.2559 -0.3065
   66MOL   C47447404   6.898   6.637   5.458  0.3815 -0.7361  0.3960
   66MOL   C47547405   6.856   6.626   5.325 -0.0380 -0.1424  0.4093
   66MOL   C47647406   6.854   6.490   5.256 -0.4592  0.3218 -0.3160
   66MOL   O47747407   6.771   6.467   5.169 -0.3226 -0.3403 -0.3446
   66MOL   N47847408   6.954   6.406   5.289 -0.1204  0.2400  0.4712
   66MOL   C47947409   6.987   6.273   5.226  1.0040 -0.2944 -0.3656
   66MOL   C48047410   7.045   6.286   5.087 -0.1187  0.6294 -0.3210
   66MOL   C48147411   7.095   6.154   5.035 -0.6089  0.4477  0.3580
   66MOL   C48247412   7.153   6.170   4.890 -0.5550  0.0455 -0.2009
   66MOL   C48347413   7.045   6.163   4.782 -0.0485  0.3255 -0.1291
   66MOL   C48447414   7.055   6.275   4.678 -0.8241 -0.4626  0.1771
   66MOL   N48547415   7.027   6.400   4.742 -0.4342 -0.2212  0.6704
   66MOL   C48647416   6.843   6.738   5.242 -0.4347 -0.0765  0.2505
   66MOL   C48747417   6.871   6.868   5.297 -0.4201  0.7340 -0.2599
   66MOL   H48847418   6.963   6.782   5.605 -2.8425  0.1026  0.5407
   66MOL   H48947419   6.921   6.546   5.512  2.0206  0.1848  1.2683
   66MOL   H49047420   7.002   6.427   5.376  1.4973  0.2391 -0.4054
   66MOL   H49147421   7.060   6.232   5.295 -0.1954  1.1635  1.8400
   66MOL   H49247422   6.900   6.210   5.245  0.3354  0.3217 -1.3405
   66MOL   H49347423   7.126   6.358   5.098  0.5569 -0.1955  0.1803
   66MOL   H49447424   6.965   6.315   5.019  1.8858  2.6994 -1.8689
   66MOL   H49547425   7.166   6.125   5.112  1.9976 -0.8445 -2.4459
   66MOL   H49647426   7.028   6.068   5.040  0.2742 -0.2888 -0.3697
   66MOL   H49747427   7.222   6.091   4.859  1.5079  2.5269 -2.2778
   66MOL   H49847428   7.210   6.263   4.884  0.6114 -0.6002  0.7776
   66MOL   H49947429   6.946   6.163   4.827 -0.2430 -0.1755 -0.5442
   66MOL   H50047430   7.048   6.067   4.730  0.0410  1.1144 -1.6124
   66MOL   H50147431   7.158   6.279   4.644 -0.2982 -1.5219  1.5943
   66MOL   H50247432   6.982   6.269   4.598  0.3404 -0.8104 -0.8685
   66MOL   H50347433   7.101   6.422   4.807 -0.7890 -0.4516  1.1556
   66MOL   H50447434   6.809   6.722   5.141 -2.2466  1.4289  0.5879
   66MOL   H50547435   6.855   6.950   5.229  1.4319 -0.3766 -2.0933
   66MOL   C50647436   6.920   6.478   4.727  0.2096  0.5532 -0.0158
   66MOL   O50747437   6.823   6.450   4.658 -0.1892 -0.7334  0.0867
   66MOL   C50847438   6.927   6.604   4.805 -0.4165  0.1476  0.2134
   66MOL   C50947439   7.011   6.619   4.915 -0.6405 -0.4403 -0.0587
   66MOL   C51047440   7.022   6.742   4.983 -0.2231 -0.4325  0.9340
   66MOL   C51147441   6.957   6.855   4.933  0.8485  0.2797 -0.2600
   66MOL   C51247442   6.979   6.981   5.002  0.2361  0.1896  0.0145
   66MOL   O51347443   7.082   7.008   5.066 -0.1969 -0.3420 -0.0137
   66MOL   N51447444   6.875   7.063   4.996  0.8250 -0.3303  0.0032
   66MOL   C51547445   6.864   7.195   5.052 -0.5379 -0.0649 -0.2900
   66MOL   C51647446   6.943   7.304   4.969  0.0125  0.4145  0.4533
   66MOL   C51747447   6.860   7.376   4.858 -0.1563 -0.2800  0.0842
   66MOL   C51847448   6.828   7.281   4.735 -0.3115 -0.7545  0.3838
   66MOL   C51947449   6.729   7.344   4.632  0.5360 -0.3189 -0.1698
   66MOL   C52047450   6.581   7.342   4.685 -0.5416  0.3480  0.9868
   66MOL   N52147451   6.500   7.426   4.591  0.1223  0.5317 -1.1762
   66MOL   C52247452   6.862   6.843   4.831  0.5714  0.4476 -0.3501
   66MOL   C52347453   6.852   6.723   4.763 -0.1384 -0.0410  0.3066
   66MOL   H52447454   7.072   6.538   4.952 -1.3760 -1.0223 -0.1047
   66MOL   H52547455   7.083   6.754   5.071 -1.4901  0.4793  1.7124
   66MOL   H52647456   6.797   7.030   4.941  0.1362  2.5836 -0.8299
   66MOL   H52747457   6.756   7.214   5.047 -0.4847  0.1385 -0.7000
   66MOL   H52847458   6.899   7.184   5.155  4.2453 -3.2076 -2.0926
   66MOL   H52947459   7.033   7.259   4.926  1.3806  1.8456  1.7572
   66MOL   H53047460   6.971   7.393   5.025 -2.4227  1.6572 -0.2530
   66MOL   H53147461   6.763   7.420   4.883 -0.4568 -0.9322  0.0604
   66MOL   H53247462   6.915   7.464   4.824  1.3992  0.3692  4.0435
   66MOL   H53347463   6.784   7.186   4.765 -1.0606 -0.6983 -0.5151
   66MOL   H53447464   6.920   7.261   4.680  0.0272 -1.0477  1.0554
   66MOL   H53547465   6.729   7.290   4.538  3.0239  0.1931 -0.4831
   66MOL   H53647466   6.767   7.443   4.607 -1.9040  0.3473 -1.4288
   66MOL   H53747467   6.541   7.242   4.672 -0.9455  0.1982  3.2309
   66MOL   H53847468   6.576   7.370   4.790 -0.4969  0.4916  0.9518
   66MOL   H53947469   6.524   7.439   4.494 -0.1082  1.0511 -1.1653
   66MOL   H54047470   6.822   6.931   4.785  0.6272 -0.3057 -1.8656
   66MOL   H54147471   6.781   6.725   4.681 -0.0934 -0.0828  0.2666
   66MOL   C54247472   6.408   7.515   4.635  0.9013 -0.1539 -0.0143
   66MOL   O54347473   6.374   7.525   4.754  0.0563  0.0834  0.0324
   66MOL   C54447474   6.336   7.594   4.524  0.5328 -0.5171  0.0886
   66MOL   C54547475   6.207   7.631   4.544  0.3799 -0.0196  0.1632
   66MOL   C54647476   6.135   7.707   4.453 -0.0567 -0.7109 -0.2991
   66MOL   C54747477   6.194   7.733   4.325  0.1353 -0.2328 -0.6366
   66MOL   C54847478   6.119   7.814   4.222  0.1114  0.8073 -0.3010
   66MOL   O54947479   6.175   7.835   4.114  0.6640 -0.3892  0.3199
   66MOL   N55047480   5.990   7.838   4.250 -0.3659  0.1710  0.3389
   66MOL   C55147481   5.896   7.880   4.148  1.0926  0.3160 -0.4397
   66MOL   C55247482   5.782   7.778   4.145 -0.1776 -0.5896  0.1335
   66MOL   C55347483   5.688   7.765   4.268  0.6303 -0.4332 -0.0469
   66MOL   C55447484   5.587   7.885   4.300  0.6302  1.0415  0.8909
   66MOL   C55547485   5.531   0.011   4.445  0.5452  0.5907  0.1609
   66MOL   C55647486   5.635   0.042   4.563  0.3405 -0.7594  0.3456
   66MOL   N55747487   5.710   0.164   4.524 -0.3487 -0.2877 -0.1495
   66MOL   C55847488   6.327   7.685   4.296  0.4780  0.3224  0.4036
   66MOL   C55947489   6.394   7.620   4.402 -0.0925  0.1121 -0.6172
   66MOL   H56047490   6.167   7.606   4.641 -0.1151 -2.4368 -0.6440
   66MOL   H56147491   6.035   7.741   4.475 -0.6442 -2.4138 -0.2485
   66MOL   H56247492   5.955   7.844   4.344 -0.2297 -0.6616  0.4455
   66MOL   H56347493   5.853   0.085   4.190 -0.7718 -1.1182  0.8597
   66MOL   H56447494   5.937   0.011   4.049 -2.3024 -1.9264 -2.3219
   66MOL   H56547495   5.831   7.685   4.115 -1.8258 -1.3819 -0.1645
   66MOL   H56647496   5.716   7.796   4.060  1.9709 -0.3625 -1.5524
   66MOL   H56747497   5.638   7.668   4.268 -0.5931  0.1587  2.9364
   66MOL   H56847498   5.746   7.749   4.359 -0.6664  1.8269  1.2030
   66MOL   H56947499   5.503   7.876   4.231  2.1457 -2.0274 -0.6501
   66MOL   H57047500   5.637   0.089   4.262  1.6966 -0.3917 -1.1824
   66MOL   H57147501   5.482   7.806   4.478  3.5690 -1.0268  0.3303
   66MOL   H57247502   5.455   0.090   4.439  0.9517  0.9560 -0.2441
   66MOL   H57347503   5.588   0.059   4.660  1.6219 -1.0738  1.0343
   66MOL   H57447504   5.705   7.846   4.581  1.9968  0.2487 -1.2977
   66MOL   H57547505   5.658   0.249   4.510 -3.2080 -1.5484  2.1993
   66MOL   H57647506   6.372   7.706   4.200 -0.7119  2.7055  0.3079
   66MOL   H57747507   6.494   7.584   4.381 -0.3619 -0.8946 -0.1957
   66MOL   C57847508   5.836   0.157   4.493 -0.4398 -1.0133  0.1538
   66MOL   O57947509   5.905   0.054   4.490  0.5094  0.1830  0.6313
   66MOL   C58047510   5.901   0.291   4.457  0.4296 -0.8967 -0.0330
   66MOL   C58147511   5.859   0.421   4.504  0.3934 -0.3830 -0.8776
   66MOL   C58247512   5.905   0.540   4.455  0.1374 -0.0197 -0.0925
   66MOL   C58347513   5.998   0.544   4.351  0.1959 -0.5425 -0.1051
   66MOL   C58447514   6.050   0.674   4.294 -0.0022  0.2837 -0.2890
   66MOL   O58547515   6.021   0.783   4.338  0.0694  0.3145 -0.3296
   66MOL   N58647516   6.120   0.667   4.184  0.2861  0.9930  0.1745
   66MOL   C58747517   6.150   0.775   4.095  0.7248 -0.5641  0.8947
   66MOL   C58847518   6.128   0.728   3.949 -0.2323  0.4875  0.8795
   66MOL   C58947519   6.142   0.849   3.844 -0.1440 -0.0490 -0.2461
   66MOL   C59047520   6.172   0.796   3.701 -0.3685 -0.4889  0.2015
   66MOL   C59147521   6.208   0.921   3.609 -0.1211  0.1530 -0.2528
   66MOL   C59247522   6.263   0.902   3.470  0.0675 -0.2473  0.1579
   66MOL   N59347523   6.359   0.794   3.469 -0.1368 -0.2238  0.6147
   66MOL   C59447524   6.052   0.416   4.306  0.0066 -0.7778 -0.3151
   66MOL   C59547525   6.005   0.291   4.364 -0.7626 -0.4769 -0.1580
   66MOL   H59647526   5.787   0.436   4.584  0.0852 -0.4011 -1.1504
   66MOL   H59747527   5.866   0.634   4.492 -0.6126  0.1019 -1.1501
   66MOL   H59847528   6.146   0.576   4.148 -1.4571  1.2111 -1.7368
   66MOL   H59947529   6.094   0.867   4.109  2.8294  1.0266 -0.7481
   66MOL   H60047530   6.256   0.798   4.109  1.2391 -2.5683  0.5105
   66MOL   H60147531   6.028   0.686   3.943  0.0249 -0.1993  1.2457
   66MOL   H60247532   6.199   0.647   3.931 -0.3624  0.4475  0.5446
   66MOL   H60347533   6.059   0.919   3.851  0.8337  1.0626  0.5079
   66MOL   H60447534   6.222   0.911   3.885 -0.3780  0.1261 -0.0442
   66MOL   H60547535   6.087   0.746   3.655 -1.6568  2.6231 -0.9447
   66MOL   H60647536   6.252   0.723   3.700  1.2318  1.2077  1.4463
   66MOL   H60747537   6.284   0.983   3.657 -0.9498 -0.5897  2.0812
   66MOL   H60847538   6.116   0.977   3.601  0.0028  0.2096 -1.4506
   66MOL   H60947539   6.178   0.882   3.405 -0.2712  4.1051 -0.8804
   66MOL   H61047540   6.306   0.997   3.438 -0.9765  0.9965  2.3348
   66MOL   H61147541   6.320   0.704   3.447  1.6130 -0.9444  0.3628
   66MOL   H61247542   6.131   0.415   4.232 -0.5950  1.5122 -1.0320
   66MOL   H61347543   6.036   0.197   4.319 -0.7168 -0.0805 -0.9701
   66MOL   C61447544   6.476   0.800   3.529  0.5551  0.2605 -0.0346
   66MOL   O61547545   6.533   0.902   3.565  0.3015 -0.0690 -0.4527
   66MOL   C61647546   6.542   0.662   3.561 -0.8627  0.2373 -0.0325
   66MOL   C61747547   6.673   0.651   3.617  0.4295  0.2673 -0.0692
   66MOL   C61847548   6.728   0.523   3.655  0.3909 -0.5377 -0.0714
   66MOL   C61947549   6.659   0.405   3.622 -0.2659 -0.4084 -0.0013
   66MOL   C62047550   6.721   0.270   3.641  0.4628  0.0824 -0.6756
   66MOL   O62147551   6.820   0.229   3.577  0.7008  0.2448 -0.8607
   66MOL   N62247552   6.669   0.212   3.751 -0.0350 -0.2413  0.1798
   66MOL   C62347553   6.707   0.092   3.805  0.0101 -0.0405 -0.7586
   66MOL   C62447554   6.642   0.074   3.947 -0.0598 -0.4729 -0.6295
   66MOL   C62547555   6.653   7.823   4.003  0.2913  0.0571  0.3291
   66MOL   C62647556   6.788   7.779   4.043 -0.2179 -0.0581  0.3979
   66MOL   C62747557   6.839   7.844   4.171 -0.2398  0.7975 -0.4392
   66MOL   C62847558   6.744   7.827   4.291 -0.2279  0.0359  0.1642
   66MOL   N62947559   6.811   7.848   4.418 -0.5673 -0.5560  0.0592
   66MOL   C63047560   6.528   0.413   3.564 -0.5735 -0.3276  0.7013
   66MOL   C63147561   6.470   0.539   3.538  0.2183 -0.6386  0.0374
   66MOL   H63247562   6.737   0.734   3.646  1.2093 -0.2665 -0.2397
   66MOL   H63347563   6.829   0.525   3.693 -0.5175  2.5021  2.3928
   66MOL   H63447564   6.591   0.265   3.786 -0.0609  0.2935 -0.6705
   66MOL   H63547565   6.690   0.009   3.736  3.7851 -1.7509  0.2191
   66MOL   H63647566   6.816   0.094   3.816 -0.0895  0.4842  0.2504
   66MOL   H63747567   6.536   0.090   3.930  0.2555  2.6852  0.1101
   66MOL   H63847568   6.664   0.158   4.013  0.6105 -0.5766 -0.7144
   66MOL   H63947569   6.579   7.814   4.083 -0.0064 -0.5359 -0.0023
   66MOL   H64047570   6.621   7.757   3.922 -0.5135  0.2275  0.5064
   66MOL   H64147571   6.860   7.794   3.963  0.9764  1.6084  1.7551
   66MOL   H64247572   6.783   7.671   4.054 -1.3389 -0.2568 -1.7980
   66MOL   H64347573   6.842   0.064   4.147  2.8781  0.4587 -1.7326
   66MOL   H64447574   6.941   7.809   4.188 -0.1517 -0.5787 -3.5018
   66MOL   H64547575   6.661   0.012   4.289 -1.1484 -1.0379 -0.7698
   66MOL   H64647576   6.711   7.723   4.282  0.0450 -0.0889  0.5641
   66MOL   H64747577   6.882   0.033   4.429 -0.7780 -0.3229 -0.0920
   66MOL   H64847578   6.481   0.316   3.556 -1.3665  0.2237 -1.7040
   66MOL   H64947579   6.376   0.531   3.485  0.0105 -3.7186  0.7951
   66MOL   C65047580   6.795   7.772   4.525  0.2489  0.0424 -0.1493
   66MOL   O65147581   6.708   7.683   4.527  0.5857 -0.0481  0.0569
   66MOL   C65247582   6.867   7.826   4.649 -0.5919 -0.4934  0.1955
   66MOL   C65347583   6.816   7.783   4.778  0.4107 -1.0516  0.6906
   66MOL   C65447584   6.877   7.832   4.895  0.1509 -0.1630  0.7619
   66MOL   C65547585   6.990   0.030   4.887  1.0603 -0.3407  0.4073
   66MOL   C65647586   7.060   0.075   5.009 -0.0372 -0.5460  0.2528
   66MOL   O65747587   7.176   0.102   5.003  0.5193 -0.0825  0.1786
   66MOL   N65847588   6.977   0.089   5.115 -0.4623  0.2907  0.2887
   66MOL   C65947589   7.017   0.133   5.247  0.7766  0.0493  0.1430
   66MOL   C66047590   6.983   0.281   5.278 -0.3195  0.2611  0.5237
   66MOL   C66147591   7.004   0.374   5.163 -0.5492  0.6888  0.1211
   66MOL   C66247592   6.969   0.520   5.201 -0.1712  0.0950 -0.2098
   66MOL   C66347593   6.982   0.617   5.080 -0.0940  0.4266 -0.3191
   66MOL   C66447594   6.904   0.750   5.092 -0.4633  0.1109  0.5561
   66MOL   N66547595   6.904   0.839   4.984 -0.0991 -0.4416  0.6040
   66MOL   C66647596   7.039   0.069   4.761  0.1039  0.9483 -0.3432
   66MOL   C66747597   6.980   0.029   4.642  0.3279  0.6450 -0.1097
   66MOL   H66847598   6.740   7.706   4.784 -0.0989 -0.7139 -1.1642
   66MOL   H66947599   6.845   7.800   4.994  0.1058 -1.2432  0.4051
   66MOL   H67047600   6.879   0.072   5.100 -0.6878  2.9137 -1.6263
   66MOL   H67147601   6.985   0.059   5.321  0.3537  0.2004  0.1168
   66MOL   H67247602   7.124   0.119   5.260  0.7475 -0.4932 -0.1751
   66MOL   H67347603   7.041   0.310   5.365  2.2205 -1.6370 -0.4815
   66MOL   H67447604   6.876   0.295   5.298 -0.5942  0.9126 -1.2424
   66MOL   H67547605   7.103   0.365   5.118 -0.9439  2.3248 -1.1230
   66MOL   H67647606   6.936   0.352   5.081 -2.3374 -0.3343  1.8354
   66MOL   H67747607   7.024   0.560   5.286 -2.6116 -0.6862  1.7822
   66MOL   H67847608   6.865   0.519   5.234  0.4467  0.1409  1.8152
   66MOL   H67947609   6.951   0.573   4.985 -0.4743  0.6892 -0.3191
   66MOL   H68047610   7.089   0.630   5.062 -0.2332  2.7921  0.3367
   66MOL   H68147611   6.803   0.726   5.125 -1.3443  0.9908 -1.3843
   66MOL   H68247612   6.939   0.817   5.170  1.4968  0.0635 -0.2592
   66MOL   H68347613   6.969   0.834   4.906 -1.6934 -1.5893 -0.6934
   66MOL   H68447614   7.129   0.130   4.760 -1.0014  2.6235  0.0413
   66MOL   H68547615   7.027   0.050   4.547 -1.2447  0.6488 -0.8969
   66MOL   C68647616   6.808   0.927   4.965  0.4129 -0.7931  0.5370
   66MOL   O68747617   6.701   0.911   5.023  0.2527  0.4329  0.3675
   66MOL   C68847618   6.828   1.039   4.860 -0.4535  0.3205 -0.6992
   66MOL   C68947619   6.960   1.090   4.827  0.1818  0.2438  0.4369
   66MOL   C69047620   6.975   1.192   4.736 -0.5535  0.2115 -0.0114
   66MOL   C69147621   6.853   1.251   4.681  0.1714  0.5253 -0.3392
   66MOL   C69247622   6.859   1.370   4.584  0.6858  0.2936  0.4057
   66MOL   O69347623   6.760   1.433   4.550  0.5543  0.2556  0.0338
   66MOL   N69447624   6.981   1.406   4.539  0.3545 -0.2381 -0.2440
   66MOL   C69547625   7.014   1.530   4.467  0.4145  0.2418  0.3709
   66MOL   C69647626   7.035   1.645   4.568 -0.5291  0.3922  0.0664
   66MOL   C69747627   7.155   1.623   4.660  0.2868  0.6678  0.0289
   66MOL   C69847628   7.165   1.748   4.748 -0.3433  0.4324  0.0398
   66MOL   C69947629   7.056   1.748   4.852  0.1392 -0.4070  0.0879
   66MOL   C70047630   7.096   1.857   4.953  0.0669  0.5738 -0.2644
   66MOL   N70147631   7.002   1.840   5.066  0.3909 -0.4250  0.1646
   66MOL   C70247632   6.726   1.199   4.709  0.0566  0.1878  0.6801
   66MOL   C70347633   6.710   1.097   4.800 -0.3023  0.3703 -0.4344
   66MOL   H70447634   7.042   1.055   4.890 -0.9223 -1.7094  0.8532
   66MOL   H70547635   7.071   1.233   4.710  0.5558 -1.8505  0.7180
   66MOL   H70647636   7.058   1.351   4.575  0.6308  1.1719  1.3373
   66MOL   H70747637   7.100   1.515   4.402  0.2021  1.2226 -0.1508
   66MOL   H70847638   6.920   1.552   4.415  0.4736  2.4486  1.1663
   66MOL   H70947639   6.942   1.649   4.625  0.1375 -2.7701  1.4735
   66MOL   H71047640   7.046   1.739   4.515  2.4769  0.9301  1.5708
   66MOL   H71147641   7.172   1.530   4.714  0.0269  1.2029  1.0259
   66MOL   H71247642   7.252   1.629   4.609 -0.6249 -0.9471 -1.9472
   66MOL   H71347643   7.166   1.844   4.695  0.3959 -0.4045 -1.4795
   66MOL   H71447644   7.262   1.744   4.799  1.6625 -1.5727 -3.7209
   66MOL   H71547645   7.054   1.645   4.886 -0.5721 -1.4681 -3.0376
   66MOL   H71647646   6.956   1.765   4.812  0.5838  1.2707 -0.3697
   66MOL   H71747647   7.199   1.852   4.990  0.6410  1.9105 -1.6636
   66MOL   H71847648   7.097   1.958   4.912  0.7411  0.5986 -0.1984
   66MOL   H71947649   6.971   1.745   5.075 -2.1215  0.4711  1.4945
   66MOL   H72047650   6.642   1.240   4.655  1.0155  1.1374 -0.1079
   66MOL   H72147651   6.610   1.058   4.811 -1.2092  2.5252 -0.7239
   66MOL   H72247652   7.056   1.870   5.146  0.8431  2.3031 -1.1153
   67MOL     C147653   7.126   6.327   1.664 -0.3237 -0.5620 -0.0846
   67MOL     O247654   7.092   6.263   1.761 -0.6367 -0.1159 -0.4532
   67MOL     C347655   7.225   6.433   1.671 -0.2352  0.5850 -0.4413
   67MOL     C447656   7.289   6.470   1.789  0.3371 -0.3063 -0.0172
   67MOL     C547657   7.395   6.566   1.798 -0.1017 -0.0475 -0.0230
   67MOL     C647658   7.429   6.633   1.680 -0.1514  0.3696 -0.6151
   67MOL     C747659   7.556   6.714   1.679  0.0650 -0.0930  0.6466
   67MOL     O847660   7.608   6.756   1.577 -0.0924 -0.0089  0.1885
   67MOL     N947661   7.610   6.744   1.801 -0.0869  0.1264 -0.0799
   67MOL    C1047662   7.707   6.845   1.835 -0.2832  0.3606 -0.0615
   67MOL    C1147663   7.856   6.794   1.850 -0.8377  0.0684 -0.6176
   67MOL    C1247664   7.886   6.697   1.968 -0.3325 -0.0664  0.0533
   67MOL    C1347665   7.875   6.764   2.103 -0.4573 -0.1690 -0.6778
   67MOL    C1447666   0.085   6.699   2.205 -0.1300  0.0056 -0.3774
   67MOL    C1547667   0.052   6.730   2.354  1.0288 -0.9367  0.0719
   67MOL    N1647668   0.047   6.876   2.382  0.3395  0.0856 -0.7996
   67MOL    C1747669   7.358   6.602   1.557 -0.7113 -0.3347 -0.3049
   67MOL    C1847670   7.267   6.496   1.557  0.2871  0.0696 -0.2931
   67MOL    H1947671   7.254   6.419   1.878 -0.6400  2.0991  1.0535
   67MOL    H2047672   7.450   6.582   1.889 -0.0364  0.6496 -0.1789
   67MOL    H2147673   7.583   6.699   1.888  0.4336  0.8628  0.4677
   67MOL    H2247674   7.703   6.916   1.753  1.3767 -1.5005 -1.8255
   67MOL    H2347675   7.677   6.905   1.920 -0.0530 -0.3605  0.5337
   67MOL    H2447676   0.041   6.877   1.849 -0.0318 -0.6118 -3.0311
   67MOL    H2547677   0.000   6.756   1.753  0.7248  0.9285 -0.4869
   67MOL    H2647678   7.825   6.608   1.951  0.4787 -0.3922 -1.1960
   67MOL    H2747679   0.106   6.681   1.954 -0.6790 -3.3749  0.8426
   67MOL    H2847680   7.769   6.766   2.129  0.0564 -2.8489  2.0017
   67MOL    H2947681   0.011   6.871   2.099  0.9057 -0.4315 -0.4983
   67MOL    H3047682   0.193   6.713   2.196 -0.3146  1.7942  0.0226
   67MOL    H3147683   0.071   6.591   2.201 -2.0432  0.1749  1.1658
   67MOL    H3247684   7.836   6.693   2.362  0.2050  1.3428  0.3850
   67MOL    H3347685   0.119   6.679   2.424  2.0049  0.8457  0.4615
   67MOL    H3447686   0.113   6.938   2.337  1.3323 -0.2541  0.1529
   67MOL    H3547687   7.389   6.647   1.464 -0.5868 -0.4882 -0.3381
   67MOL    H3647688   7.213   6.464   1.469  1.7801 -2.3045 -0.3878
   67MOL    H3747689   7.089   6.303   1.565 -2.8110  1.4330  0.3238
   67MOL    C3847690   7.849   6.934   2.473  0.3878  0.1288  0.4620
   67MOL    O3947691   7.748   6.880   2.527  0.3280 -0.0431 -0.4807
   67MOL    C4047692   7.879   7.080   2.490 -0.1258  1.1345 -0.6834
   67MOL    C4147693   0.114   7.145   2.462 -0.4084 -0.3729  0.6655
   67MOL    C4247694   0.138   7.281   2.489 -0.5670 -0.1769  0.0158
   67MOL    C4347695   0.027   7.361   2.526  0.5504  0.3528  0.3906
   67MOL    C4447696   0.043   7.509   2.546 -0.4935  0.0400 -0.3173
   67MOL    O4547697   7.834   7.579   2.582 -0.4157 -0.0274  0.5900
   67MOL    N4647698   0.160   7.556   2.506 -0.0224 -0.1195  0.4673
   67MOL    C4747699   0.185   7.701   2.509 -0.4560  0.2942  0.1730
   67MOL    C4847700   0.219   7.750   2.649 -0.2567 -0.2188  0.6514
   67MOL    C4947701   0.224   0.014   2.656  0.1449 -0.4581 -0.6562
   67MOL    C5047702   0.361   0.064   2.610  0.2791 -0.0959  0.1665
   67MOL    C5147703   0.367   0.217   2.634  0.3485 -1.1212  0.3393
   67MOL    C5247704   0.499   0.264   2.580  0.1531 -0.9261 -0.7462
   67MOL    N5347705   0.511   0.403   2.613  0.3250  0.2092  0.2840
   67MOL    C5447706   7.781   7.294   2.549 -0.1559 -0.4334 -0.3661
   67MOL    C5547707   7.767   7.158   2.536 -0.2954  0.5795  0.2470
   67MOL    H5647708   0.200   7.089   2.428 -0.5011  0.6814 -1.3559
   67MOL    H5747709   0.238   7.322   2.493 -0.4246 -0.2613 -2.2428
   67MOL    H5847710   0.225   7.485   2.474 -0.6999  0.2458 -1.7703
   67MOL    H5947711   0.265   7.729   2.440 -2.2828  2.5591 -1.0694
   67MOL    H6047712   0.104   7.758   2.464 -0.0607 -0.0200 -0.9600
   67MOL    H6147713   0.318   7.719   2.683 -0.3397  0.2098  1.2775
   67MOL    H6247714   0.148   7.713   2.722  1.7712 -2.2358  1.6779
   67MOL    H6347715   0.143   0.048   2.591  1.1892  1.1447 -1.1553
   67MOL    H6447716   0.203   0.048   2.757 -1.1160 -1.0311 -0.7226
   67MOL    H6547717   0.384   0.044   2.505 -0.2508 -0.8801  0.1991
   67MOL    H6647718   0.442   0.018   2.666  0.1102  1.9740  2.1981
   67MOL    H6747719   0.348   0.253   2.735 -0.4440  3.0319 -1.1826
   67MOL    H6847720   0.286   0.260   2.575  1.6175  0.0772 -0.5529
   67MOL    H6947721   0.590   0.223   2.625  0.3618 -0.5322 -0.7965
   67MOL    H7047722   0.501   0.235   2.475  2.6584  0.6598 -1.1893
   67MOL    H7147723   0.477   0.446   2.698 -1.6340  0.1212 -0.4308
   67MOL    H7247724   7.694   7.354   2.570  0.0693  0.3493 -1.5525
   67MOL    H7347725   7.673   7.111   2.560  0.7262 -0.8270  1.6032
   67MOL    C7447726   0.575   0.484   2.529 -0.3051 -0.1848 -0.4615
   67MOL    O7547727   0.615   0.439   2.420  0.3645 -0.1568 -0.0772
   67MOL    C7647728   0.579   0.632   2.557 -0.1625  0.3257 -0.1533
   67MOL    C7747729   0.590   0.723   2.451 -0.1180  0.5317 -0.6094
   67MOL    C7847730   0.594   0.861   2.471 -0.1394  0.2801  0.0413
   67MOL    C7947731   0.597   0.914   2.597 -1.1005  0.2886 -0.1342
   67MOL    C8047732   0.596   1.065   2.622 -0.8432 -0.1484 -0.3250
   67MOL    O8147733   0.563   1.146   2.533  0.0329  0.7690 -0.1960
   67MOL    N8247734   0.652   1.106   2.734 -0.1304  0.8551  0.0789
   67MOL    C8347735   0.657   1.248   2.775  0.1765 -0.1835  0.3966
   67MOL    C8447736   0.554   1.268   2.886 -0.0108  0.0639  0.2653
   67MOL    C8547737   0.579   1.171   3.005  0.0623 -0.6824  0.3656
   67MOL    C8647738   0.473   1.190   3.117  0.6692 -0.0493 -0.6164
   67MOL    C8747739   0.494   1.112   3.249 -0.3696 -0.0853 -0.4808
   67MOL    C8847740   0.420   0.977   3.247  0.5514  0.1520 -0.4225
   67MOL    N8947741   0.441   0.911   3.375 -0.0886 -0.2294 -0.1611
   67MOL    C9047742   0.582   0.828   2.704 -0.1926  0.0929  0.1274
   67MOL    C9147743   0.571   0.689   2.688  0.0502 -0.0882  0.3507
   67MOL    H9247744   0.598   0.685   2.350 -1.5638  2.6699 -1.5520
   67MOL    H9347745   0.598   0.935   2.393 -0.1459  1.4588  1.1395
   67MOL    H9447746   0.679   1.046   2.811 -0.6007 -1.8625 -1.8065
   67MOL    H9547747   0.756   1.274   2.814  0.2182  0.5034 -0.1485
   67MOL    H9647748   0.645   1.310   2.686  0.2555 -2.6150 -1.3755
   67MOL    H9747749   0.453   1.253   2.847  0.0970 -0.3347  0.1362
   67MOL    H9847750   0.558   1.370   2.925 -1.9119 -0.0536  0.8376
   67MOL    H9947751   0.577   1.065   2.979 -0.7446 -0.2132 -1.5803
   67MOL   H10047752   0.680   1.185   3.043  0.9921  2.0801 -2.8403
   67MOL   H10147753   0.377   1.163   3.072  0.2824  1.4245 -0.7222
   67MOL   H10247754   0.476   1.298   3.131  2.5043  0.2205 -2.7322
   67MOL   H10347755   0.447   1.172   3.327 -0.4038 -2.0820  1.0776
   67MOL   H10447756   0.602   1.122   3.256 -0.4727 -0.3590  1.6687
   67MOL   H10547757   0.315   0.996   3.225  0.4810 -0.3816 -0.5490
   67MOL   H10647758   0.454   0.912   3.167  0.3457  1.1361 -1.3224
   67MOL   H10747759   0.368   0.911   3.444  0.0384 -1.0051 -0.0147
   67MOL   H10847760   0.565   0.870   2.802 -2.2019  0.1494 -0.2303
   67MOL   H10947761   0.558   0.637   2.782 -0.6028  1.3229  1.0448
   67MOL   C11047762   0.538   0.831   3.414  0.2159 -0.1377  0.0629
   67MOL   O11147763   0.637   0.805   3.346  0.2111  0.3971  0.4717
   67MOL   C11247764   0.516   0.765   3.548  0.7695 -0.1099  0.3908
   67MOL   C11347765   0.627   0.715   3.623 -0.2680  0.2754 -0.7585
   67MOL   C11447766   0.610   0.655   3.749  0.2385  0.3637 -0.3425
   67MOL   C11547767   0.481   0.654   3.810 -0.4009 -0.3280 -0.3516
   67MOL   C11647768   0.454   0.580   3.938 -0.4854 -0.1533 -0.1714
   67MOL   O11747769   0.538   0.502   3.987 -0.1383  0.1320  0.5669
   67MOL   N11847770   0.334   0.598   3.997 -0.5834 -0.1445  0.3019
   67MOL   C11947771   0.273   0.527   4.111 -0.2371 -0.1607 -0.3860
   67MOL   C12047772   0.269   0.371   4.093  0.0787 -0.1914 -0.1382
   67MOL   C12147773   0.180   0.286   4.186  0.0179 -0.2389 -0.0434
   67MOL   C12247774   0.188   0.138   4.161 -0.2095 -0.4825  0.7942
   67MOL   C12347775   0.085   0.049   4.224  0.5144 -0.5751 -0.4743
   67MOL   C12447776   0.096   7.785   4.216 -0.0004 -0.1098  0.6458
   67MOL   N12547777   7.858   7.716   4.258  0.4040 -0.4439 -0.2034
   67MOL   C12647778   0.373   0.697   3.729 -0.3079  0.4523 -0.2851
   67MOL   C12747779   0.385   0.753   3.605  0.0130  0.0123  0.6764
   67MOL   H12847780   0.728   0.735   3.592  0.0884 -0.3224 -0.0071
   67MOL   H12947781   0.699   0.616   3.795  0.7182  0.6640 -0.9977
   67MOL   H13047782   0.270   0.656   3.944  0.3364 -0.6741 -1.4253
   67MOL   H13147783   0.324   0.552   4.204  1.9448  0.1685 -1.6158
   67MOL   H13247784   0.171   0.563   4.117 -0.2520 -0.0311 -1.2739
   67MOL   H13347785   0.373   0.340   4.106 -0.0633  0.0757  1.7735
   67MOL   H13447786   0.248   0.338   3.991  0.3960 -0.4921 -0.1068
   67MOL   H13547787   0.184   0.324   4.288 -0.5632 -0.2458 -0.0174
   67MOL   H13647788   0.077   0.318   4.170 -0.5836 -1.1260  1.8994
   67MOL   H13747789   0.284   0.098   4.196 -0.7950 -0.5326  2.4169
   67MOL   H13847790   0.197   0.118   4.055 -1.1429 -1.0772  0.8207
   67MOL   H13947791   7.868   0.079   4.205  0.6669 -0.2230 -0.7367
   67MOL   H14047792   0.081   0.071   4.330 -1.4133  1.0579 -0.8576
   67MOL   H14147793   0.119   7.757   4.113 -3.4446 -1.0177  0.0612
   67MOL   H14247794   0.184   7.758   4.273  1.5550 -0.3407 -1.7923
   67MOL   H14347795   7.771   7.742   4.214  1.2814  2.3608 -0.3223
   67MOL   H14447796   0.274   0.682   3.769 -0.1583  0.7728  0.2178
   67MOL   H14547797   0.293   0.777   3.554  0.1434 -0.5488  0.1676
   67MOL   C14647798   7.857   7.613   4.342 -0.6381 -0.5897 -0.1249
   67MOL   O14747799   0.075   7.574   4.400  0.0814 -1.1597  0.3991
   67MOL   C14847800   7.729   7.550   4.376  0.9135  0.2924  0.9616
   67MOL   C14947801   7.720   7.464   4.490  0.1664 -0.7718  0.2669
   67MOL   C15047802   7.598   7.398   4.516 -0.1941  0.2006 -0.2246
   67MOL   C15147803   7.486   7.422   4.441 -0.2238 -0.1594  0.1969
   67MOL   C15247804   7.362   7.333   4.450  0.4216  0.6881 -0.3759
   67MOL   O15347805   7.302   7.293   4.353 -0.4388 -0.3865  0.1620
   67MOL   N15447806   7.332   7.290   4.575  0.4717  0.1002 -0.3186
   67MOL   C15547807   7.228   7.199   4.614 -0.2046  0.2265  0.1913
   67MOL   C15647808   7.254   7.141   4.758  0.3445  0.1972  0.2562
   67MOL   C15747809   7.384   7.068   4.782 -0.0479  0.7023  0.0610
   67MOL   C15847810   7.396   7.000   4.912 -0.1649 -0.5439 -0.1380
   67MOL   C15947811   7.527   6.920   4.932  0.1548  1.0355 -0.7427
   67MOL   C16047812   7.580   6.914   5.075 -0.3721 -0.1375 -0.0601
   67MOL   N16147813   7.703   6.833   5.100 -0.0093  0.1280 -0.1123
   67MOL   C16247814   7.487   7.521   4.341 -0.8365 -0.0078  0.0482
   67MOL   C16347815   7.608   7.577   4.302 -0.1572 -0.2792 -0.0116
   67MOL   H16447816   7.809   7.441   4.546  1.1967  1.1766 -0.5316
   67MOL   H16547817   7.591   7.328   4.598 -1.7607  2.3019  1.4949
   67MOL   H16647818   7.382   7.333   4.652 -1.3820  1.6778  0.0378
   67MOL   H16747819   7.133   7.249   4.600  0.5730  2.1620  1.5678
   67MOL   H16847820   7.233   7.117   4.542  1.3157 -2.0554  2.7620
   67MOL   H16947821   7.167   7.084   4.791  2.0869 -1.1679  2.6180
   67MOL   H17047822   7.247   7.226   4.826 -2.1327  0.0902  0.1761
   67MOL   H17147823   7.394   6.989   4.708 -2.4946 -0.8433  1.2992
   67MOL   H17247824   7.463   7.141   4.768  1.5587 -0.8855  0.6872
   67MOL   H17347825   7.306   6.942   4.933 -0.2517  0.5706  2.7858
   67MOL   H17447826   7.404   7.078   4.987  0.3243 -0.1550 -0.5879
   67MOL   H17547827   7.607   6.975   4.882  1.4568 -0.6621 -0.5893
   67MOL   H17647828   7.536   6.820   4.888  0.8778  0.7135  0.1301
   67MOL   H17747829   7.602   7.015   5.109 -0.9583  0.2247 -0.7451
   67MOL   H17847830   7.502   6.880   5.144  0.5081 -0.2279  0.9059
   67MOL   H17947831   7.778   6.828   5.033  0.0555  1.8650 -0.2088
   67MOL   H18047832   7.403   7.539   4.276  0.2497 -0.0903 -1.4153
   67MOL   H18147833   7.608   7.638   4.213  0.8932 -0.6822 -0.2939
   67MOL   C18247834   7.726   6.756   5.208  0.0977 -0.2882 -0.1835
   67MOL   O18347835   7.640   6.734   5.298 -0.0059 -0.4240  0.1668
   67MOL   C18447836   7.861   6.694   5.232  0.9290 -0.4663 -0.0524
   67MOL   C18547837   0.075   6.698   5.134  0.2538  1.1422 -0.1488
   67MOL   C18647838   0.201   6.634   5.160  0.4474 -0.1261  0.1098
   67MOL   C18747839   0.221   6.562   5.278  0.5324  0.2223  0.3142
   67MOL   C18847840   0.356   6.516   5.314 -0.1937 -0.7393  0.5599
   67MOL   O18947841   0.389   6.454   5.415  0.1527  0.7699  0.5544
   67MOL   N19047842   0.448   6.531   5.213  0.0025  0.5605 -0.0538
   67MOL   C19147843   0.584   6.483   5.200 -0.4023  0.2441 -0.3273
   67MOL   C19247844   0.666   6.586   5.127 -0.0006 -0.7811 -0.3122
   67MOL   C19347845   0.811   6.557   5.107 -0.0692  0.7845  0.7136
   67MOL   C19447846   0.894   6.684   5.084  0.1783 -0.0256 -0.3065
   67MOL   C19547847   1.047   6.662   5.086 -0.6902  0.0550 -0.1092
   67MOL   C19647848   1.096   6.605   5.225  0.4982 -0.2452 -0.3734
   67MOL   N19747849   1.038   6.696   5.334 -0.3637  0.7353  0.6087
   67MOL   C19847850   0.115   6.553   5.372 -0.6513 -0.0274  0.1277
   67MOL   C19947851   7.883   6.622   5.352 -0.6610  0.2056  0.4383
   67MOL   H20047852   0.051   6.755   5.045  0.5657 -0.3562 -1.2269
   67MOL   H20147853   0.273   6.648   5.081  0.5418  1.3260  0.4375
   67MOL   H20247854   0.412   6.586   5.137 -1.4638  1.3931  1.2021
   67MOL   H20347855   0.631   6.489   5.298  3.3145  3.0362 -2.1626
   67MOL   H20447856   0.597   6.381   5.161 -0.3923 -0.0780  0.5198
   67MOL   H20547857   0.667   6.676   5.189  1.5704 -1.6850  1.0136
   67MOL   H20647858   0.622   6.624   5.034  1.5824 -2.7951 -1.9058
   67MOL   H20747859   0.855   6.503   5.190  1.4535  1.4487  0.3513
   67MOL   H20847860   0.819   6.488   5.023  2.8514 -0.0064  1.5658
   67MOL   H20947861   0.863   6.762   5.154  0.4281 -0.2416  0.0478
   67MOL   H21047862   0.860   6.714   4.985 -0.8966 -1.9497 -0.5302
   67MOL   H21147863   1.089   6.760   5.063 -0.8100  0.1373  0.0226
   67MOL   H21247864   1.095   6.601   5.010  1.4104 -0.3011  1.4561
   67MOL   H21347865   1.062   6.503   5.237 -1.5683  0.4348 -0.1862
   67MOL   H21447866   1.205   6.600   5.226  0.4166 -2.4246  0.3221
   67MOL   H21547867   0.953   6.742   5.308 -1.0196 -0.6673  0.2118
   67MOL   H21647868   0.135   6.504   5.466  1.4528  1.7736  0.6598
   67MOL   H21747869   7.803   6.622   5.425 -0.7009  4.1095  0.4760
   67MOL   C21847870   1.065   6.682   5.463 -0.3230  0.0609  0.6735
   67MOL   O21947871   1.154   6.610   5.511 -0.4460 -0.5578 -0.3506
   67MOL   C22047872   0.970   6.765   5.551 -0.0178 -0.3873 -0.1602
   67MOL   C22147873   0.829   6.759   5.531  0.2982 -0.3546  0.3243
   67MOL   C22247874   0.744   6.824   5.622  0.4677 -0.0257  0.1407
   67MOL   C22347875   0.799   6.895   5.732 -0.3617  0.2719 -0.5753
   67MOL   C22447876   0.713   6.948   5.843 -0.2265  0.1705 -0.4655
   67MOL   O22547877   0.630   6.879   5.895 -0.4511  0.3431 -0.4430
   67MOL   N22647878   0.738   7.079   5.877  0.2763  0.1725 -0.0593
   67MOL   C22747879   0.664   7.144   5.979 -0.1180 -0.3598 -0.0186
   67MOL   C22847880   0.581   7.274   5.932  0.3655 -0.1221 -0.2946
   67MOL   C22947881   0.469   7.334   6.029 -0.1296  0.5127 -0.2243
   67MOL   C23047882   0.374   7.438   5.964 -0.4888 -0.0676 -0.2131
   67MOL   C23147883   0.275   7.518   6.061  0.4205 -0.3721  0.1634
   67MOL   C23247884   0.234   7.656   5.998  0.2068  0.1286  0.1390
   67MOL   N23347885   0.159   7.639   5.873  0.4260  0.5827 -0.6911
   67MOL   C23447886   0.942   6.909   5.742  0.5458  0.0802 -0.2593
   67MOL   C23547887   1.027   6.836   5.659 -0.2811  0.0256  0.2274
   67MOL   H23647888   0.797   6.706   5.443  1.3007  0.9349 -0.8318
   67MOL   H23747889   0.638   6.809   5.609  0.0874  2.8542 -0.3473
   67MOL   H23847890   0.794   7.135   5.815  0.6851 -0.3757 -0.1825
   67MOL   H23947891   0.591   7.072   6.017 -0.1582 -1.3959 -2.0010
   67MOL   H24047892   0.735   7.177   6.054 -0.6540  0.8579 -0.0367
   67MOL   H24147893   0.512   7.252   5.851  0.0276  0.1023 -0.0680
   67MOL   H24247894   0.650   7.348   5.891  1.8438 -2.2991 -1.8010
   67MOL   H24347895   0.411   7.248   6.062  1.8041  0.0085  1.9542
   67MOL   H24447896   0.511   7.370   6.123 -0.1820 -0.4062  0.1531
   67MOL   H24547897   0.316   7.396   5.882 -0.0312 -0.5101 -0.3163
   67MOL   H24647898   0.439   7.504   5.906  0.9960 -0.5807  0.8169
   67MOL   H24747899   0.327   7.556   6.149  1.1129 -1.4993  0.2519
   67MOL   H24847900   0.189   7.458   6.090  2.2481 -2.0688  2.2500
   67MOL   H24947901   0.177   7.704   6.078  0.6605  0.1381  0.4535
   67MOL   H25047902   0.319   7.721   5.977 -0.3139  1.4903  2.0764
   67MOL   H25147903   0.196   7.568   5.812  1.4232  0.3987  0.1094
   67MOL   H25247904   0.976   6.973   5.823  0.4060  1.8786 -1.5917
   67MOL   H25347905   1.133   6.846   5.671 -0.2914  0.0609  0.2867
   67MOL   C25447906   0.038   7.692   5.851  0.1695  0.7134  0.7657
   67MOL   O25547907   7.869   7.782   5.919  0.1752 -0.2201  0.5583
   67MOL   C25647908   7.853   7.636   5.732 -0.2049 -0.7394 -0.2035
   67MOL   C25747909   0.015   7.644   5.598  0.0176 -0.5819 -0.4403
   67MOL   C25847910   7.831   7.585   5.494 -0.3081  0.0589 -0.2288
   67MOL   C25947911   7.712   7.517   5.524 -0.0134  0.1881 -0.1606
   67MOL   C26047912   7.640   7.446   5.411  0.0628 -1.1132 -0.1939
   67MOL   O26147913   7.648   7.487   5.294 -0.3919  0.3266 -0.4558
   67MOL   N26247914   7.581   7.330   5.450 -0.4299  0.5654 -0.2598
   67MOL   C26347915   7.480   7.262   5.375  0.5854  0.1883  0.3045
   67MOL   C26447916   7.482   7.114   5.394 -0.1273 -0.0098 -0.0347
   67MOL   C26547917   7.353   7.051   5.334  0.1566  0.4937  0.4262
   67MOL   C26647918   7.335   6.913   5.372 -0.0124  0.3620  1.0076
   67MOL   C26747919   7.238   6.840   5.276  0.6413  0.1723  0.4297
   67MOL   C26847920   7.213   6.697   5.311  0.9247  0.0202 -0.7538
   67MOL   N26947921   7.340   6.625   5.301 -0.1718  0.1852  0.0559
   67MOL   C27047922   7.670   7.508   5.657 -0.8068  0.5069  0.0740
   67MOL   C27147923   7.739   7.561   5.759 -0.1173  0.0361 -0.2468
   67MOL   H27247924   0.107   7.695   5.573 -0.9862  0.9093 -1.1447
   67MOL   H27347925   7.868   7.587   5.392 -0.3721  0.4807 -0.2423
   67MOL   H27447926   7.591   7.298   5.545 -2.9951 -0.4316 -0.2819
   67MOL   H27547927   7.376   7.292   5.386  0.4183  0.2399 -1.2342
   67MOL   H27647928   7.491   7.290   5.270 -0.5982  0.7369  0.3175
   67MOL   H27747929   7.487   7.088   5.500 -0.4896 -0.7924 -0.2073
   67MOL   H27847930   7.557   7.055   5.342 -0.7435 -0.1516 -0.7689
   67MOL   H27947931   7.273   7.112   5.377  0.4939  0.9801  0.3798
   67MOL   H28047932   7.343   7.056   5.226 -0.9156 -1.2907  0.4247
   67MOL   H28147933   7.304   6.890   5.474  0.6800 -2.4784  0.6187
   67MOL   H28247934   7.431   6.864   5.357 -0.6174 -0.7162  0.5454
   67MOL   H28347935   7.271   6.844   5.172 -1.6204 -0.2326 -0.3417
   67MOL   H28447936   7.142   6.892   5.272 -0.6628 -1.9055  3.2931
   67MOL   H28547937   7.172   6.682   5.410  2.4661 -1.4427 -0.3051
   67MOL   H28647938   7.138   6.647   5.250  0.0323 -0.6062  0.8318
   67MOL   H28747939   7.391   6.604   5.385  0.9499 -0.3113 -0.7451
   67MOL   H28847940   7.583   7.447   5.676  0.5673 -1.1290  1.1772
   67MOL   H28947941   7.704   7.551   5.861  0.3838 -0.8357 -0.1575
   67MOL   C29047942   7.373   6.547   5.199 -0.3318 -0.3584 -0.7814
   67MOL   O29147943   7.312   6.541   5.092  0.0746  0.0896  0.5904
   67MOL   C29247944   7.486   6.451   5.226  0.1619 -0.7638 -0.3094
   67MOL   C29347945   7.553   6.373   5.128  0.2072 -0.1210 -0.0694
   67MOL   C29447946   7.656   6.286   5.158 -0.2747 -0.8048 -1.0836
   67MOL   C29547947   7.705   6.275   5.289 -0.6345 -0.6201  0.2266
   67MOL   C29647948   7.813   6.175   5.324  0.4925  0.3748  0.1158
   67MOL   O29747949   7.818   6.122   5.437  0.2875  0.4098  0.5087
   67MOL   N29847950   0.019   6.153   5.228  0.7910 -0.5022  0.1818
   67MOL   C29947951   0.147   6.080   5.241  0.0874  0.8297  0.2583
   67MOL   C30047952   0.262   6.178   5.260 -0.0139  0.4014  0.5374
   67MOL   C30147953   0.399   6.113   5.242  0.2797 -0.4380 -0.7491
   67MOL   C30247954   0.441   6.009   5.347 -0.1977 -0.0184 -0.7629
   67MOL   C30347955   0.554   5.915   5.297  0.3552  0.0439 -0.5234
   67MOL   C30447956   0.674   5.995   5.244 -0.0378 -0.2533 -0.4542
   67MOL   N30547957   0.712   6.081   5.347 -0.5462 -0.2517 -1.0327
   67MOL   C30647958   7.638   6.348   5.387  0.1078 -0.5894  0.1776
   67MOL   C30747959   7.528   6.428   5.361  0.0403 -0.6064 -0.2065
   67MOL   H30847960   7.526   6.398   5.026 -0.8142  0.2675  0.2885
   67MOL   H30947961   7.713   6.238   5.080  0.2475  0.5058 -1.5101
   67MOL   H31047962   7.870   6.189   5.140 -3.8273 -0.2274  2.0202
   67MOL   H31147963   0.142   6.000   5.315  0.2236  1.5447  1.0528
   67MOL   H31247964   0.164   6.041   5.141 -1.5305  0.9384 -0.0567
   67MOL   H31347965   0.261   6.225   5.359 -1.8639  2.4644 -0.4034
   67MOL   H31447966   0.253   6.259   5.187  0.4417 -0.3748 -0.3806
   67MOL   H31547967   0.407   6.078   5.140  3.1661  0.4702 -0.8786
   67MOL   H31647968   0.466   6.199   5.242 -0.1779 -0.0771 -0.6099
   67MOL   H31747969   0.352   5.949   5.366 -0.9860 -0.1098 -4.3256
   67MOL   H31847970   0.471   6.058   5.439  2.0806 -1.2051 -0.8358
   67MOL   H31947971   0.505   5.857   5.219 -0.7318  0.4844 -0.1681
   67MOL   H32047972   0.587   5.845   5.373 -0.5813 -1.0620 -1.1254
   67MOL   H32147973   0.751   5.919   5.232  0.5493  0.1914  0.4194
   67MOL   H32247974   0.648   6.046   5.151  2.1268  0.0335 -0.9203
   67MOL   H32347975   0.663   6.086   5.435  2.0169  1.7459  0.3559
   67MOL   H32447976   7.685   6.333   5.484  0.4122  1.1052  0.2981
   67MOL   H32547977   7.484   6.486   5.441  0.2806 -0.6180 -0.0628
   67MOL   C32647978   0.791   6.192   5.327  0.2385 -0.3962  0.2577
   67MOL   O32747979   0.847   6.215   5.221 -0.1618  0.0720  0.3176
   67MOL   C32847980   0.805   6.274   5.447  0.1283 -0.3378  0.2445
   67MOL   C32947981   0.693   6.299   5.533 -0.3377  0.5438  0.8463
   67MOL   C33047982   0.710   6.361   5.655  0.5470 -0.6763  0.5683
   67MOL   C33147983   0.836   6.409   5.691 -0.3916  0.4343 -0.4088
   67MOL   C33247984   0.859   6.468   5.826  0.2124 -0.0786  0.1573
   67MOL   O33347985   0.965   6.465   5.883  0.3674  0.1051 -0.0386
   67MOL   N33447986   0.748   6.529   5.878  0.9527  0.2198  1.0640
   67MOL   C33547987   0.728   6.575   6.014  0.0956 -0.2393  0.0638
   67MOL   C33647988   0.821   6.680   6.057 -0.1028  0.2321 -0.6247
   67MOL   C33747989   0.780   6.748   6.187 -0.3972 -0.1117  0.2758
   67MOL   C33847990   0.859   6.870   6.229 -0.2578  0.1938  0.0567
   67MOL   C33947991   0.985   6.817   6.295  0.0526 -0.5367 -0.5542
   67MOL   C34047992   1.055   6.919   6.386  0.3404  0.2924 -0.0860
   67MOL   N34147993   1.175   6.863   6.439  0.2155  0.6641 -0.3640
   67MOL   C34247994   0.947   6.377   5.615 -0.1682  0.0679  1.5490
   67MOL   C34347995   0.930   6.315   5.491  0.5321 -0.5527 -0.1293
   67MOL   H34447996   0.591   6.281   5.505  0.1531  0.0420 -0.6487
   67MOL   H34547997   0.623   6.374   5.718  0.9052  2.4971  0.4863
   67MOL   H34647998   0.662   6.530   5.825  1.9604  1.5277 -0.5842
   67MOL   H34747999   0.624   6.595   6.038  0.1165 -0.7124  0.5458
   67MOL   H34848000   0.742   6.496   6.087 -2.0485 -0.8900 -0.2062
   67MOL   H34948001   0.831   6.754   5.977 -1.1047  0.2736 -0.7090
   67MOL   H35048002   0.921   6.643   6.081  0.1339  1.1614 -0.1487
   67MOL   H35148003   0.679   6.786   6.171 -0.0186  0.5701 -0.5622
   67MOL   H35248004   0.771   6.685   6.275 -0.8597 -0.4033  0.0197
   67MOL   H35348005   0.802   6.940   6.291 -0.5968  0.9130 -1.0557
   67MOL   H35448006   0.877   6.930   6.140 -0.8582 -0.5180 -0.5476
   67MOL   H35548007   1.048   6.786   6.212  0.7684 -1.7150  0.4065
   67MOL   H35648008   0.967   6.728   6.355 -0.1280  0.6898  1.2583
   67MOL   H35748009   1.080   7.000   6.318 -0.6973  0.1766 -0.6170
   67MOL   H35848010   0.989   6.965   6.460 -0.8137 -0.0555 -0.8933
   67MOL   H35948011   1.188   6.763   6.442 -2.6904  0.2527  2.8327
   67MOL   H36048012   1.044   6.417   5.639 -1.1630  1.9881  2.4967
   67MOL   H36148013   1.015   6.302   5.425 -0.3631 -4.0545 -0.7145
   67MOL   C36248014   1.267   6.937   6.491 -0.5389  0.2900 -0.3497
   67MOL   O36348015   1.276   7.058   6.492 -0.1766  1.0623  0.0147
   67MOL   C36448016   1.374   6.852   6.557 -0.5723 -0.8065 -0.5676
   67MOL   C36548017   1.508   6.898   6.556 -0.1454 -0.5294 -0.6692
   67MOL   C36648018   1.600   6.837   6.643 -0.6169 -0.3895  0.5676
   67MOL   C36748019   1.566   6.720   6.725 -0.0095 -0.4852  1.2337
   67MOL   C36848020   1.672   6.653   6.819  0.3845  0.6032  1.0860
   67MOL   O36948021   1.781   6.710   6.838 -0.1183  0.2512 -0.2736
   67MOL   N37048022   1.653   6.525   6.852 -0.1703  0.0826  0.0365
   67MOL   C37148023   1.757   6.448   6.916  0.5680  0.3824  0.5903
   67MOL   C37248024   1.748   6.467   7.070 -0.2285 -0.2425  0.1958
   67MOL   C37348025   1.608   6.428   7.119  0.1214 -0.4164 -0.3060
   67MOL   C37448026   1.598   6.436   7.275  0.2088  0.3102  0.8666
   67MOL   C37548027   1.461   6.404   7.334 -0.3111 -0.8979 -0.1863
   67MOL   C37648028   1.461   6.398   7.493 -0.3309  0.5779  0.2288
   67MOL   N37748029   1.341   6.334   7.541 -0.1456  0.2648 -0.2903
   67MOL   C37848030   1.431   6.678   6.729 -0.4041 -0.3806  0.3473
   67MOL   C37948031   1.338   6.744   6.646  0.4416  0.4873  0.4228
   67MOL   H38048032   1.535   6.980   6.491 -0.7202 -0.6866 -1.1063
   67MOL   H38148033   1.703   6.871   6.643 -1.1805  1.3291  0.0989
   67MOL   H38248034   1.566   6.481   6.828 -0.1782  0.5090 -0.7236
   67MOL   H38348035   1.741   6.344   6.888 -0.6995  0.2018  1.9199
   67MOL   H38448036   1.854   6.485   6.884 -0.3560  1.5558 -0.9387
   67MOL   H38548037   1.774   6.567   7.105  1.1538 -0.2454 -0.7779
   67MOL   H38648038   1.817   6.402   7.124 -0.7960 -0.4916  0.6267
   67MOL   H38748039   1.529   6.496   7.087  3.7042  3.8252 -0.5224
   67MOL   H38848040   1.581   6.327   7.089 -0.1096  0.0972 -1.8774
   67MOL   H38948041   1.625   6.538   7.304 -0.2992  0.3618  1.1675
   67MOL   H39048042   1.678   6.373   7.314  2.6278  2.3158 -0.7292
   67MOL   H39148043   1.438   6.304   7.297 -0.5258 -0.7106 -0.5622
   67MOL   H39248044   1.382   6.470   7.297  2.1241  1.6503 -0.9757
   67MOL   H39348045   1.543   6.336   7.529  0.6137  2.0531  0.6237
   67MOL   H39448046   1.474   6.498   7.533  1.7987  1.1858 -1.9148
   67MOL   H39548047   1.285   6.289   7.469 -0.1740  0.1619 -0.2044
   67MOL   H39648048   1.389   6.602   6.792 -2.8312 -0.7446 -1.6314
   67MOL   H39748049   1.234   6.723   6.665  0.3834  1.9054  1.8164
   67MOL   C39848050   1.286   6.354   7.657  0.2664  0.3713 -0.6970
   67MOL   O39948051   1.330   6.428   7.745 -0.1540 -0.1652  0.5763
   67MOL   C40048052   1.149   6.294   7.673 -0.3324 -0.2799 -0.1547
   67MOL   C40148053   1.107   6.172   7.609 -0.0146 -0.2470 -0.1973
   67MOL   C40248054   0.977   6.122   7.624  0.4224 -0.1208  1.2383
   67MOL   C40348055   0.889   6.188   7.711 -0.2806  0.4673 -0.0935
   67MOL   C40448056   0.757   6.133   7.746  0.0855 -0.7775 -0.1840
   67MOL   O40548057   0.670   6.207   7.793  0.0991 -0.3330  0.0740
   67MOL   N40648058   0.740   6.009   7.723 -0.0176  0.3173 -0.1613
   67MOL   C40748059   0.620   5.934   7.756 -0.0270  0.2798  0.9956
   67MOL   C40848060   0.546   5.894   7.624 -0.2301 -0.3252  0.0984
   67MOL   C40948061   0.412   5.820   7.654  0.2380  0.3136 -0.0620
   67MOL   C41048062   0.318   5.793   7.531  0.6430 -0.6097  0.7188
   67MOL   C41148063   0.190   5.709   7.556  0.2936  0.3224  0.2493
   67MOL   C41248064   0.123   5.657   7.424  0.1379 -0.6861 -0.4135
   67MOL   N41348065   0.060   5.760   7.344  0.1796  0.0625 -0.7285
   67MOL   C41448066   0.931   6.318   7.755  0.7788 -0.3442 -0.2120
   67MOL   C41548067   1.052   6.374   7.732  0.7423 -0.9474  0.3351
   67MOL   H41648068   1.171   6.129   7.534 -0.2047 -0.7624 -0.0666
   67MOL   H41748069   0.945   6.029   7.580 -2.1979  0.9708  0.7292
   67MOL   H41848070   0.823   5.954   7.707 -1.1612 -2.1379  1.9689
   67MOL   H41948071   0.653   5.847   7.812  0.5530 -1.4161 -1.8923
   67MOL   H42048072   0.552   5.989   7.821  0.4875  2.4321 -0.2334
   67MOL   H42148073   0.601   5.831   7.554 -0.0812  1.3856 -1.3699
   67MOL   H42248074   0.533   5.989   7.572 -4.8785 -1.1208 -0.3625
   67MOL   H42348075   0.446   5.727   7.699  1.0222  0.4986 -0.2553
   67MOL   H42448076   0.355   5.877   7.727 -1.4540  1.1164 -1.9448
   67MOL   H42548077   0.370   5.721   7.468  0.0176 -1.5184  1.2422
   67MOL   H42648078   0.297   5.875   7.462  0.6399 -0.5631  0.7749
   67MOL   H42748079   0.119   5.767   7.615  0.2096  1.9150 -1.3920
   67MOL   H42848080   0.198   5.625   7.625 -2.1400  1.5082  2.0708
   67MOL   H42948081   0.198   5.609   7.362 -1.7295 -2.7603 -1.1272
   67MOL   H43048082   0.049   5.586   7.460  1.2670 -0.9317  1.4491
   67MOL   H43148083   0.033   5.846   7.389  0.8025  0.1744 -0.5604
   67MOL   H43248084   0.859   6.368   7.819  0.5756  0.6102 -1.1580
   67MOL   H43348085   1.085   6.470   7.769  3.3214 -1.8280  0.4053
   67MOL   C43448086   0.039   5.754   7.215  0.1687 -0.0815  0.0013
   67MOL   O43548087   0.078   5.661   7.146 -0.0000  0.0090 -0.7855
   67MOL   C43648088   7.864   5.872   7.153 -0.0171 -0.0651 -0.2221
   67MOL   C43748089   7.752   5.925   7.219  0.5817  0.1655 -0.4461
   67MOL   C43848090   7.676   6.027   7.157  0.3937 -0.7423 -0.9041
   67MOL   C43948091   7.720   6.080   7.034 -0.3943 -0.1167 -0.0857
   67MOL   C44048092   7.635   6.191   6.979  0.6313  1.0411  0.0249
   67MOL   O44148093   7.572   6.273   7.046 -0.1796  0.1355 -0.5285
   67MOL   N44248094   7.623   6.182   6.845 -0.0149  0.1945  0.5830
   67MOL   C44348095   7.526   6.264   6.773 -0.6012 -0.3906 -0.1886
   67MOL   C44448096   7.554   6.254   6.628 -0.2707  0.0439 -0.9295
   67MOL   C44548097   7.675   6.337   6.584 -0.5433  0.1331 -0.0516
   67MOL   C44648098   7.699   6.345   6.437  0.1301  0.0941  0.4312
   67MOL   C44748099   7.843   6.371   6.390 -0.7423 -0.2398 -0.3102
   67MOL   C44848100   0.060   6.258   6.419 -0.4285 -0.6980 -0.6154
   67MOL   N44948101   0.023   6.123   6.378 -1.0728 -0.1724 -0.0193
   67MOL   C45048102   7.845   6.045   6.979 -0.5350  0.0035 -0.8673
   67MOL   C45148103   0.029   5.935   7.040  0.8421  0.0428  0.2790
   67MOL   H45248104   7.707   5.863   7.296  1.1677 -0.9979 -1.0281
   67MOL   H45348105   7.587   6.064   7.204 -0.7498 -3.4482 -0.8339
   67MOL   H45448106   7.682   6.119   6.793 -0.2241  1.0538 -0.7201
   67MOL   H45548107   7.426   6.231   6.802  0.0024 -1.2462  0.9816
   67MOL   H45648108   7.521   6.369   6.799 -0.8954 -0.4575  0.0280
   67MOL   H45748109   7.465   6.299   6.583  1.9559  0.4528 -5.1870
   67MOL   H45848110   7.549   6.155   6.585 -1.2355  0.2567 -1.3091
   67MOL   H45948111   7.673   6.439   6.623 -1.1099 -0.4728  1.5502
   67MOL   H46048112   7.762   6.294   6.635 -0.7262  1.6843  1.6348
   67MOL   H46148113   7.640   6.433   6.413  0.6817 -0.0850 -1.7382
   67MOL   H46248114   7.657   6.259   6.386  0.0084  0.4462 -0.0654
   67MOL   H46348115   7.880   6.466   6.427 -1.1915 -0.5447  0.9535
   67MOL   H46448116   7.862   6.389   6.284  1.4222  3.6211  0.6289
   67MOL   H46548117   0.153   6.286   6.370 -1.4061 -0.2918 -2.2571
   67MOL   H46648118   0.094   6.240   6.521  0.9547  1.5828 -0.6316
   67MOL   H46748119   0.056   6.102   6.284 -0.0828 -2.5284  0.8259
   67MOL   H46848120   7.882   6.089   6.888  1.2757  0.6836  0.1785
   67MOL   H46948121   0.119   5.893   6.998  0.4844 -0.7377  0.2773
   67MOL   C47048122   7.848   6.038   6.457 -0.5913  0.5385 -0.2663
   67MOL   O47148123   7.834   6.057   6.577 -0.5055 -0.5093 -0.1013
   67MOL   C47248124   7.796   5.914   6.389  0.5592 -0.6365 -0.2924
   67MOL   C47348125   7.886   5.827   6.326  0.0672 -0.0455 -0.2973
   67MOL   C47448126   7.838   5.722   6.246  0.2459 -0.3742 -0.3522
   67MOL   C47548127   7.697   5.697   6.235 -0.6284  0.7462  0.4722
   67MOL   C47648128   7.647   5.583   6.149 -0.5828  0.2661  0.2502
   67MOL   O47748129   7.719   5.492   6.112 -0.0792  0.0151  0.1796
   67MOL   N47848130   7.525   5.591   6.105 -0.2573  0.4935 -0.3000
   67MOL   C47948131   7.461   5.486   6.033 -0.3629  0.0984  0.4742
   67MOL   C48048132   7.344   5.534   5.940  0.6647 -0.5111 -0.4210
   67MOL   C48148133   7.395   5.614   5.823  0.3550  0.1269 -0.2421
   67MOL   C48248134   7.284   5.652   5.724  0.1644 -0.4224  0.0980
   67MOL   C48348135   7.183   5.764   5.766  0.0570  0.3574 -1.3154
   67MOL   C48448136   7.083   5.779   5.654 -0.5944 -0.0060 -0.0417
   67MOL   N48548137   7.007   5.897   5.667  0.7862  0.2677 -0.0176
   67MOL   C48648138   7.608   5.780   6.303  0.1754  0.5340 -0.1439
   67MOL   C48748139   7.656   5.890   6.376  0.1393  0.3226 -0.8612
   67MOL   H48848140   0.107   5.844   6.324  0.1004 -0.2878 -0.8205
   67MOL   H48948141   0.024   5.662   6.192 -0.4918 -0.2024 -1.5473
   67MOL   H49048142   7.475   5.674   6.133 -0.4226 -0.6943  3.1009
   67MOL   H49148143   7.530   5.428   5.972 -1.6903  0.2101 -1.1595
   67MOL   H49248144   7.428   5.400   6.091 -0.9557 -1.4703 -2.1390
   67MOL   H49348145   7.274   5.600   5.991  1.2848  2.3748 -3.1304
   67MOL   H49448146   7.292   5.441   5.916  1.0699 -1.2323  1.4504
   67MOL   H49548147   7.450   5.705   5.845  0.8719  0.2791 -2.0677
   67MOL   H49648148   7.454   5.537   5.773  0.8184 -1.4129  2.6118
   67MOL   H49748149   7.236   5.559   5.695 -0.5156 -0.4678  1.3459
   67MOL   H49848150   7.338   5.677   5.632 -0.6956  1.6395  0.1300
   67MOL   H49948151   7.234   5.856   5.792 -0.3704 -0.1455  1.4731
   67MOL   H50048152   7.124   5.744   5.855  0.9382  0.2482 -0.7477
   67MOL   H50148153   7.142   5.786   5.563  1.0353  2.8632  1.1336
   67MOL   H50248154   7.023   5.689   5.646 -1.7419  0.5640  1.8669
   67MOL   H50348155   7.006   5.943   5.757  1.7967 -2.1051  1.2268
   67MOL   H50448156   7.500   5.776   6.299 -0.1438  4.1591  2.4052
   67MOL   H50548157   7.589   5.967   6.412  0.5099  0.4153 -0.3740
   67MOL   C50648158   6.943   5.970   5.571  0.3037 -0.2263 -0.0542
   67MOL   O50748159   6.950   5.930   5.452  0.2852 -0.2329 -0.3572
   67MOL   C50848160   6.876   6.099   5.607 -0.3507  0.6579  0.3673
   67MOL   C50948161   6.928   6.181   5.712  0.6477 -0.2278 -0.1228
   67MOL   C51048162   6.865   6.305   5.738  0.3841 -0.8126  0.3784
   67MOL   C51148163   6.748   6.346   5.672 -0.2163 -0.5868  0.3654
   67MOL   C51248164   6.688   6.476   5.696 -0.2397  0.6019 -0.0338
   67MOL   O51348165   6.680   6.523   5.809 -0.1660 -0.4502 -0.0488
   67MOL   N51448166   6.651   6.538   5.586 -0.1180 -0.1991 -0.3287
   67MOL   C51548167   6.573   6.660   5.589 -0.0955 -0.3676 -0.4499
   67MOL   C51648168   6.472   6.678   5.475  0.3470  0.5610  0.0814
   67MOL   C51748169   6.420   6.828   5.465  0.0717 -0.4440 -0.4115
   67MOL   C51848170   6.524   6.925   5.408 -0.2330 -0.4843  0.1692
   67MOL   C51948171   6.475   7.066   5.372 -0.0495 -0.1256 -0.1799
   67MOL   C52048172   6.587   7.154   5.323 -0.0228  0.2709  0.2915
   67MOL   N52148173   6.535   7.280   5.285  0.0743 -0.0666  0.2134
   67MOL   C52248174   6.702   6.268   5.563  0.1605 -0.0988 -0.2681
   67MOL   C52348175   6.765   6.142   5.538 -0.2826  0.1220  0.3808
   67MOL   H52448176   7.023   6.159   5.760  0.1289 -1.0947  0.5096
   67MOL   H52548177   6.904   6.370   5.815 -2.6045  1.6973 -0.1324
   67MOL   H52648178   6.668   6.500   5.494  0.8084 -0.0300 -0.2349
   67MOL   H52748179   6.539   6.686   5.690  1.4112 -0.9368  0.2263
   67MOL   H52848180   6.643   6.742   5.579 -1.0120  0.5739  0.6353
   67MOL   H52948181   6.387   6.610   5.481  1.6960 -1.1496  0.3195
   67MOL   H53048182   6.515   6.641   5.382 -1.8405  0.1338 -0.7898
   67MOL   H53148183   6.337   6.833   5.394  0.5559  1.8169 -0.8865
   67MOL   H53248184   6.384   6.864   5.561  1.3351  2.2768 -0.8887
   67MOL   H53348185   6.567   6.886   5.315 -0.9625  0.8055 -0.7202
   67MOL   H53448186   6.612   6.929   5.472  0.6242  2.4729 -1.1244
   67MOL   H53548187   6.431   7.125   5.453 -2.3043 -2.1303  0.0978
   67MOL   H53648188   6.393   7.061   5.301  1.5771 -0.8607 -2.0322
   67MOL   H53748189   6.667   7.175   5.393  2.3434 -1.9547 -1.6811
   67MOL   H53848190   6.638   7.110   5.237 -2.7068 -1.9192 -0.2764
   67MOL   H53948191   6.436   7.283   5.263 -0.0206 -2.8919 -0.0353
   67MOL   H54048192   6.609   6.292   5.512  0.6380  0.3445 -0.9327
   67MOL   H54148193   6.730   6.089   5.451 -2.2407  0.0263  1.1806
   67MOL   C54248194   6.604   7.385   5.245 -0.1078  0.2726 -0.2177
   67MOL   O54348195   6.725   7.379   5.258  0.7727 -0.5606 -0.5989
   67MOL   C54448196   6.530   7.505   5.192  0.4028 -0.2243 -0.2192
   67MOL   C54548197   6.600   7.588   5.102  0.3659 -0.1052 -0.5996
   67MOL   C54648198   6.528   7.701   5.051  0.6268 -0.0489  0.4640
   67MOL   C54748199   6.393   7.729   5.095 -0.6786  0.2762  0.1036
   67MOL   C54848200   6.314   7.831   5.033  0.5144 -0.3228 -0.0975
   67MOL   O54948201   6.221   0.012   5.089  0.6529  0.1922  0.0487
   67MOL   N55048202   6.347   7.850   4.904  0.5510  0.2039 -0.1715
   67MOL   C55148203   6.289   0.052   4.806 -0.2059  0.5244 -0.2964
   67MOL   C55248204   6.379   0.058   4.678  0.1891 -0.0808  0.9795
   67MOL   C55348205   6.346   0.182   4.587  0.0171 -0.0039  0.6704
   67MOL   C55448206   6.442   0.173   4.468 -0.4059 -0.0368  0.2147
   67MOL   C55548207   6.462   0.318   4.413  0.1738  0.2264  0.2898
   67MOL   C55648208   6.535   0.313   4.283 -0.4639  0.6685  0.0414
   67MOL   N55748209   6.534   0.439   4.217  0.1492  0.0173 -0.4576
   67MOL   C55848210   6.326   7.639   5.185 -0.2263 -1.1003 -0.1913
   67MOL   C55948211   6.400   7.534   5.233 -0.5573  0.6016  0.8020
   67MOL   H56048212   6.703   7.582   5.072  0.5312  0.2837 -0.1236
   67MOL   H56148213   6.579   7.766   4.982  0.7827 -0.3179  0.3273
   67MOL   H56248214   6.417   7.782   4.877  1.7144  0.9700  0.8737
   67MOL   H56348215   6.183   0.039   4.784 -0.2792  0.1262  0.2699
   67MOL   H56448216   6.289   0.145   4.864  0.0940 -0.2253  0.9296
   67MOL   H56548217   6.374   7.851   4.621 -1.4593  1.1715 -1.0426
   67MOL   H56648218   6.484   0.056   4.704 -0.2346  0.6946  2.8025
   67MOL   H56748219   6.241   0.173   4.561 -0.8780 -1.0862  4.3540
   67MOL   H56848220   6.363   0.276   4.639  2.1601  0.3192 -0.5580
   67MOL   H56948221   6.401   0.097   4.402  1.1472 -0.2106 -0.5765
   67MOL   H57048222   6.541   0.132   4.486 -0.7100 -1.7069 -1.7184
   67MOL   H57148223   6.514   0.393   4.473  0.6978  1.5073 -1.7153
   67MOL   H57248224   6.361   0.348   4.385 -0.6763 -2.9135 -0.2123
   67MOL   H57348225   6.635   0.269   4.284  0.2057  2.1430  0.8281
   67MOL   H57448226   6.485   0.245   4.215  2.1993  0.9050 -2.2409
   67MOL   H57548227   6.610   0.501   4.241 -1.1004  1.7471 -0.8522
   67MOL   H57648228   6.221   7.646   5.210  0.5822  0.0633  3.0397
   67MOL   H57748229   6.341   7.463   5.289 -0.3191  0.9594  1.5130
   67MOL   C57848230   6.451   0.486   4.126 -0.1897 -0.7683  0.5077
   67MOL   O57948231   6.359   0.423   4.079  0.5790  0.5120 -0.4639
   67MOL   C58048232   6.492   0.628   4.078  0.3178 -0.2503 -0.4544
   67MOL   C58148233   6.466   0.666   3.944 -1.0139  0.9429 -0.3703
   67MOL   C58248234   6.514   0.794   3.896 -0.5887  0.3264  1.1806
   67MOL   C58348235   6.568   0.886   3.988 -0.1473  1.6826  0.1991
   67MOL   C58448236   6.603   1.025   3.949 -0.1018 -0.2790 -0.0211
   67MOL   O58548237   6.640   1.105   4.042  0.7003 -0.2513  0.4090
   67MOL   N58648238   6.611   1.063   3.819  0.1734  0.4092 -0.6497
   67MOL   C58748239   6.627   1.201   3.772  0.2149  0.0568 -0.3745
   67MOL   C58848240   6.617   1.196   3.619 -0.4966  0.4950 -0.6575
   67MOL   C58948241   6.676   1.322   3.561 -0.7497  0.2915 -0.5607
   67MOL   C59048242   6.833   1.329   3.546 -0.4037 -0.1213 -0.1799
   67MOL   C59148243   6.901   1.215   3.451  0.9111 -0.2110 -0.4660
   67MOL   C59248244   6.835   1.210   3.307 -0.1496 -0.2051 -0.5396
   67MOL   N59348245   6.810   1.345   3.260  1.0559  0.3070  0.3992
   67MOL   C59448246   6.580   0.850   4.121 -0.3379 -0.4390 -0.5757
   67MOL   C59548247   6.541   0.723   4.167  0.0465 -0.2156  0.0905
   67MOL   H59648248   6.430   0.590   3.876  0.1456  0.6839 -0.7077
   67MOL   H59748249   6.502   0.838   3.798 -0.7966 -2.3926 -0.0590
   67MOL   H59848250   6.569   0.993   3.759  0.3474 -1.7805  1.7007
   67MOL   H59948251   6.543   1.256   3.813 -0.2279 -1.6429  1.0507
   67MOL   H60048252   6.721   1.239   3.811  1.1691 -2.4124 -0.1819
   67MOL   H60148253   6.515   1.185   3.582 -1.0255 -1.4160  1.2404
   67MOL   H60248254   6.685   1.117   3.587  1.0934  1.0317  1.2593
   67MOL   H60348255   6.632   1.354   3.467 -1.3447  0.6341 -0.1747
   67MOL   H60448256   6.639   1.400   3.627  3.4241  0.5130  1.6736
   67MOL   H60548257   6.880   1.321   3.644 -0.9064 -0.6854  0.0186
   67MOL   H60648258   6.866   1.425   3.507 -1.1628  0.0182 -0.5006
   67MOL   H60748259   6.907   1.119   3.502 -1.8992  0.0509  0.4566
   67MOL   H60848260   7.008   1.236   3.448  0.4324  2.3491 -0.8124
   67MOL   H60948261   6.895   1.150   3.239 -0.0127 -1.6247  0.7974
   67MOL   H61048262   6.741   1.157   3.322 -0.2128  0.6883  2.6916
   67MOL   H61148263   6.854   1.414   3.320  1.2268  1.1716 -0.6949
   67MOL   H61248264   6.612   0.924   4.193 -0.7926 -1.1108  0.3346
   67MOL   H61348265   6.570   0.691   4.266 -0.8195  0.3013  0.5275
   67MOL   C61448266   6.761   1.379   3.144 -0.3172  0.2392 -0.8042
   67MOL   O61548267   6.715   1.290   3.068  0.3332  0.0217 -0.6087
   67MOL   C61648268   6.793   1.519   3.094 -0.0041  0.1862 -0.3747
   67MOL   C61748269   6.857   1.554   2.971 -0.4370  0.2328 -1.1359
   67MOL   C61848270   6.904   1.688   2.944 -0.5831  0.1189  0.4499
   67MOL   C61948271   6.886   1.789   3.039 -0.0510 -0.1057 -0.0113
   67MOL   C62048272   6.940   1.921   3.006  0.6045  0.1932  0.3866
   67MOL   O62148273   6.976   1.947   2.892 -0.3741 -0.0775 -0.0911
   67MOL   N62248274   6.948   2.000   3.113  0.2659  0.8012 -0.0703
   67MOL   C62348275   6.991   2.137   3.110  0.0472 -0.1037  0.0966
   67MOL   C62448276   6.914   2.209   3.221 -0.6117 -0.2411  0.3431
   67MOL   C62548277   6.762   2.182   3.223  0.8368 -0.1389  0.6269
   67MOL   C62648278   6.695   2.217   3.086 -0.0109  0.2068 -0.2027
   67MOL   C62748279   6.541   2.202   3.068  0.3346 -0.2793  0.3114
   67MOL   C62848280   6.485   2.061   3.096  0.2430 -0.1087  0.0998
   67MOL   N62948281   6.521   1.957   3.000 -0.3210 -0.1288 -0.1380
   67MOL   C63048282   6.809   1.762   3.158  0.4178 -0.9846  0.2642
   67MOL   C63148283   6.771   1.625   3.182  0.1468 -0.0496 -0.1022
   67MOL   H63248284   6.890   1.492   2.890 -0.0857 -0.7952 -0.2219
   67MOL   H63348285   6.962   1.695   2.854 -1.1567 -3.6624 -0.3060
   67MOL   H63448286   6.900   1.983   3.200  0.0869 -0.1572 -0.3521
   67MOL   H63548287   7.099   2.131   3.125  0.0055  1.4546  1.1062
   67MOL   H63648288   6.971   2.179   3.012 -0.4952  0.7353  0.5664
   67MOL   H63748289   6.935   2.316   3.218 -1.3598 -0.0365  1.7510
   67MOL   H63848290   6.955   2.179   3.317  0.1889  0.9117  0.3777
   67MOL   H63948291   6.746   2.077   3.245  0.0843 -0.7583 -2.6434
   67MOL   H64048292   6.707   2.243   3.295 -4.2803 -3.5937 -0.0909
   67MOL   H64148293   6.743   2.163   3.004  0.1737 -0.9489  0.6599
   67MOL   H64248294   6.726   2.319   3.061 -1.8166  0.6704 -0.6082
   67MOL   H64348295   6.522   2.232   2.965  0.2628 -1.5883 -0.0681
   67MOL   H64448296   6.495   2.277   3.132  3.3093  0.8573  1.2219
   67MOL   H64548297   6.507   2.043   3.201 -3.0468 -0.9045  0.7091
   67MOL   H64648298   6.378   2.078   3.110  0.2275 -0.6392  0.6705
   67MOL   H64748299   6.611   1.968   2.954  0.9040  2.2679  2.7511
   67MOL   H64848300   6.786   1.839   3.230 -0.8634 -0.8058 -0.3270
   67MOL   H64948301   6.716   1.602   3.272  0.5276 -2.6420 -0.4944
   67MOL   C65048302   6.453   1.850   2.967 -0.0922  0.1696  0.0841
   67MOL   O65148303   6.340   1.815   3.016  0.6640 -0.2583  0.7504
   67MOL   C65248304   6.517   1.774   2.860 -0.3450  0.0572 -0.2447
   67MOL   C65348305   6.586   1.843   2.758 -0.1766 -0.6249 -0.5294
   67MOL   C65448306   6.640   1.768   2.649 -0.3869  0.4624  0.4558
   67MOL   C65548307   6.611   1.630   2.643  0.0738 -0.1853  0.6801
   67MOL   C65648308   6.652   1.554   2.523  0.1613  0.6577  0.1482
   67MOL   O65748309   6.742   1.599   2.455 -0.1115  0.3128  0.0957
   67MOL   N65848310   6.588   1.443   2.493  0.2873 -0.3681  0.5345
   67MOL   C65948311   6.622   1.352   2.384 -0.2688 -0.2187 -0.2131
   67MOL   C66048312   6.743   1.268   2.424 -0.4395 -0.0586  0.2608
   67MOL   C66148313   6.775   1.151   2.331  0.1901  0.0409 -0.3053
   67MOL   C66248314   6.902   1.084   2.369  0.3877 -0.0076 -0.1904
   67MOL   C66348315   6.923   0.957   2.284  0.4527 -0.4167 -0.4562
   67MOL   C66448316   7.050   0.880   2.324  0.2869  0.2352 -0.1162
   67MOL   N66548317   7.014   0.807   2.449 -0.6179 -0.0192  0.4288
   67MOL   C66648318   6.534   1.566   2.744 -0.3607  0.7176 -0.5802
   67MOL   C66748319   6.485   1.640   2.850  0.3365  0.4943 -0.7486
   67MOL   H66848320   6.584   1.951   2.750 -0.3245 -0.6411 -0.7081
   67MOL   H66948321   6.684   1.814   2.561  0.2319 -0.2130  0.4008
   67MOL   H67048322   6.521   1.402   2.557 -0.0753 -0.2370  0.2437
   67MOL   H67148323   6.548   1.281   2.347 -1.5615  0.6523  0.6775
   67MOL   H67248324   6.653   1.412   2.298  0.9418 -0.0324  0.3322
   67MOL   H67348325   6.729   1.241   2.529  1.2304  0.9098  0.7482
   67MOL   H67448326   6.833   1.331   2.423  0.7775 -1.7877 -0.7061
   67MOL   H67548327   6.690   1.083   2.336  0.0502  0.1635 -0.8894
   67MOL   H67648328   6.787   1.187   2.228  1.9412  1.0444  0.2292
   67MOL   H67748329   6.901   1.046   2.471 -0.9170  1.0751  0.2221
   67MOL   H67848330   6.988   1.151   2.378 -0.6994  1.3232  0.4608
   67MOL   H67948331   6.941   0.987   2.181 -5.2228 -1.1139 -1.8675
   67MOL   H68048332   6.834   0.894   2.276  0.9108 -0.9381 -1.4675
   67MOL   H68148333   7.087   0.812   2.247 -0.6520  0.1172 -0.4641
   67MOL   H68248334   7.127   0.953   2.349 -1.2198  1.8658 -0.1028
   67MOL   H68348335   6.918   0.823   2.476 -1.6069  0.2505 -3.1060
   67MOL   H68448336   6.509   1.462   2.732 -0.7388  0.6833  0.4733
   67MOL   H68548337   6.414   1.592   2.917  0.2406  0.3226 -0.9704
   67MOL   C68648338   7.083   0.707   2.500  0.1130  0.7682 -0.3232
   67MOL   O68748339   7.199   0.677   2.467  0.0556 -0.0656 -0.1087
   67MOL   C68848340   7.012   0.640   2.620  0.3868  0.1987  0.9964
   67MOL   C68948341   6.879   0.671   2.657 -0.0687  0.4771  0.0954
   67MOL   C69048342   6.821   0.606   2.765 -0.2255  0.2707  0.6991
   67MOL   C69148343   6.884   0.501   2.826 -0.3204  0.0625 -0.3261
   67MOL   C69248344   6.821   0.438   2.941 -0.1616  0.2723  0.3697
   67MOL   O69348345   6.836   0.320   2.959  0.1148  0.7398 -0.3632
   67MOL   N69448346   6.752   0.524   3.014  0.4689 -0.1228  0.9038
   67MOL   C69548347   6.701   0.506   3.153 -0.1754 -0.2258  0.4057
   67MOL   C69648348   6.815   0.556   3.245  0.1714 -0.2644 -0.2050
   67MOL   C69748349   6.877   0.696   3.222  0.3291  0.5104  0.6432
   67MOL   C69848350   6.979   0.744   3.319  0.6284  0.4748 -0.0840
   67MOL   C69948351   7.053   0.868   3.278 -1.0667 -0.4682 -0.7705
   67MOL   C70048352   7.165   0.904   3.376 -0.1911  0.9749 -0.1016
   67MOL   N70148353   7.209   1.044   3.357 -0.2513 -0.2520 -0.0640
   67MOL   C70248354   7.008   0.460   2.778  0.2607  0.1406 -0.3093
   67MOL   C70348355   7.075   0.530   2.678  0.1851 -0.3416  0.2259
   67MOL   H70448356   6.827   0.759   2.623  1.2065  1.2853  0.1699
   67MOL   H70548357   6.719   0.632   2.787 -0.7591  0.5230 -1.9444
   67MOL   H70648358   6.749   0.619   2.979 -0.5835 -0.3735  0.2968
   67MOL   H70748359   6.615   0.567   3.179  0.3697  0.0518  1.6171
   67MOL   H70848360   6.674   0.402   3.170  0.4670 -0.6998 -1.4109
   67MOL   H70948361   6.898   0.486   3.231 -1.4593 -2.1236 -0.7548
   67MOL   H71048362   6.766   0.544   3.342 -0.3238  1.2388 -0.2610
   67MOL   H71148363   6.913   0.696   3.120  0.0376  2.0361  0.5247
   67MOL   H71248364   6.785   0.753   3.237  3.5412  6.0502  0.4290
   67MOL   H71348365   7.046   0.658   3.328  0.1532 -0.0088 -1.0920
   67MOL   H71448366   6.940   0.762   3.419  0.3711  2.3104 -0.5104
   67MOL   H71548367   6.979   0.949   3.276 -1.1274 -0.5452 -3.0963
   67MOL   H71648368   7.089   0.854   3.177  0.7197 -0.1596 -0.1902
   67MOL   H71748369   7.112   0.903   3.471 -0.9645 -1.3058 -0.5138
   67MOL   H71848370   7.250   0.836   3.389  0.9503  2.3833 -0.1238
   67MOL   H71948371   7.265   1.051   3.274 -0.0736 -1.4748 -0.0638
   67MOL   H72048372   7.053   0.373   2.825  0.0940  0.1638 -0.1042
   67MOL   H72148373   7.167   0.489   2.639  0.3553  2.6151 -2.6983
   67MOL   H72248374   7.271   1.064   3.435  0.3358 -1.1803 -0.2836
   68MOL     C148375   5.627   2.833   4.114  0.4228  0.3407  0.2779
   68MOL     O248376   5.733   2.760   4.135  0.3005 -0.1104 -0.2808
   68MOL     C348377   5.627   2.979   4.116 -0.0350  0.7338 -0.1574
   68MOL     C448378   5.502   3.048   4.114 -0.6741 -0.1611  0.2857
   68MOL     C548379   5.508   3.190   4.112 -0.2294  0.3718 -0.1630
   68MOL     C648380   5.631   3.260   4.122  0.2814 -1.0947  0.2827
   68MOL     C748381   5.627   3.408   4.129  0.2732  0.1130 -0.1835
   68MOL     O848382   5.526   3.471   4.150  0.0083  0.4266 -0.2078
   68MOL     N948383   5.741   3.473   4.089  0.6862  0.5519  0.3035
   68MOL    C1048384   5.759   3.616   4.075 -0.2564 -0.5362  0.1365
   68MOL    C1148385   5.854   3.667   4.178  0.9729 -0.3014 -0.0519
   68MOL    C1248386   5.988   3.593   4.171 -0.2789 -0.0343  0.0894
   68MOL    C1348387   6.023   3.513   4.295  0.2012 -0.2411  0.5092
   68MOL    C1448388   6.158   3.440   4.274 -0.8348 -0.5434  0.0868
   68MOL    C1548389   6.236   3.417   4.409  0.1587  0.8044 -0.3363
   68MOL    N1648390   6.323   3.303   4.408 -0.0654 -0.0175  0.1410
   68MOL    C1748391   5.749   3.188   4.119 -0.9891 -0.0586 -0.2443
   68MOL    C1848392   5.746   3.047   4.125 -0.7401 -0.5240 -0.2574
   68MOL    H1948393   5.409   2.993   4.107 -0.1222 -0.9144 -1.3108
   68MOL    H2048394   5.415   3.243   4.102  0.2046  0.7150 -3.0222
   68MOL    H2148395   5.816   3.412   4.058 -0.0723 -0.5674  0.6112
   68MOL    H2248396   5.801   3.621   3.975 -0.0634  0.6107  0.2617
   68MOL    H2348397   5.668   3.676   4.069  0.6768  0.8449 -0.6660
   68MOL    H2448398   5.799   3.650   4.270  1.0267 -1.9620 -0.3219
   68MOL    H2548399   5.873   3.771   4.152 -0.5991 -0.6987 -3.0407
   68MOL    H2648400   6.012   3.529   4.085  1.6549  0.3259  0.3447
   68MOL    H2748401   6.060   3.673   4.153 -0.7859 -0.0286 -2.0680
   68MOL    H2848402   5.946   3.440   4.322  0.2288  0.1577  1.7081
   68MOL    H2948403   6.025   3.579   4.382 -3.6128 -0.4112  0.8084
   68MOL    H3048404   6.224   3.500   4.210  0.2710 -1.1921  0.6070
   68MOL    H3148405   6.133   3.345   4.227 -0.7624 -1.8166  2.5807
   68MOL    H3248406   6.298   3.498   4.448  0.9021  0.2943 -0.4482
   68MOL    H3348407   6.166   3.400   4.491  0.2687  0.3844 -0.3302
   68MOL    H3448408   6.306   3.229   4.474  1.5791 -0.1531  0.4334
   68MOL    H3548409   5.843   3.241   4.115 -0.4293 -1.1495 -3.5893
   68MOL    H3648410   5.847   3.008   4.126  1.6569  5.0843 -2.5072
   68MOL    H3748411   5.526   2.796   4.095  0.9024 -0.9371  0.1843
   68MOL    C3848412   6.444   3.303   4.347 -0.3952  0.1189  0.3780
   68MOL    O3948413   6.477   3.396   4.275 -0.3531  0.1391  0.2591
   68MOL    C4048414   6.548   3.193   4.386 -0.3176  0.0406 -0.1303
   68MOL    C4148415   6.506   3.073   4.439  0.6162  0.3564 -0.4447
   68MOL    C4248416   6.599   2.968   4.463  0.0296 -0.3686  0.2131
   68MOL    C4348417   6.737   2.989   4.439 -0.2158  0.3924 -0.4395
   68MOL    C4448418   6.838   2.879   4.471 -0.5571  0.1588 -0.4285
   68MOL    O4548419   6.953   2.904   4.507 -0.1502 -0.4945 -0.0859
   68MOL    N4648420   6.798   2.754   4.439  0.5076  0.5874 -0.8001
   68MOL    C4748421   6.882   2.634   4.436 -1.1350  0.4298  0.1432
   68MOL    C4848422   6.850   2.537   4.555 -0.7345 -0.0423  0.0894
   68MOL    C4948423   6.704   2.486   4.579  0.8266 -0.5559 -0.1244
   68MOL    C5048424   6.611   2.595   4.639 -0.2357 -0.0529 -0.6885
   68MOL    C5148425   6.470   2.541   4.655 -0.5010  0.7366 -0.6784
   68MOL    C5248426   6.390   2.530   4.525  1.0466  0.3114 -0.7184
   68MOL    N5348427   6.258   2.472   4.554  0.1579  0.0088  0.5361
   68MOL    C5448428   6.777   3.115   4.381 -0.5646 -0.1587  0.2490
   68MOL    C5548429   6.684   3.214   4.358  0.3146  0.3208  0.7329
   68MOL    H5648430   6.400   3.057   4.450  0.6097 -0.6143 -1.8203
   68MOL    H5748431   6.569   2.879   4.516 -0.1256  0.0263  0.7856
   68MOL    H5848432   6.723   2.750   4.372 -0.0644 -0.0744 -0.1298
   68MOL    H5948433   6.853   2.593   4.339  1.1246 -0.7387 -0.0801
   68MOL    H6048434   6.991   2.646   4.433 -0.8335 -2.5294 -3.5605
   68MOL    H6148435   6.888   2.578   4.648 -0.9046  0.9037 -0.2545
   68MOL    H6248436   6.903   2.443   4.540 -2.5134 -0.8042 -1.7084
   68MOL    H6348437   6.665   2.453   4.482  0.3540  3.0195 -1.2344
   68MOL    H6448438   6.715   2.404   4.649 -0.7288 -0.9954 -0.3703
   68MOL    H6548439   6.625   2.692   4.592  0.7023  1.8281  3.2065
   68MOL    H6648440   6.654   2.626   4.735  0.5357 -2.0277 -0.3744
   68MOL    H6748441   6.423   2.612   4.724 -1.5757 -0.7799  0.1776
   68MOL    H6848442   6.474   2.446   4.708 -0.3664  1.1945  0.1418
   68MOL    H6948443   6.390   2.630   4.483 -1.2047  0.4519 -0.4489
   68MOL    H7048444   6.445   2.465   4.456  0.0930  0.0291 -1.2359
   68MOL    H7148445   6.269   2.376   4.584  0.9930 -0.3580 -0.9335
   68MOL    H7248446   6.882   3.138   4.376 -0.9799  2.0571  1.1859
   68MOL    H7348447   6.713   3.306   4.309 -2.8034 -0.0839 -2.0674
   68MOL    C7448448   6.143   2.530   4.520 -0.2241  0.6116 -0.3273
   68MOL    O7548449   6.136   2.640   4.469  0.0381 -0.2372  0.1792
   68MOL    C7648450   6.018   2.449   4.548 -0.0942 -0.7701 -0.5612
   68MOL    C7748451   5.901   2.475   4.477 -0.2487 -0.3822 -0.0451
   68MOL    C7848452   5.783   2.399   4.499 -0.8105 -0.1436 -0.0298
   68MOL    C7948453   5.779   2.297   4.604 -0.1223  0.2302  0.1724
   68MOL    C8048454   5.649   2.224   4.640 -0.2566  0.4391 -0.0309
   68MOL    O8148455   5.592   2.161   4.553  1.0377  0.1713 -0.6365
   68MOL    N8248456   5.628   2.212   4.769  0.1635  0.2872  0.0445
   68MOL    C8348457   5.538   2.123   4.840 -0.7292 -0.2148  0.9752
   68MOL    C8448458   5.604   1.991   4.887  0.5717 -0.1695  0.7031
   68MOL    C8548459   5.508   1.896   4.966  0.7184  0.3626  0.1928
   68MOL    C8648460   5.559   1.764   5.010  0.1775 -0.1803 -0.2388
   68MOL    C8748461   5.614   1.753   5.158 -0.6188 -0.8319  0.6389
   68MOL    C8848462   5.656   1.616   5.205 -0.2903  0.3695  0.0829
   68MOL    N8948463   5.716   1.622   5.340  0.3435 -0.1744  0.1559
   68MOL    C9048464   5.900   2.275   4.675  0.5144 -0.1025  0.1106
   68MOL    C9148465   6.018   2.340   4.642  0.1170  0.4680  0.4008
   68MOL    H9248466   5.889   2.549   4.399  1.3538 -1.4659 -1.3479
   68MOL    H9348467   5.700   2.417   4.432 -1.2486 -1.3856  0.1674
   68MOL    H9448468   5.683   2.269   4.831 -0.9873 -0.8944  2.2044
   68MOL    H9548469   5.496   2.176   4.925 -1.0407 -0.5764  1.0451
   68MOL    H9648470   5.447   2.097   4.786 -1.5331 -3.0063  3.5325
   68MOL    H9748471   5.699   2.005   4.939  0.7585  0.0395  0.3080
   68MOL    H9848472   5.626   1.929   4.801 -0.5853 -1.5853  1.4038
   68MOL    H9948473   5.466   1.956   5.046 -1.3990 -0.9303  0.0832
   68MOL   H10048474   5.427   1.878   4.895 -0.0075 -0.6703  1.2716
   68MOL   H10148475   5.638   1.720   4.949  1.9048 -0.3391  2.0352
   68MOL   H10248476   5.480   1.690   5.017 -0.7549  0.7718 -0.5521
   68MOL   H10348477   5.542   1.796   5.227  0.4064 -2.1214  2.5814
   68MOL   H10448478   5.703   1.816   5.156 -0.7012 -0.7366 -2.6982
   68MOL   H10548479   5.568   1.552   5.214 -0.5766  0.3623 -2.5450
   68MOL   H10648480   5.721   1.568   5.133  0.6186  1.2394  0.3201
   68MOL   H10748481   5.745   1.719   5.348 -1.3544  0.2320  1.6514
   68MOL   H10848482   5.911   2.196   4.749  1.2393  0.4125  0.5633
   68MOL   H10948483   6.115   2.324   4.686  0.5976 -1.4759 -1.3049
   68MOL   C11048484   5.732   1.520   5.423 -0.2511  0.7381  0.1490
   68MOL   O11148485   5.658   1.419   5.400  0.2131 -0.0231 -0.0301
   68MOL   C11248486   5.831   1.525   5.536  0.0728  0.4628 -0.1195
   68MOL   C11348487   5.917   1.632   5.554 -0.0170  0.0125 -0.1062
   68MOL   C11448488   6.023   1.632   5.648 -0.3384 -0.7348 -1.0801
   68MOL   C11548489   6.048   1.515   5.721 -0.1386 -0.1506  0.4861
   68MOL   C11648490   6.174   1.513   5.800 -0.8375 -0.3323 -0.3151
   68MOL   O11748491   6.214   1.616   5.847  0.4276  0.1108 -0.2642
   68MOL   N11848492   6.244   1.396   5.811 -0.1032  0.4770  0.5592
   68MOL   C11948493   6.377   1.399   5.884  0.7129 -0.7684 -0.5855
   68MOL   C12048494   6.484   1.449   5.790  0.7887 -0.1685  0.0634
   68MOL   C12148495   6.512   1.357   5.679  0.2440  0.0428 -0.6317
   68MOL   C12248496   6.648   1.379   5.610  0.4820  0.0922  0.2612
   68MOL   C12348497   6.663   1.527   5.574  0.7289 -0.7373  0.1774
   68MOL   C12448498   6.781   1.542   5.474 -0.6806  0.1987  0.2620
   68MOL   N12548499   6.908   1.558   5.551  0.1207 -0.2256  0.3501
   68MOL   C12648500   5.951   1.408   5.716 -0.2672 -0.8396 -0.3519
   68MOL   C12748501   5.846   1.415   5.623  0.0007  0.4158 -0.2518
   68MOL   H12848502   5.910   1.719   5.491  0.5167  0.3556  0.3023
   68MOL   H12948503   6.097   1.709   5.664 -1.1381 -0.5148  1.7648
   68MOL   H13048504   6.206   1.312   5.770  0.2520  0.6132 -0.0714
   68MOL   H13148505   6.370   1.447   5.981 -2.8064 -3.1299  0.4201
   68MOL   H13248506   6.412   1.299   5.908 -0.3205 -0.7100  1.2205
   68MOL   H13348507   6.569   1.481   5.850  0.4756  0.5502  0.1312
   68MOL   H13448508   6.454   1.546   5.751  1.9687 -1.0315 -3.1156
   68MOL   H13548509   6.524   1.255   5.715 -4.2462 -0.1977  0.4265
   68MOL   H13648510   6.437   1.353   5.600 -0.1664 -2.1824 -0.1819
   68MOL   H13748511   6.661   1.314   5.524  1.8443 -1.6172  1.7214
   68MOL   H13848512   6.733   1.362   5.677  1.2721  0.1076 -0.7232
   68MOL   H13948513   6.691   1.579   5.665 -0.4870  0.5789 -0.1852
   68MOL   H14048514   6.576   1.562   5.518  0.7814 -1.6000 -0.4491
   68MOL   H14148515   6.793   1.465   5.397 -0.0405  0.0625  0.4942
   68MOL   H14248516   6.784   1.636   5.419  2.3726  0.5904  1.0075
   68MOL   H14348517   6.912   1.532   5.648  2.1297 -1.3640  0.0095
   68MOL   H14448518   5.976   1.316   5.766  0.6383  0.9701  2.6623
   68MOL   H14548519   5.781   1.329   5.611 -0.2981  0.9190 -2.5131
   68MOL   C14648520   7.024   1.587   5.495 -0.2483 -0.3006 -0.0626
   68MOL   O14748521   7.040   1.632   5.381  0.0574  0.3422  0.1286
   68MOL   C14848522   7.136   1.570   5.591 -0.0847 -0.5918 -0.9746
   68MOL   C14948523   7.239   1.662   5.587 -0.8133  0.4695 -0.1584
   68MOL   C15048524   7.345   1.648   5.677 -0.4192  0.1794 -0.1918
   68MOL   C15148525   7.346   1.548   5.778 -0.1644  0.3093 -0.2444
   68MOL   C15248526   7.468   1.544   5.870 -0.4276 -0.3286 -0.4803
   68MOL   O15348527   7.551   1.633   5.862 -0.0322  0.3539 -0.1519
   68MOL   N15448528   7.485   1.448   5.960  0.2844  0.4448 -0.6584
   68MOL   C15548529   7.572   1.448   6.078 -0.1337  0.5492  0.9734
   68MOL   C15648530   7.489   1.474   6.207 -0.0503 -0.2531 -0.7797
   68MOL   C15748531   7.559   1.418   6.329 -0.1050 -0.7388 -0.3869
   68MOL   C15848532   7.471   1.421   6.455 -0.1509 -0.4734  0.3277
   68MOL   C15948533   7.541   1.354   6.574  0.1545  0.6022 -0.6286
   68MOL   C16048534   7.442   1.303   6.676 -0.1430  0.1750 -0.8358
   68MOL   N16148535   7.511   1.221   6.773 -0.6271 -1.1560 -0.4617
   68MOL   C16248536   7.258   1.442   5.767  0.6779  0.5141  0.1351
   68MOL   C16348537   7.150   1.454   5.674  0.3345 -0.3796  0.0721
   68MOL   H16448538   7.239   1.748   5.522  2.2314  0.7530  0.1010
   68MOL   H16548539   7.420   1.725   5.670 -0.2668  0.2571  1.8492
   68MOL   H16648540   7.409   1.381   5.971  0.4635  0.4620  0.7734
   68MOL   H16748541   7.609   1.347   6.093  0.9771  0.7292 -0.3849
   68MOL   H16848542   7.659   1.508   6.052 -0.4206  0.2242 -0.8326
   68MOL   H16948543   7.398   1.418   6.186  0.3400 -0.4133 -2.1128
   68MOL   H17048544   7.469   1.581   6.211 -0.1044 -0.3211  4.6497
   68MOL   H17148545   7.603   1.320   6.314  2.2019  0.2057 -0.0305
   68MOL   H17248546   7.643   1.487   6.340 -0.0619 -0.8272 -0.1423
   68MOL   H17348547   7.380   1.366   6.435 -0.9484  1.0552 -0.3155
   68MOL   H17448548   7.444   1.523   6.483  2.2216  0.1757  0.3852
   68MOL   H17548549   7.601   1.423   6.633 -1.4246  2.5421 -1.2321
   68MOL   H17648550   7.607   1.271   6.549 -1.3011 -0.3801 -1.3131
   68MOL   H17748551   7.403   1.387   6.732  1.5268 -0.1354  0.8339
   68MOL   H17848552   7.358   1.254   6.627 -0.7047 -0.8600  1.1063
   68MOL   H17948553   7.579   1.154   6.740  1.1549 -0.0706  0.9307
   68MOL   H18048554   7.260   1.360   5.836 -1.1503  0.9859  0.7789
   68MOL   H18148555   7.078   1.374   5.684 -2.0872  1.5539 -1.5413
   68MOL   C18248556   7.486   1.227   6.901  0.2250 -0.3688 -0.2430
   68MOL   O18348557   7.384   1.274   6.939 -0.1071  0.3652  0.4507
   68MOL   C18448558   7.575   1.149   6.989  0.7985  0.0816  0.0509
   68MOL   C18548559   7.709   1.182   6.997  0.3472  0.4351 -0.5062
   68MOL   C18648560   7.791   1.114   7.093 -0.1175 -0.2371 -0.2026
   68MOL   C18748561   7.739   1.016   7.180 -0.3036  0.7041  0.3741
   68MOL   C18848562   7.820   0.940   7.279 -0.6338  0.2135  0.8979
   68MOL   O18948563   7.830   0.815   7.277 -0.2873 -0.0651 -0.1691
   68MOL   N19048564   7.850   1.011   7.389  0.2950  0.4298 -0.1921
   68MOL   C19148565   0.068   0.974   7.481  0.3584  0.4131 -0.4033
   68MOL   C19248566   0.017   0.868   7.582 -0.0876 -0.8063  0.5454
   68MOL   C19348567   0.067   0.892   7.724  0.2771 -0.3619  0.3790
   68MOL   C19448568   0.214   0.849   7.740  0.5330 -0.7490  0.3722
   68MOL   C19548569   0.284   0.924   7.857 -0.3536  0.5438 -0.3798
   68MOL   C19648570   0.354   1.060   7.819  0.5289  0.3013 -0.0975
   68MOL   N19748571   0.414   1.124   0.051  0.0959  0.5659  0.2263
   68MOL   C19848572   7.602   0.988   7.174  0.4132  0.5769 -0.1374
   68MOL   C19948573   7.523   1.047   7.080  0.2469  1.1038 -0.0489
   68MOL   H20048574   7.733   1.274   6.946 -2.5610  0.8908 -1.1704
   68MOL   H20148575   0.004   1.152   7.118  0.3314 -0.2846 -1.8895
   68MOL   H20248576   7.813   1.103   7.402 -0.3568  0.0823  0.4231
   68MOL   H20348577   0.152   0.930   7.426  0.1099 -0.9606  0.2809
   68MOL   H20448578   0.107   1.059   7.536  1.5502  0.8654 -1.8966
   68MOL   H20548579   0.021   0.764   7.549 -2.1162 -1.2536  1.6043
   68MOL   H20648580   7.795   0.884   7.586  0.2375  1.3881  1.2636
   68MOL   H20748581   0.060   0.997   7.753  0.3106  0.1737 -1.5115
   68MOL   H20848582   0.002   0.836   7.792 -0.9567  2.3699  1.5383
   68MOL   H20948583   0.265   0.871   7.646  1.0360 -1.1514  0.5446
   68MOL   H21048584   0.220   0.740   7.737 -0.1390 -0.7608 -1.7058
   68MOL   H21148585   0.353   0.857   0.023  1.4649  1.5150 -1.4879
   68MOL   H21248586   0.207   0.943   0.045 -0.7990 -1.8291 -0.1918
   68MOL   H21348587   0.420   1.046   7.734  0.1182  2.4042 -0.8000
   68MOL   H21448588   0.281   1.130   7.777  0.2999  0.4844  0.6022
   68MOL   H21548589   0.385   1.103   0.146 -0.1216 -0.0833  0.0182
   68MOL   H21648590   7.549   0.931   7.249  0.5913 -0.2980 -0.6717
   68MOL   H21748591   7.417   1.024   7.085  0.8180 -1.8095 -0.3123
   68MOL   C21848592   0.492   1.234   0.041 -0.1022  0.0772  0.1905
   68MOL   O21948593   0.524   1.281   7.820  0.0171 -0.6655  0.2674
   68MOL   C22048594   0.531   1.293   0.172  1.1490 -0.3432 -0.5264
   68MOL   C22148595   0.615   1.406   0.170  0.3714 -0.0603  0.2705
   68MOL   C22248596   0.680   1.448   0.293 -0.0292  0.1688 -0.1816
   68MOL   C22348597   0.641   1.394   0.419  0.6877 -0.3352 -0.1008
   68MOL   C22448598   0.708   1.446   0.546  0.0728 -0.4453  0.5234
   68MOL   O22548599   0.818   1.492   0.538  0.2762  0.1539 -0.2929
   68MOL   N22648600   0.649   1.451   0.667  0.2572  0.1851 -0.1489
   68MOL   C22748601   0.708   1.503   0.787 -0.2557 -0.1879 -0.1873
   68MOL   C22848602   0.772   1.387   0.870 -0.9109 -0.1517 -0.3261
   68MOL   C22948603   0.872   1.292   0.800 -1.0629  0.4758 -0.7020
   68MOL   C23048604   0.919   1.173   0.883 -0.1492  0.5015 -0.5913
   68MOL   C23148605   0.977   1.051   0.806  0.3422 -0.1128 -0.1924
   68MOL   C23248606   1.111   1.065   0.735  0.4155  0.1170 -0.2607
   68MOL   N23348607   1.097   1.139   0.606 -0.0357  0.3285  0.1322
   68MOL   C23448608   0.549   1.284   0.414 -0.2858 -0.0388 -0.1274
   68MOL   C23548609   0.499   1.228   0.297  0.0691 -0.2099  0.6572
   68MOL   H23648610   0.638   1.446   0.073 -0.2227 -0.0311  0.1387
   68MOL   H23748611   0.760   1.520   0.287  1.0719 -0.9603  0.6646
   68MOL   H23848612   0.551   1.426   0.669  0.0433  0.6815 -2.7685
   68MOL   H23948613   0.766   1.592   0.758 -2.8137  1.0713 -1.5909
   68MOL   H24048614   0.622   1.544   0.840 -0.6989  1.1049 -1.8470
   68MOL   H24148615   0.689   1.324   0.900 -1.5047  1.1376  0.8097
   68MOL   H24248616   0.816   1.421   0.963 -0.3787 -0.2022 -0.5566
   68MOL   H24348617   0.816   1.245   0.719 -0.2514 -0.4796 -0.7102
   68MOL   H24448618   0.960   1.336   0.753 -0.9806 -0.1452 -1.1359
   68MOL   H24548619   0.839   1.142   0.950  2.1255  0.7373  2.3746
   68MOL   H24648620   0.992   1.204   0.958  0.3127 -2.1538  0.1097
   68MOL   H24748621   0.892   1.021   0.745 -0.3516 -2.4121  1.8034
   68MOL   H24848622   0.973   0.962   0.868 -0.5753 -1.2449 -1.8388
   68MOL   H24948623   1.180   1.122   0.797  1.3821 -0.2614 -0.9792
   68MOL   H25048624   1.160   0.971   0.711  1.5939 -0.4137  3.7612
   68MOL   H25148625   1.005   1.134   0.563 -0.1756  1.7886  0.2463
   68MOL   H25248626   0.528   1.234   0.507  1.2050 -1.7897 -0.7135
   68MOL   H25348627   0.451   1.132   0.305 -0.1126 -0.0397  1.6418
   68MOL   C25448628   1.190   1.212   0.541 -0.2633  0.6881  0.2576
   68MOL   O25548629   1.299   1.238   0.590  0.0163 -0.0382 -0.0186
   68MOL   C25648630   1.155   1.253   0.395  0.1628 -0.7994  0.7693
   68MOL   C25748631   1.256   1.255   0.295 -0.7261  0.4147  1.0904
   68MOL   C25848632   1.222   1.282   0.157 -0.2254 -0.3250 -0.0892
   68MOL   C25948633   1.090   1.320   0.120  0.3545  0.0042 -0.0769
   68MOL   C26048634   1.039   1.344   7.866 -0.2063 -0.4148  0.1473
   68MOL   O26148635   1.015   1.244   7.798 -0.0043 -0.1007  0.3861
   68MOL   N26248636   0.994   1.464   7.840 -0.2175  0.2572 -0.2342
   68MOL   C26348637   0.960   1.510   7.709  0.6168  0.1228 -0.1911
   68MOL   C26448638   0.823   1.575   7.704  0.4331  0.3233 -0.0473
   68MOL   C26548639   0.784   1.639   7.568 -0.3772  0.4804 -0.3550
   68MOL   C26648640   0.647   1.694   7.569 -0.1033 -0.4069 -0.8999
   68MOL   C26748641   0.589   1.761   7.447 -0.2012  0.4258 -0.7369
   68MOL   C26848642   0.441   1.805   7.458 -0.0985  0.6042  0.2219
   68MOL   N26948643   0.392   1.867   7.335 -0.8581 -0.3778 -0.1988
   68MOL   C27048644   0.995   1.319   0.224  0.2735  0.1994 -0.2903
   68MOL   C27148645   1.024   1.279   0.355 -0.5188  0.1869 -0.0019
   68MOL   H27248646   1.355   1.223   0.325 -0.6720 -0.6068 -0.1429
   68MOL   H27348647   1.297   1.287   0.080  1.7265 -2.4409  1.5953
   68MOL   H27448648   1.023   1.543   0.009 -0.7735 -0.2783  0.8470
   68MOL   H27548649   1.036   1.585   7.688  0.3163  0.3151 -0.5808
   68MOL   H27648650   0.961   1.436   7.629  0.4321  0.7902 -0.8131
   68MOL   H27748651   0.826   1.653   7.781  2.2996  0.9810 -0.7575
   68MOL   H27848652   0.752   1.494   7.721  3.4601 -2.6847 -1.2906
   68MOL   H27948653   0.860   1.716   7.553  2.1432 -1.6512  1.0596
   68MOL   H28048654   0.785   1.567   7.487 -1.7357  1.0625 -0.9123
   68MOL   H28148655   0.648   1.759   7.656 -1.9405 -0.2251 -0.9895
   68MOL   H28248656   0.580   1.609   7.579 -1.0733  0.1877 -2.1002
   68MOL   H28348657   0.603   1.699   7.358 -3.3763 -2.5746  0.7653
   68MOL   H28448658   0.655   1.847   7.432 -0.4192  0.7818  0.3232
   68MOL   H28548659   0.383   1.713   7.470 -0.9242  0.8794 -1.4619
   68MOL   H28648660   0.412   1.863   7.545  1.2173  1.3040  0.2048
   68MOL   H28748661   0.420   1.830   7.245  1.2960 -1.1799  0.7806
   68MOL   H28848662   0.890   1.336   0.206 -0.0526 -0.5630  0.8209
   68MOL   H28948663   0.949   1.270   0.432  1.4242  1.5383  2.1096
   68MOL   C29048664   0.287   1.951   7.316  0.8247 -0.0249  0.2277
   68MOL   O29148665   0.205   1.969   7.405 -0.4914  0.0271  0.2224
   68MOL   C29248666   0.257   1.992   7.176 -0.9089  0.5745  0.4718
   68MOL   C29348667   0.367   2.027   7.096 -0.1140 -0.2691  0.3010
   68MOL   C29448668   0.350   2.066   6.961 -0.2899 -0.2600 -0.0495
   68MOL   C29548669   0.219   2.076   6.905 -0.0805  0.0120 -0.0580
   68MOL   C29648670   0.194   2.111   6.760  0.2602  0.5191  0.8795
   68MOL   O29748671   0.092   2.166   6.726  0.8097 -0.0632 -0.1338
   68MOL   N29848672   0.275   2.067   6.666 -0.1863 -0.4334 -0.0903
   68MOL   C29948673   0.267   2.101   6.524 -0.1242  0.1495 -0.2629
   68MOL   C30048674   0.382   2.046   6.443 -0.3299  0.0652  0.2817
   68MOL   C30148675   0.353   2.055   6.292 -0.3599 -0.1461 -0.5244
   68MOL   C30248676   0.466   2.022   6.193 -0.2489  0.3502  0.7941
   68MOL   C30348677   0.582   2.130   6.213  0.0212 -0.7990  0.1968
   68MOL   C30448678   0.693   2.108   6.111 -0.1122  0.1417  0.3961
   68MOL   N30548679   0.755   1.980   6.132 -0.0835  0.4571  0.4560
   68MOL   C30648680   0.111   2.052   6.995  0.4820 -0.3451  0.1613
   68MOL   C30748681   0.127   2.008   7.127 -0.4193  0.5929  0.2497
   68MOL   H30848682   0.468   2.027   7.136 -0.1303 -0.7583  0.3434
   68MOL   H30948683   0.437   2.097   6.905 -0.5808 -1.1086 -0.9985
   68MOL   H31048684   0.351   2.007   6.697 -0.3085 -0.8364 -0.5540
   68MOL   H31148685   0.172   2.059   6.490 -0.3639 -0.1289  0.7213
   68MOL   H31248686   0.256   2.209   6.509 -1.7580 -0.2861 -2.4370
   68MOL   H31348687   0.399   1.939   6.461  4.2481  1.2218  3.9619
   68MOL   H31448688   0.471   2.101   6.475  0.2018 -0.4407 -0.3066
   68MOL   H31548689   0.270   1.987   6.276 -0.2743  0.1519 -2.3791
   68MOL   H31648690   0.309   2.150   6.262  1.2042  0.6493 -0.3653
   68MOL   H31748691   0.434   2.030   6.089 -0.5970  0.5306  0.9133
   68MOL   H31848692   0.495   1.918   6.200 -2.1955 -0.3524 -0.8508
   68MOL   H31948693   0.628   2.140   6.311 -0.0831 -1.2956  0.2975
   68MOL   H32048694   0.539   2.228   6.194 -1.3386 -1.3515  0.4229
   68MOL   H32148695   0.658   2.117   6.008 -2.2759 -0.2636  1.0627
   68MOL   H32248696   0.764   2.190   6.122 -2.1508  1.7507  2.2498
   68MOL   H32348697   0.738   1.923   6.214 -0.1541 -0.5616 -0.2455
   68MOL   H32448698   0.006   2.061   6.973  0.4639  1.4665  0.9588
   68MOL   H32548699   0.038   1.987   7.185  0.1474  0.4174  1.0629
   68MOL   C32648700   0.853   1.934   6.047  0.1194 -0.7735  0.0704
   68MOL   O32748701   0.891   1.998   5.951  0.2156 -0.5414  0.0204
   68MOL   C32848702   0.925   1.813   6.082  0.2986  0.1532 -0.3324
   68MOL   C32948703   0.855   1.705   6.141  0.8096 -0.3384 -0.2250
   68MOL   C33048704   0.913   1.572   6.159 -0.1259 -0.7260 -0.6259
   68MOL   C33148705   1.045   1.550   6.124 -0.1827 -0.0852  0.1674
   68MOL   C33248706   1.109   1.418   6.139  0.3758 -0.2271  0.5480
   68MOL   O33348707   1.056   1.344   6.225 -0.3898  0.0375  0.0674
   68MOL   N33448708   1.211   1.390   6.056 -0.1568  0.2303 -0.5189
   68MOL   C33548709   1.281   1.265   6.061  0.2107  0.6036 -0.2279
   68MOL   C33648710   1.413   1.295   6.140 -0.9095 -0.7033  0.0663
   68MOL   C33748711   1.495   1.164   6.164 -0.4892 -0.2665 -0.2358
   68MOL   C33848712   1.646   1.186   6.205  0.0048  0.2091 -0.5211
   68MOL   C33948713   1.701   1.049   6.263 -0.5022 -0.1502  0.2052
   68MOL   C34048714   1.855   1.074   6.264 -1.0323 -0.1094 -0.0472
   68MOL   N34148715   1.930   0.948   6.279  0.3182  0.2345 -0.7075
   68MOL   C34248716   1.116   1.667   6.079  0.1057  0.3888  0.4448
   68MOL   C34348717   1.060   1.797   6.053 -0.4137  0.1785 -0.9223
   68MOL   H34448718   0.752   1.728   6.162  1.5581  2.5509  0.6498
   68MOL   H34548719   0.850   1.494   6.200 -0.6001 -0.6302 -1.1684
   68MOL   H34648720   1.233   1.451   5.979  4.2238  0.6799  0.9499
   68MOL   H34748721   1.228   1.183   6.110  0.1389  0.9502  0.2789
   68MOL   H34848722   1.305   1.227   5.961 -0.2296  1.0464 -0.5058
   68MOL   H34948723   1.386   1.345   6.233  0.4512 -0.9529  0.6115
   68MOL   H35048724   1.477   1.362   6.083  0.0955  0.1113  2.0891
   68MOL   H35148725   1.442   1.101   6.236 -1.0060  0.3194 -0.1019
   68MOL   H35248726   1.492   1.102   6.074 -2.1331  0.3870 -0.6535
   68MOL   H35348727   1.659   1.267   6.278 -1.4235 -0.3554  0.3872
   68MOL   H35448728   1.700   1.224   6.119  1.0444 -0.4202 -0.1582
   68MOL   H35548729   1.681   0.981   6.180  0.7790  0.5118 -0.6575
   68MOL   H35648730   1.652   1.021   6.356 -0.9894  1.2964  0.3957
   68MOL   H35748731   1.895   1.119   6.173  0.1872 -0.0719  0.4902
   68MOL   H35848732   1.882   1.131   6.353 -1.4536  1.3354 -0.8278
   68MOL   H35948733   1.980   0.936   6.366  0.0849  0.5132 -0.5342
   68MOL   H36048734   1.222   1.669   6.063 -0.0628  0.8117 -0.7018
   68MOL   H36148735   1.114   1.871   5.995 -0.4526 -1.3857 -3.0005
   68MOL   C36248736   1.932   0.851   6.192  0.0586 -0.0655  0.1343
   68MOL   O36348737   1.884   0.861   6.077  0.3922 -0.2164 -0.1102
   68MOL   C36448738   2.001   0.727   6.241 -0.1801  0.2176  0.3687
   68MOL   C36548739   2.066   0.728   6.367 -0.2117  0.2601 -0.0657
   68MOL   C36648740   2.128   0.608   6.411 -0.3589  0.0180  0.1338
   68MOL   C36748741   2.131   0.495   6.330 -0.4617 -0.3233  0.7293
   68MOL   C36848742   2.205   0.371   6.376  0.5956  0.2917 -0.2842
   68MOL   O36948743   2.171   0.261   6.336  0.4139 -0.2640  0.6518
   68MOL   N37048744   2.298   0.393   6.468 -0.0398 -1.2249 -0.4405
   68MOL   C37148745   2.383   0.286   6.514 -0.1447  0.8405 -0.2630
   68MOL   C37248746   2.509   0.328   6.591  0.2452 -0.0495  0.0022
   68MOL   C37348747   2.613   0.212   6.597  0.4559 -0.0970  0.3477
   68MOL   C37448748   2.724   0.242   6.691 -0.0213 -0.3664 -0.0326
   68MOL   C37548749   2.818   0.123   6.714  0.3442 -0.6848  0.1786
   68MOL   C37648750   2.890   0.086   6.588 -1.0375  0.5939  0.3142
   68MOL   N37748751   3.014   0.020   6.627  0.3045  0.2795  0.2432
   68MOL   C37848752   2.064   0.494   6.208 -1.2251 -0.3049 -0.5195
   68MOL   C37948753   1.995   0.607   6.166  0.6007 -0.1268  0.7883
   68MOL   H38048754   2.058   0.812   6.434 -0.1252  1.2787 -1.3020
   68MOL   H38148755   2.166   0.609   6.512  0.9200  0.6946 -0.3457
   68MOL   H38248756   2.321   0.489   6.488 -1.8420 -0.8499 -0.0438
   68MOL   H38348757   2.318   0.220   6.571  1.0246 -0.3869 -0.3318
   68MOL   H38448758   2.429   0.239   6.427 -0.6477  0.0064 -0.0745
   68MOL   H38548759   2.483   0.371   6.687 -4.0735 -1.9927 -0.1866
   68MOL   H38648760   2.562   0.406   6.537  0.4391  0.8734  1.5167
   68MOL   H38748761   2.563   0.121   6.632  0.8919 -0.3108  0.4207
   68MOL   H38848762   2.650   0.179   6.500  0.4357 -1.1505  0.6838
   68MOL   H38948763   2.680   0.268   6.787  1.2217  1.6033  0.0336
   68MOL   H39048764   2.791   0.323   6.662  1.3730 -1.6339 -0.4032
   68MOL   H39148765   2.772   0.032   6.751 -1.6331 -0.5231 -1.7489
   68MOL   H39248766   2.896   0.143   6.787 -0.2194 -0.6565  0.7691
   68MOL   H39348767   2.828   0.031   6.516  2.6813 -1.5449 -1.4143
   68MOL   H39448768   2.928   0.180   6.550 -0.3603  0.5964  1.0039
   68MOL   H39548769   3.076   0.064   6.693 -0.3118  0.8202  0.4666
   68MOL   H39648770   2.061   0.401   6.153  1.0555  0.1798 -1.5266
   68MOL   H39748771   1.936   0.601   6.076  0.1154  2.2258  0.9084
   68MOL   C39848772   3.076   7.814   6.560  0.1898  0.1819  0.2786
   68MOL   O39948773   3.022   7.755   6.463 -0.7072 -0.1835 -0.4874
   68MOL   C40048774   3.215   7.775   6.598  0.5800  0.0231  0.3243
   68MOL   C40148775   3.257   7.795   6.731  0.4156  0.7236 -0.4293
   68MOL   C40248776   3.376   7.731   6.778 -0.0927 -0.1324  0.2967
   68MOL   C40348777   3.470   7.683   6.678 -0.7612  0.1038  0.1149
   68MOL   C40448778   3.607   7.630   6.713  0.1984  0.1814  0.4078
   68MOL   O40548779   3.708   7.684   6.660  0.1424 -0.3678 -0.4267
   68MOL   N40648780   3.622   7.532   6.803  0.1318 -0.0768 -0.4112
   68MOL   C40748781   3.747   7.462   6.841 -0.4546  0.8716 -0.4986
   68MOL   C40848782   3.705   7.352   6.939  1.0360 -0.1136  0.3838
   68MOL   C40948783   3.830   7.255   6.956 -0.3344 -0.3432  0.2734
   68MOL   C41048784   3.795   7.113   6.933  0.5701 -0.0045 -0.2351
   68MOL   C41148785   3.908   7.017   6.905  0.0416 -0.0003  0.1364
   68MOL   C41248786   3.960   6.998   6.757 -0.0354  0.2490  0.0438
   68MOL   N41348787   3.953   7.120   6.687  0.2400 -0.2512  0.8367
   68MOL   C41448788   3.439   7.694   6.537 -0.2768 -0.4878  0.2420
   68MOL   C41548789   3.301   7.719   6.504  0.1842  1.0132 -0.3396
   68MOL   H41648790   3.187   7.828   6.806 -0.1487 -1.1226 -0.1076
   68MOL   H41748791   3.393   7.722   6.885  0.6418 -0.9336  0.1114
   68MOL   H41848792   3.532   7.507   6.842  0.2305  0.2317  0.0197
   68MOL   H41948793   3.788   7.428   6.746 -0.0104  0.1300 -0.0379
   68MOL   H42048794   3.820   7.526   6.891 -0.5652  0.7993 -0.2440
   68MOL   H42148795   3.617   7.299   6.902  0.8567 -0.3990  1.1984
   68MOL   H42248796   3.674   7.396   7.034 -1.5909  1.2316 -1.0437
   68MOL   H42348797   3.911   7.290   6.891 -1.5658 -2.7645 -2.7149
   68MOL   H42448798   3.857   7.247   7.061 -1.4563  1.7706  0.7270
   68MOL   H42548799   3.727   7.105   6.848 -0.4993 -1.9623  0.7770
   68MOL   H42648800   3.736   7.062   7.009  0.0087  0.9776 -0.0103
   68MOL   H42748801   3.892   6.914   6.938 -2.4370 -0.1061 -1.2538
   68MOL   H42848802   3.983   7.056   6.973 -0.5490 -0.6651  1.1915
   68MOL   H42948803   4.065   6.970   6.754  0.5426  2.2858  0.8086
   68MOL   H43048804   3.897   6.927   6.702 -0.4387 -0.7356  1.7383
   68MOL   H43148805   3.872   7.120   6.626 -1.5437  2.0038  3.0955
   68MOL   H43248806   3.507   7.657   6.461 -0.4598 -0.1226 -0.0962
   68MOL   H43348807   3.273   7.718   6.400 -0.2650  0.6370 -0.2144
   68MOL   C43448808   4.037   7.223   6.684 -0.3854  0.5353  0.3751
   68MOL   O43548809   4.150   7.226   6.740 -0.8638 -0.2700 -0.3792
   68MOL   C43648810   4.002   7.333   6.587 -0.4440 -0.2556  0.5818
   68MOL   C43748811   4.008   7.470   6.619 -0.2765 -0.5087 -0.0307
   68MOL   C43848812   3.960   7.569   6.527  0.1118 -0.8218  0.0064
   68MOL   C43948813   3.911   7.534   6.397 -0.5967  0.5527  0.1447
   68MOL   C44048814   3.855   7.638   6.299  0.9959  0.3402  0.1573
   68MOL   O44148815   3.854   7.625   6.176 -0.1446  0.1094  0.0389
   68MOL   N44248816   3.801   7.749   6.355  0.7755 -0.1483 -0.0065
   68MOL   C44348817   3.726   7.853   6.285  0.1142 -0.2494 -0.1067
   68MOL   C44448818   3.791   0.030   6.160 -0.0456  0.3667  0.4506
   68MOL   C44548819   3.701   0.136   6.098 -0.4251 -0.3414 -0.1265
   68MOL   C44648820   3.754   0.206   5.973 -0.4074 -0.1734 -0.3950
   68MOL   C44748821   3.650   0.301   5.915 -0.3330  0.1172  0.4456
   68MOL   C44848822   3.689   0.367   5.779 -0.3171 -0.2670 -0.1121
   68MOL   N44948823   3.589   0.438   5.705 -0.2815  0.6852 -0.3634
   68MOL   C45048824   3.930   7.400   6.359  1.3816  0.6068  0.2565
   68MOL   C45148825   3.963   7.304   6.457  0.2605  0.0042  0.7835
   68MOL   H45248826   4.043   7.500   6.717 -0.9584 -0.1074  0.0868
   68MOL   H45348827   3.959   7.664   6.579  3.1421 -1.1559  0.8185
   68MOL   H45448828   3.798   7.745   6.455  3.3437  2.6316  0.2641
   68MOL   H45548829   3.628   7.815   6.258 -0.1492 -0.8129  1.5837
   68MOL   H45648830   3.704   0.041   6.362  2.3370  0.5888 -0.2225
   68MOL   H45748831   3.805   7.841   6.082 -0.1615  0.4208  0.3760
   68MOL   H45848832   3.894   0.062   6.179 -0.4407  1.5962  0.5723
   68MOL   H45948833   3.598   0.100   6.092 -1.0886  1.3362  0.7413
   68MOL   H46048834   3.692   0.204   6.183 -0.1586 -0.6438  0.1449
   68MOL   H46148835   3.762   0.132   5.894  0.5076 -1.3403  0.7659
   68MOL   H46248836   3.853   0.248   5.992 -0.3885  0.9234 -2.7440
   68MOL   H46348837   3.639   0.379   5.991  2.3471  0.1509  0.8426
   68MOL   H46448838   3.548   0.263   5.910  0.2166 -1.0151 -3.3008
   68MOL   H46548839   3.766   0.443   5.791  1.2264 -1.8564  0.0676
   68MOL   H46648840   3.728   0.290   5.713  0.9777  0.3880 -0.1274
   68MOL   H46748841   3.551   0.396   5.621 -0.9991 -0.0885  0.3414
   68MOL   H46848842   3.921   7.372   6.255 -0.2412  2.0582 -0.0215
   68MOL   H46948843   3.979   7.203   6.423 -0.6633  0.4166 -0.9222
   68MOL   C47048844   3.541   0.560   5.748 -0.3416 -0.3437 -0.0692
   68MOL   O47148845   3.579   0.618   5.847 -0.1489 -0.7352  0.2570
   68MOL   C47248846   3.432   0.618   5.660 -0.1028  0.2975 -0.7651
   68MOL   C47348847   3.374   0.551   5.554 -0.3662 -0.3519  0.3447
   68MOL   C47448848   3.288   0.607   5.459  0.0617  0.4334 -0.1422
   68MOL   C47548849   3.234   0.733   5.496  0.9491 -0.4186 -0.5281
   68MOL   C47648850   3.129   0.799   5.412 -0.7962 -0.8823 -0.6448
   68MOL   O47748851   3.044   0.877   5.448 -0.4885 -0.2025 -0.0860
   68MOL   N47848852   3.147   0.772   5.283 -0.0387 -0.8257 -0.3376
   68MOL   C47948853   3.073   0.834   5.172  0.0373  0.4412  0.3502
   68MOL   C48048854   3.000   0.730   5.090 -0.4858  0.4284  0.4105
   68MOL   C48148855   2.931   0.790   4.970 -0.5406  0.4742  0.0015
   68MOL   C48248856   2.830   0.707   4.880 -0.2543  0.0663  0.4456
   68MOL   C48348857   2.796   0.760   4.743  0.5589 -0.0028  0.0771
   68MOL   C48448858   2.671   0.704   4.678 -0.1779  0.4329 -0.3086
   68MOL   N48548859   2.644   0.759   4.542  0.0936  0.2368  0.3129
   68MOL   C48648860   3.280   0.799   5.614 -0.3592 -0.6434  0.3523
   68MOL   C48748861   3.389   0.753   5.682  0.1439  0.4145  0.6368
   68MOL   H48848862   3.405   0.453   5.524 -1.1059 -0.9251  1.4245
   68MOL   H48948863   3.273   0.545   5.371  2.0309 -1.6101  0.9126
   68MOL   H49048864   3.217   0.705   5.255  0.3948 -0.7637  0.5888
   68MOL   H49148865   2.992   0.893   5.215 -0.4115  1.2054 -1.5005
   68MOL   H49248866   3.140   0.899   5.116 -0.6775  0.0028 -1.0368
   68MOL   H49348867   2.925   0.690   5.158  0.5319 -1.5505  0.3945
   68MOL   H49448868   3.073   0.656   5.059 -1.3157  0.1165 -0.8495
   68MOL   H49548869   2.886   0.887   4.992 -2.6882  0.1832 -2.7525
   68MOL   H49648870   3.002   0.816   4.892 -1.1778  1.7630 -0.1663
   68MOL   H49748871   2.737   0.716   4.936 -0.1987  0.6448  0.4530
   68MOL   H49848872   2.858   0.602   4.881 -0.5362 -0.0027  1.6885
   68MOL   H49948873   2.875   0.745   4.670  0.7713  3.8838 -0.5740
   68MOL   H50048874   2.796   0.868   4.752  0.7012 -0.0382  0.4948
   68MOL   H50148875   2.684   0.596   4.679  1.7811  0.6574  1.5549
   68MOL   H50248876   2.581   0.736   4.730 -0.7337  0.9526 -1.5679
   68MOL   H50348877   2.618   0.856   4.532  2.1556  0.7828  0.0228
   68MOL   H50448878   3.241   0.895   5.645 -1.6951 -0.3960 -2.0180
   68MOL   H50548879   3.429   0.808   5.765 -0.2559 -1.4221  2.0735
   68MOL   C50648880   2.599   0.686   4.435 -0.3958 -0.3578 -0.1558
   68MOL   O50748881   2.594   0.562   4.439  0.4388  0.4830  0.5462
   68MOL   C50848882   2.571   0.768   4.309 -0.2115 -0.1593  0.8996
   68MOL   C50948883   2.517   0.717   4.191 -0.0330 -0.0857 -0.1203
   68MOL   C51048884   2.490   0.801   4.077 -0.4439 -0.3698  1.2108
   68MOL   C51148885   2.519   0.941   4.085  0.8037 -1.1025 -1.5158
   68MOL   C51248886   2.466   1.034   3.976 -0.4347  0.2791  0.2377
   68MOL   O51348887   2.357   1.015   3.921  0.4880  0.2106 -0.1308
   68MOL   N51448888   2.544   1.147   3.957 -0.1189  0.1490 -0.1605
   68MOL   C51548889   2.505   1.264   3.876 -0.2350 -0.4845  0.2461
   68MOL   C51648890   2.445   1.375   3.969  0.1376  0.1560 -1.2988
   68MOL   C51748891   2.460   1.516   3.918  0.9154 -0.9011 -0.4828
   68MOL   C51848892   2.411   1.619   4.022  0.1040 -0.8594 -0.5231
   68MOL   C51948893   2.452   1.766   4.003 -0.8994  0.1586  0.1514
   68MOL   C52048894   2.606   1.773   4.011 -0.0527 -0.1583 -0.0009
   68MOL   N52148895   2.658   1.683   4.111 -0.6059 -0.0755  0.3338
   68MOL   C52248896   2.578   0.992   4.199 -0.1617  0.2683  0.4610
   68MOL   C52348897   2.605   0.902   4.302 -0.2885 -0.1118  0.2074
   68MOL   H52448898   2.496   0.611   4.184  1.3931 -0.5131  1.7137
   68MOL   H52548899   2.432   0.765   3.994  2.5735  0.3145 -1.2748
   68MOL   H52648900   2.641   1.136   3.986 -0.0008 -0.7144 -0.8443
   68MOL   H52748901   2.603   1.294   3.840  0.1889  0.1061  1.8398
   68MOL   H52848902   2.446   1.233   3.790  0.0284 -0.7349  0.1554
   68MOL   H52948903   2.492   1.354   4.065 -0.0250  0.8682 -1.0625
   68MOL   H53048904   2.344   1.336   3.982 -0.0690  0.4864 -1.8676
   68MOL   H53148905   2.568   1.522   3.904  0.8365  0.7041 -0.5107
   68MOL   H53248906   2.411   1.537   3.823 -1.0763  2.3442  1.1509
   68MOL   H53348907   2.428   1.582   4.123  1.0644 -3.6242 -1.6418
   68MOL   H53448908   2.302   1.614   4.016  0.0633 -1.6053  0.8329
   68MOL   H53548909   2.413   1.819   4.091  1.3885 -0.6719  1.7279
   68MOL   H53648910   2.413   1.816   3.915 -0.4022 -0.6159 -0.5080
   68MOL   H53748911   2.637   1.728   3.917 -0.5349 -1.3230  0.3772
   68MOL   H53848912   2.652   1.869   4.032  1.4023 -0.7981 -0.2410
   68MOL   H53948913   2.599   1.658   4.189 -0.3569  0.7394  0.7988
   68MOL   H54048914   2.602   1.096   4.211 -0.0762  0.4077 -0.7904
   68MOL   H54148915   2.629   0.947   4.397 -0.2124  2.6144 -1.0402
   68MOL   C54248916   2.778   1.639   4.115 -0.5520 -0.0880  0.2549
   68MOL   O54348917   2.868   1.699   4.055  1.4312 -0.0772  0.9496
   68MOL   C54448918   2.795   1.521   4.211  0.0565  0.5000 -0.0905
   68MOL   C54548919   2.683   1.455   4.269  0.0880  0.4417  0.9800
   68MOL   C54648920   2.703   1.357   4.362 -0.1624 -0.5980  0.0359
   68MOL   C54748921   2.835   1.304   4.378  0.1877  0.5993 -0.0364
   68MOL   C54848922   2.840   1.179   4.457  0.0239 -0.6641  0.4513
   68MOL   O54948923   2.745   1.129   4.514  0.6093 -0.0502 -0.2533
   68MOL   N55048924   2.963   1.122   4.463 -0.1842  0.0306  0.0742
   68MOL   C55148925   2.996   0.991   4.515  0.8247  0.0944  0.1575
   68MOL   C55248926   3.060   1.015   4.648 -0.2889  0.3089 -1.4278
   68MOL   C55348927   3.166   0.905   4.680 -0.1444 -0.3997 -1.1892
   68MOL   C55448928   3.251   0.928   4.803 -0.6215  0.1918 -0.6202
   68MOL   C55548929   3.362   0.825   4.833 -0.0327  0.3481  1.1919
   68MOL   C55648930   3.318   0.682   4.839 -0.2621 -0.1812 -0.9883
   68MOL   N55748931   3.413   0.611   4.920 -0.0101 -0.2637  0.0882
   68MOL   C55848932   2.949   1.370   4.324  0.3402  0.6498  0.0733
   68MOL   C55948933   2.931   1.479   4.238  0.0134  0.4671  0.1504
   68MOL   H56048934   2.585   1.488   4.238  0.1472 -0.3134 -0.0508
   68MOL   H56148935   2.622   1.312   4.416 -0.4434 -0.3769 -0.2011
   68MOL   H56248936   3.041   1.177   4.430 -1.4878 -0.0782 -3.3640
   68MOL   H56348937   2.914   0.919   4.518  0.6613  0.2616 -0.2141
   68MOL   H56448938   3.061   0.940   4.444  2.2867  0.2450  1.3677
   68MOL   H56548939   2.992   1.010   4.733 -0.5447 -1.6177 -1.7095
   68MOL   H56648940   3.124   1.102   4.654  0.6967 -0.4439 -0.7992
   68MOL   H56748941   3.121   0.807   4.695 -1.4150  0.5997  2.0262
   68MOL   H56848942   3.232   0.905   4.594 -0.3613  0.7017 -1.3538
   68MOL   H56948943   3.178   0.936   4.884  1.1808  1.9115  0.8924
   68MOL   H57048944   3.302   1.023   4.785 -0.9861  0.0655 -2.3639
   68MOL   H57148945   3.404   0.854   4.929  0.1133 -2.0272  1.8658
   68MOL   H57248946   3.441   0.836   4.758 -0.5083 -3.6304 -0.0051
   68MOL   H57348947   3.217   0.673   4.878  0.1948  2.0564  0.7792
   68MOL   H57448948   3.317   0.638   4.739  1.0931 -2.0797 -0.1943
   68MOL   H57548949   3.477   0.554   4.867 -0.7135 -0.7373 -0.2546
   68MOL   H57648950   3.051   1.334   4.330  0.6006  1.3533 -0.0725
   68MOL   H57748951   3.019   1.523   4.194  0.7261  0.8664  1.9338
   68MOL   C57848952   3.427   0.612   5.050  0.1084 -0.2089 -0.2106
   68MOL   O57948953   3.354   0.675   5.129 -0.5546 -0.0309  0.7023
   68MOL   C58048954   3.545   0.538   5.108  0.4500  0.0218  0.2886
   68MOL   C58148955   3.570   0.548   5.245 -0.1004 -0.1192  0.2188
   68MOL   C58248956   3.676   0.473   5.306  0.4674  0.1539  0.6539
   68MOL   C58348957   3.749   0.376   5.229 -0.4195 -0.2486 -0.7065
   68MOL   C58448958   3.855   0.301   5.292 -0.1806 -0.4142 -0.5881
   68MOL   O58548959   3.961   0.273   5.232  0.0663 -0.2744  0.6026
   68MOL   N58648960   3.823   0.267   5.419 -0.1394 -0.7844 -0.4652
   68MOL   C58748961   3.907   0.186   5.503  0.0656  0.1604 -1.0296
   68MOL   C58848962   3.827   0.054   5.542 -0.7659 -0.0604 -0.3535
   68MOL   C58948963   3.906   7.854   5.642 -0.5618 -0.3984 -0.3909
   68MOL   C59048964   3.838   7.715   5.663  0.3970 -0.0604 -0.0982
   68MOL   C59148965   3.852   7.638   5.798  0.5685  0.3104 -0.5119
   68MOL   C59248966   3.788   7.498   5.790  0.4898 -0.3285  0.2036
   68MOL   N59348967   3.759   7.451   5.920 -0.1669  0.3920 -0.2120
   68MOL   C59448968   3.733   0.371   5.088  0.2230  0.4288  0.4407
   68MOL   C59548969   3.631   0.452   5.031 -0.3548 -0.3703  0.3177
   68MOL   H59648970   3.514   0.618   5.305 -1.9665  1.7611 -3.5226
   68MOL   H59748971   3.693   0.484   5.412 -2.8400  1.4319  1.1080
   68MOL   H59848972   3.725   0.277   5.442  0.0210  1.3921 -0.6166
   68MOL   H59948973   3.997   0.158   5.449 -0.5082 -0.5465 -1.6378
   68MOL   H60048974   3.931   0.235   5.597  0.4985 -1.8314 -0.0676
   68MOL   H60148975   3.805   0.009   5.445  2.0177 -2.6165  0.1388
   68MOL   H60248976   3.728   0.068   5.584  0.4509  0.3455  2.5344
   68MOL   H60348977   4.006   7.835   5.602 -0.0937 -2.7254  1.7292
   68MOL   H60448978   3.938   0.021   5.732  0.8623 -0.1145 -1.0477
   68MOL   H60548979   3.875   7.649   5.584 -0.3346  0.1556 -0.6213
   68MOL   H60648980   3.731   7.735   5.657  0.2654 -1.1164 -1.7804
   68MOL   H60748981   3.822   7.696   5.885  0.8392 -0.3697  0.0355
   68MOL   H60848982   3.958   7.628   5.821  0.0185 -2.7093  0.9883
   68MOL   H60948983   3.701   7.501   5.724  1.4702 -1.4479 -1.1825
   68MOL   H61048984   3.853   7.422   5.745 -1.5998 -2.2927  0.3740
   68MOL   H61148985   3.767   7.517   5.996  0.3988  1.0861 -0.8692
   68MOL   H61248986   3.797   0.316   5.020 -0.9516 -2.2961  1.4786
   68MOL   H61348987   3.621   0.440   4.924 -1.7903 -2.0673  0.6077
   68MOL   C61448988   3.720   7.328   5.935 -0.7961 -0.6054 -0.1604
   68MOL   O61548989   3.700   7.249   5.843 -0.0994  0.5056 -0.0336
   68MOL   C61648990   3.688   7.292   6.069 -0.7240  0.3460  0.3108
   68MOL   C61748991   3.621   7.382   6.159  1.1036  0.2744  0.4618
   68MOL   C61848992   3.601   7.335   6.291 -0.1689 -0.0495 -0.4578
   68MOL   C61948993   3.644   7.209   6.338 -0.5638 -0.1502 -0.0115
   68MOL   C62048994   3.626   7.178   6.479 -0.0810  0.5585  0.5909
   68MOL   O62148995   3.713   7.146   6.559 -0.2495  0.3415  0.1361
   68MOL   N62248996   3.499   7.179   6.503  0.0805 -0.3721  0.4622
   68MOL   C62348997   3.439   7.188   6.633 -0.2941  0.4558  0.2114
   68MOL   C62448998   3.360   7.324   6.640 -0.4480  0.3327  0.6347
   68MOL   C62548999   3.250   7.321   6.750  0.1752  0.1047 -1.1998
   68MOL   C62649000   3.165   7.453   6.739  0.5021 -0.0987 -0.3459
   68MOL   C62749001   3.037   7.435   6.812 -0.4244 -0.3223 -0.1056
   68MOL   C62849002   2.953   7.569   6.799  0.2875  0.2590  0.0860
   68MOL   N62949003   2.888   7.577   6.660  0.0563  0.2267 -0.3222
   68MOL   C63049004   3.722   7.126   6.250  0.1671 -0.2605 -0.1288
   68MOL   C63149005   3.738   7.167   6.117  0.3596  0.3734  0.0219
   68MOL   H63249006   3.582   7.480   6.135  1.2044  0.1515 -0.2076
   68MOL   H63349007   3.553   7.405   6.357  1.8673  1.1940 -0.2663
   68MOL   H63449008   3.431   7.191   6.430  0.1670  0.0779  0.4539
   68MOL   H63549009   3.368   7.105   6.632 -1.2075  1.2141  0.7222
   68MOL   H63649010   3.506   7.167   6.716  0.7859  1.3771 -0.3985
   68MOL   H63749011   3.326   7.355   6.541 -0.5381 -0.5375  0.3944
   68MOL   H63849012   3.427   7.406   6.665  0.6022 -0.1534 -0.5552
   68MOL   H63949013   3.190   7.231   6.737  0.0243  0.2377 -1.4067
   68MOL   H64049014   3.293   7.308   6.850 -0.4686 -0.8807 -1.0417
   68MOL   H64149015   3.147   7.470   6.633 -2.1511 -0.0342  0.0670
   68MOL   H64249016   3.223   7.533   6.783  1.5699 -1.1403  0.1732
   68MOL   H64349017   3.054   7.436   6.920 -0.0231  1.0194 -0.1605
   68MOL   H64449018   2.969   7.354   6.788 -0.4254 -0.8038  1.4349
   68MOL   H64549019   2.885   7.557   6.883  1.3884 -0.0758  0.9484
   68MOL   H64649020   3.009   7.661   6.818  0.8457 -0.1393  0.4142
   68MOL   H64749021   2.948   7.589   6.580 -0.6340 -0.6947 -0.9901
   68MOL   H64849022   3.775   7.045   6.297 -1.7885  0.3652  3.3209
   68MOL   H64949023   3.782   7.111   6.035  0.3141  1.5475 -0.8304
   68MOL   C65049024   2.755   7.589   6.642  0.1082  0.0935 -0.8267
   68MOL   O65149025   2.681   7.622   6.739 -0.2389  0.0266 -0.4148
   68MOL   C65249026   2.715   7.577   6.496 -0.0509  0.4232 -0.7411
   68MOL   C65349027   2.652   7.686   6.433  0.0372 -0.3017 -0.7401
   68MOL   C65449028   2.603   7.671   6.301  0.4161  0.0593 -0.0180
   68MOL   C65549029   2.608   7.547   6.239 -0.3794 -0.2707  0.1315
   68MOL   C65649030   2.550   7.535   6.106 -0.4916 -0.8677 -0.0786
   68MOL   O65749031   2.566   7.624   6.020  0.2953 -0.1299 -0.3237
   68MOL   N65849032   2.473   7.429   6.091  0.4111  0.1231  0.0049
   68MOL   C65949033   2.406   7.381   5.974 -0.3018 -1.1011  0.2610
   68MOL   C66049034   2.262   7.353   6.004 -0.1510 -0.7480  0.1028
   68MOL   C66149035   2.239   7.273   6.131  0.1530  0.1090 -0.1843
   68MOL   C66249036   2.092   7.238   6.130 -0.7708  0.0104 -0.0480
   68MOL   C66349037   2.055   7.168   6.257 -0.2445 -0.2384 -0.4655
   68MOL   C66449038   1.913   7.116   6.256  0.4035  0.1790 -0.7306
   68MOL   N66549039   1.887   7.039   6.136 -0.1622 -0.4583  0.7729
   68MOL   C66649040   2.652   7.432   6.314 -0.2674 -0.1290 -0.1519
   68MOL   C66749041   2.715   7.451   6.436 -0.2459  0.3493  0.6397
   68MOL   H66849042   2.649   7.782   6.482 -0.9787  0.6932 -2.6972
   68MOL   H66949043   2.548   7.756   6.263 -1.7440 -0.7187  1.2858
   68MOL   H67049044   2.464   7.368   6.171  1.7075  0.1917  0.2183
   68MOL   H67149045   2.410   7.455   5.894  0.9693 -2.5447 -1.0355
   68MOL   H67249046   2.461   7.292   5.945  0.7001 -0.4581  0.1799
   68MOL   H67349047   2.236   7.293   5.917 -1.4930 -3.1070  2.0824
   68MOL   H67449048   2.208   7.447   6.004  1.5504  0.2514 -0.6273
   68MOL   H67549049   2.305   7.186   6.134  0.5722  0.4764  1.4900
   68MOL   H67649050   2.264   7.331   6.219 -0.1832 -0.4490  0.2803
   68MOL   H67749051   2.070   7.198   6.031 -0.8695  2.7163 -1.1573
   68MOL   H67849052   2.043   7.335   6.126 -0.2099  0.2420 -2.1773
   68MOL   H67949053   2.064   7.242   6.337  3.1643 -1.1624  0.0771
   68MOL   H68049054   2.121   7.083   6.272 -0.3775 -0.2412  0.1290
   68MOL   H68149055   1.895   7.055   6.344 -0.9973  1.7765  0.1220
   68MOL   H68249056   1.852   7.206   6.267  1.7415  1.0115 -0.0245
   68MOL   H68349057   1.955   7.044   6.061  0.2981 -2.5946  1.0279
   68MOL   H68449058   2.632   7.334   6.273  2.2641 -1.0160  0.6361
   68MOL   H68549059   2.744   7.360   6.486  0.1710  0.5112  0.6957
   68MOL   C68649060   1.771   6.975   6.103  0.3278 -0.5312  0.1793
   68MOL   O68749061   1.684   6.957   6.190 -0.1788 -0.2520 -0.0978
   68MOL   C68849062   1.752   6.927   5.959 -0.2622 -0.6770  0.2245
   68MOL   C68949063   1.844   6.945   5.852  0.4486 -0.6010 -0.3246
   68MOL   C69049064   1.811   6.898   5.722  0.3272  0.2431 -0.5446
   68MOL   C69149065   1.701   6.816   5.700  0.1371 -0.0790  0.6549
   68MOL   C69249066   1.678   6.755   5.562 -0.1782 -0.9984 -0.1240
   68MOL   O69349067   1.777   6.733   5.486  0.3541  0.0655  0.7027
   68MOL   N69449068   1.555   6.736   5.530  0.2001 -0.1279  0.2518
   68MOL   C69549069   1.511   6.651   5.418 -0.3638 -0.4293 -0.0693
   68MOL   C69649070   1.495   6.741   5.290 -0.3656  0.5905 -0.3108
   68MOL   C69749071   1.383   6.849   5.304  0.2281 -0.3838  0.1787
   68MOL   C69849072   1.365   6.935   5.175 -0.1172 -0.2131 -0.3539
   68MOL   C69949073   1.236   7.020   5.190 -0.2691  0.1591  0.8258
   68MOL   C70049074   1.225   7.150   5.105 -0.1262  0.2416  0.5049
   68MOL   N70149075   1.222   7.114   4.970 -0.2849 -0.9042  0.3430
   68MOL   C70249076   1.614   6.791   5.805 -0.1641 -0.0459  0.3117
   68MOL   C70349077   1.641   6.847   5.932  0.5540 -0.8033  0.6912
   68MOL   H70449078   1.937   6.994   5.878 -0.7414  0.9712  1.0348
   68MOL   H70549079   1.880   6.900   5.638  1.0047  0.0750  0.0006
   68MOL   H70649080   1.491   6.775   5.598 -0.0228 -0.8887  0.4798
   68MOL   H70749081   1.570   6.560   5.414 -1.6938 -1.3430  0.5419
   68MOL   H70849082   1.406   6.636   5.444 -0.4046  1.6051  1.0909
   68MOL   H70949083   1.462   6.673   5.212 -2.1306 -0.3907  1.2532
   68MOL   H71049084   1.595   6.781   5.272 -0.1027  0.3419  0.6000
   68MOL   H71149085   1.295   6.784   5.305 -0.0132 -0.0627  2.0643
   68MOL   H71249086   1.397   6.907   5.396  0.4817  0.7681 -0.5694
   68MOL   H71349087   1.348   6.874   5.087  1.8315  0.2238 -1.0635
   68MOL   H71449088   1.452   6.998   5.154 -0.6917  0.4727 -0.6795
   68MOL   H71549089   1.228   7.056   5.292 -0.4424 -0.1431  0.9193
   68MOL   H71649090   1.152   6.955   5.163 -0.1049  0.3471 -0.1656
   68MOL   H71749091   1.136   7.210   5.122  0.6064  2.2977 -2.5089
   68MOL   H71849092   1.315   7.210   5.123  1.6801 -1.5917 -2.0980
   68MOL   H71949093   1.280   7.177   4.918 -0.7841  0.5387  1.5016
   68MOL   H72049094   1.530   6.725   5.793 -0.2168  0.0157  0.3458
   68MOL   H72149095   1.575   6.815   6.012  1.0470  0.7279  1.7181
   68MOL   H72249096   1.254   7.018   4.960  0.7280 -0.4229 -1.1425
   69MOL     C149097   4.084   0.096   2.906  0.4364  0.0429 -0.5275
   69MOL     O249098   4.090   7.861   2.881 -0.2602  0.1805 -0.7500
   69MOL     C349099   3.995   0.194   2.833 -0.2268  0.0260  0.3471
   69MOL     C449100   3.987   0.329   2.877 -0.0974  0.3295  0.1638
   69MOL     C549101   3.917   0.423   2.803  0.2700  0.3857  0.2734
   69MOL     C649102   3.825   0.373   2.707  0.1582 -0.0637  0.2456
   69MOL     C749103   3.716   0.457   2.649 -0.4296  0.3334 -0.1065
   69MOL     O849104   3.742   0.572   2.620 -0.4256  0.7780  0.0911
   69MOL     N949105   3.592   0.407   2.637  0.1516  0.3192  0.2862
   69MOL    C1049106   3.478   0.487   2.601 -0.5079  0.0320  0.6267
   69MOL    C1149107   3.357   0.390   2.597  0.2408 -0.1906 -0.3000
   69MOL    C1249108   3.228   0.468   2.565 -0.1562 -0.4021  0.2160
   69MOL    C1349109   3.107   0.384   2.517  0.7234  0.4865 -0.4191
   69MOL    C1449110   3.132   0.310   2.384 -0.5672  0.3832 -0.1651
   69MOL    C1549111   3.006   0.244   2.323 -0.1373  0.0329 -0.2339
   69MOL    N1649112   2.928   0.330   2.231  0.4288 -0.7355 -0.9718
   69MOL    C1749113   3.829   0.236   2.658 -0.5329 -0.5964  0.6105
   69MOL    C1849114   3.929   0.154   2.714 -0.1464 -0.2289 -0.4741
   69MOL    H1949115   4.024   0.366   2.972  0.2438  0.5293 -0.0462
   69MOL    H2049116   3.918   0.527   2.829  0.6526  0.4005  0.2084
   69MOL    H2149117   3.577   0.308   2.654 -0.7044  0.7344  2.0273
   69MOL    H2249118   3.465   0.563   2.679  0.8258 -0.5781  1.4608
   69MOL    H2349119   3.493   0.534   2.504  1.9693  1.2651  1.5576
   69MOL    H2449120   3.361   0.331   2.688 -0.1127  1.0374  0.5161
   69MOL    H2549121   3.381   0.318   2.519  0.2970  0.5152 -0.9414
   69MOL    H2649122   3.201   0.510   2.662 -0.2683  1.5678 -0.6436
   69MOL    H2749123   3.235   0.557   2.502 -1.8710  0.2659  0.9386
   69MOL    H2849124   3.034   0.461   2.495  0.1486 -0.0816 -0.5133
   69MOL    H2949125   3.071   0.320   2.598  3.9547 -0.8663  0.0331
   69MOL    H3049126   3.206   0.234   2.409 -0.8183  0.0834 -0.3188
   69MOL    H3149127   3.178   0.380   2.314  2.7849 -0.4696  1.0861
   69MOL    H3249128   3.042   0.149   2.284  0.6474  0.6152 -0.9475
   69MOL    H3349129   2.943   0.209   2.405  0.7914 -0.1253  0.4169
   69MOL    H3449130   2.945   0.429   2.240 -1.6720 -0.5343  1.1454
   69MOL    H3549131   3.764   0.207   2.577 -1.6308  3.0047  0.1376
   69MOL    H3649132   3.944   0.053   2.678  2.3388 -0.4609  1.0562
   69MOL    H3749133   4.138   0.146   2.988  0.2802 -1.1470  0.3165
   69MOL    C3849134   2.860   0.291   2.123 -0.4469  0.7435  0.6338
   69MOL    O3949135   2.847   0.179   2.080 -0.1980  0.1633  0.5774
   69MOL    C4049136   2.778   0.403   2.058 -0.2844 -0.3770  0.5763
   69MOL    C4149137   2.726   0.385   1.928 -0.5590  0.1494 -0.0265
   69MOL    C4249138   2.642   0.479   1.863 -0.1493 -0.3957 -0.5630
   69MOL    C4349139   2.631   0.598   1.920  0.3218 -0.7345 -0.0362
   69MOL    C4449140   2.567   0.718   1.855 -0.1035  0.4535 -0.0231
   69MOL    O4549141   2.492   0.704   1.763  0.2134  0.0355 -0.0503
   69MOL    N4649142   2.603   0.845   1.888 -0.0752 -0.1333 -0.3088
   69MOL    C4749143   2.552   0.973   1.833 -0.2140 -0.2351  0.6064
   69MOL    C4849144   2.600   0.993   1.686 -0.2245  0.3580  0.4783
   69MOL    C4949145   2.538   1.124   1.629  0.1545  0.0809 -0.1837
   69MOL    C5049146   2.617   1.195   1.507 -0.1545 -0.8655 -0.1221
   69MOL    C5149147   2.568   1.337   1.480 -0.2488 -0.2896 -0.6147
   69MOL    C5249148   2.637   1.418   1.367  0.2299  0.6759 -0.0285
   69MOL    N5349149   2.585   1.371   1.243 -0.6225 -0.2989 -0.5109
   69MOL    C5449150   2.689   0.623   2.051  0.5086 -0.2174  0.3909
   69MOL    C5549151   2.752   0.523   2.120 -0.0586 -0.3005 -0.4834
   69MOL    H5649152   2.746   0.288   1.883  0.1898  0.2136  0.1534
   69MOL    H5749153   2.609   0.465   1.761  4.3209 -2.0497 -1.8703
   69MOL    H5849154   2.661   0.852   1.970 -0.6670  0.3712  0.0700
   69MOL    H5949155   2.444   0.975   1.841 -0.4627 -0.0005 -2.1531
   69MOL    H6049156   2.591   1.052   1.897  1.8760 -0.1247 -0.7234
   69MOL    H6149157   2.559   0.915   1.622  2.9575 -1.6600  0.7581
   69MOL    H6249158   2.708   1.008   1.675  0.1636 -0.3350  2.9967
   69MOL    H6349159   2.432   1.110   1.610  0.7393  0.6321 -4.3148
   69MOL    H6449160   2.535   1.200   1.708  0.9798  1.8647 -1.8179
   69MOL    H6549161   2.603   1.135   1.418  0.9866 -0.1831 -0.7748
   69MOL    H6649162   2.719   1.212   1.542  0.2493  1.2787 -2.2338
   69MOL    H6749163   2.583   1.387   1.575 -1.4751 -0.2606 -0.4210
   69MOL    H6849164   2.460   1.343   1.464 -0.7808 -1.4681  2.1601
   69MOL    H6949165   2.612   1.523   1.379 -3.5106 -0.2991  1.1807
   69MOL    H7049166   2.745   1.404   1.361  0.1097 -0.4702  0.3652
   69MOL    H7149167   2.508   1.306   1.248  0.4902 -1.5163  1.5939
   69MOL    H7249168   2.701   0.720   2.097  1.3528 -0.5455  0.8621
   69MOL    H7349169   2.788   0.543   2.220 -2.9322 -0.1169  0.5529
   69MOL    C7449170   2.643   1.413   1.127  0.4660  0.0062 -0.1701
   69MOL    O7549171   2.749   1.468   1.113 -0.3528  0.3109 -0.8732
   69MOL    C7649172   2.570   1.363   1.003  0.3092  0.8411  1.0074
   69MOL    C7749173   2.647   1.339   0.886 -0.3778 -0.1267  0.5587
   69MOL    C7849174   2.581   1.290   0.772  0.1388  0.7409 -0.0162
   69MOL    C7949175   2.447   1.245   0.774  0.0443  0.6391 -0.3681
   69MOL    C8049176   2.386   1.165   0.661  0.4858  0.5672  0.0041
   69MOL    O8149177   2.269   1.132   0.664  0.9276 -0.2274 -0.2921
   69MOL    N8249178   2.478   1.130   0.566 -0.0054 -0.2231  0.1867
   69MOL    C8349179   2.457   1.048   0.449 -0.2168  0.5466 -0.2112
   69MOL    C8449180   2.575   1.053   0.353  0.1374  0.4997  0.0006
   69MOL    C8549181   2.579   1.187   0.280 -0.3459 -0.0236 -0.5317
   69MOL    C8649182   2.673   1.180   0.165 -0.0625  0.5846  0.3108
   69MOL    C8749183   2.703   1.317   0.099  0.9586  0.2792 -0.9906
   69MOL    C8849184   2.771   1.319   7.849 -0.4848  0.2486 -0.4241
   69MOL    N8949185   2.873   1.210   7.832  0.4137 -0.1564  0.0305
   69MOL    C9049186   2.372   1.272   0.892  0.3446 -0.2381 -0.3437
   69MOL    C9149187   2.436   1.326   1.002  1.1538  0.5752  0.9181
   69MOL    H9249188   2.749   1.366   0.862 -1.0963  1.5779 -0.6990
   69MOL    H9349189   2.639   1.267   0.684  0.8593 -1.4459  0.9976
   69MOL    H9449190   2.570   1.160   0.593  0.3688 -0.8197 -0.4120
   69MOL    H9549191   2.448   0.943   0.477  1.7916  0.1851 -0.7851
   69MOL    H9649192   2.370   1.074   0.389 -1.3201 -1.0465  0.6653
   69MOL    H9749193   2.561   0.971   0.282 -1.1674 -1.6958  2.6688
   69MOL    H9849194   2.675   1.025   0.387 -0.0794 -2.8357 -1.8852
   69MOL    H9949195   2.482   1.214   0.237 -0.8121 -2.5587 -1.2004
   69MOL   H10049196   2.603   1.268   0.348  1.1529  0.8561 -2.0583
   69MOL   H10149197   2.633   1.116   0.087  2.2818 -0.4791 -0.0581
   69MOL   H10249198   2.768   1.136   0.196  0.6154  1.8150  0.0357
   69MOL   H10349199   2.771   1.367   0.167 -0.0845 -0.9020  0.9590
   69MOL   H10449200   2.623   1.390   0.107  0.7306 -0.0128 -0.6317
   69MOL   H10549201   2.695   1.294   7.774  0.8273 -1.3323 -1.2361
   69MOL   H10649202   2.810   1.420   7.834  0.5861 -0.1008  0.0066
   69MOL   H10749203   2.849   1.129   7.776  1.3936  1.1355 -2.3629
   69MOL   H10849204   2.268   1.244   0.895  0.3857 -0.2069  2.7388
   69MOL   H10949205   2.374   1.350   1.087  0.6517  0.6887  0.5223
   69MOL   C11049206   2.986   1.221   0.017 -0.2203  0.0264  0.1209
   69MOL   O11149207   3.029   1.326   0.062 -0.3090  0.6218  0.0702
   69MOL   C11249208   3.066   1.095   0.022 -0.4426 -0.9434 -0.0818
   69MOL   C11349209   3.137   1.076   0.141  0.6135  0.4822  0.1222
   69MOL   C11449210   3.216   0.963   0.162  0.0392 -0.1333 -0.1646
   69MOL   C11549211   3.214   0.864   0.064 -0.3274  0.0453  0.0186
   69MOL   C11649212   3.290   0.737   0.072  0.2387 -0.3835  0.2873
   69MOL   O11749213   3.340   0.675   7.863  0.0023 -0.1518  0.2610
   69MOL   N11849214   3.275   0.693   0.201 -0.0008 -0.1113 -0.0657
   69MOL   C11949215   3.319   0.565   0.256 -0.3957  0.2415 -0.5027
   69MOL   C12049216   3.225   0.460   0.201  0.6052  0.1880  0.9656
   69MOL   C12149217   3.254   0.313   0.251  0.1444 -0.0549  0.3729
   69MOL   C12249218   3.156   0.204   0.195 -0.1146 -0.0895 -0.3666
   69MOL   C12349219   3.188   0.067   0.259  0.3172 -0.0572  0.0926
   69MOL   C12449220   3.095   7.839   0.202 -0.4161 -0.0461  0.8379
   69MOL   N12549221   3.133   7.712   0.268  0.0718  0.2638 -0.2488
   69MOL   C12649222   3.147   0.881   7.828 -0.4546 -0.0979  0.0832
   69MOL   C12749223   3.067   0.996   7.809 -0.1064 -0.2098 -0.4015
   69MOL   H12849224   3.127   1.145   0.223  2.4565 -0.4208  1.1166
   69MOL   H12949225   3.272   0.953   0.254 -1.5175  1.9638  1.0603
   69MOL   H13049226   3.226   0.762   0.257  1.0687  1.0422 -0.5042
   69MOL   H13149227   3.414   0.534   0.213 -0.6679 -0.1439 -0.8257
   69MOL   H13249228   3.324   0.567   0.365 -2.0566  0.2237 -0.4045
   69MOL   H13349229   3.228   0.456   0.092  0.3221 -0.1780  0.9688
   69MOL   H13449230   3.124   0.482   0.234  0.0013  1.4282 -1.5981
   69MOL   H13549231   3.359   0.288   0.234 -0.0343  0.3433 -1.3168
   69MOL   H13649232   3.232   0.324   0.358 -1.0704 -1.2829  0.2576
   69MOL   H13749233   3.174   0.190   0.088  0.5323  0.1979 -0.2987
   69MOL   H13849234   3.049   0.212   0.215  0.0515  2.8625 -0.5082
   69MOL   H13949235   3.189   0.072   0.368  1.0112 -0.6035  0.1189
   69MOL   H14049236   3.293   0.046   0.237 -0.1270 -1.0159 -1.1788
   69MOL   H14149237   2.996   7.874   0.228 -0.0429  1.2635  0.5537
   69MOL   H14249238   3.108   7.824   0.095 -2.4078 -0.4987  0.6522
   69MOL   H14349239   3.074   7.681   0.343  0.2976  2.3837  0.8490
   69MOL   H14449240   3.158   0.811   7.747  3.6872 -1.0493  1.3460
   69MOL   H14549241   3.009   1.003   7.719  1.0894 -0.2703 -1.1959
   69MOL   C14649242   3.230   7.633   0.231 -0.0829  0.5066 -0.8672
   69MOL   O14749243   3.301   7.647   0.131  0.0291 -0.1444  0.1951
   69MOL   C14849244   3.269   7.521   0.326  0.1757  0.2734 -0.2580
   69MOL   C14949245   3.400   7.483   0.319  0.4350  0.1869 -0.6719
   69MOL   C15049246   3.439   7.368   0.384  0.1167 -0.1832 -0.4688
   69MOL   C15149247   3.350   7.306   0.474 -0.7733  0.2432  0.7613
   69MOL   C15249248   3.398   7.194   0.558  0.9376  0.0942  0.5820
   69MOL   O15349249   3.342   7.174   0.668  0.3556  0.3649 -0.4620
   69MOL   N15449250   3.502   7.126   0.519 -0.2414  0.5444  0.6293
   69MOL   C15549251   3.556   7.014   0.594  0.1325  0.0944  0.1353
   69MOL   C15649252   3.468   6.889   0.585  0.0164 -0.3414  0.1954
   69MOL   C15749253   3.448   6.843   0.443 -0.6082  0.6684  0.2959
   69MOL   C15849254   3.367   6.716   0.420  0.4519  0.5781 -0.2871
   69MOL   C15949255   3.238   6.688   0.502  0.1853  0.2643  0.2842
   69MOL   C16049256   3.171   6.552   0.459 -0.2265 -0.3221  0.4050
   69MOL   N16149257   3.040   6.527   0.514 -0.2930 -0.0940 -0.1267
   69MOL   C16249258   3.215   7.354   0.490  0.6485 -0.4383 -0.0053
   69MOL   C16349259   3.175   7.462   0.419 -0.5914 -0.8909  0.4522
   69MOL   H16449260   3.469   7.532   0.252  0.3813  1.3885  0.1223
   69MOL   H16549261   3.544   7.344   0.388  0.2344  0.3314 -0.4320
   69MOL   H16649262   3.557   7.163   0.442 -2.2026  1.4968 -0.3707
   69MOL   H16749263   3.648   6.994   0.538  1.0556  3.1785  0.4082
   69MOL   H16849264   3.584   7.028   0.699 -0.1336  1.0311  0.0907
   69MOL   H16949265   3.369   6.913   0.623 -0.2032  0.3703 -0.8034
   69MOL   H17049266   3.505   6.810   0.651  0.9450 -1.2214 -1.3553
   69MOL   H17149267   3.399   6.914   0.377 -0.1138 -0.2854 -1.1190
   69MOL   H17249268   3.544   6.825   0.394 -2.0703 -1.7991 -1.7737
   69MOL   H17349269   3.427   6.629   0.450  1.2764  0.7096 -1.5263
   69MOL   H17449270   3.351   6.695   0.315 -0.2987 -0.7348  0.0675
   69MOL   H17549271   3.169   6.772   0.508  0.8001  0.7215  1.0017
   69MOL   H17649272   3.272   6.676   0.604  0.3690 -1.6273  0.0211
   69MOL   H17749273   3.163   6.539   0.351  1.5398 -1.9728  0.4442
   69MOL   H17849274   3.227   6.465   0.493  2.6061  0.6737 -1.5462
   69MOL   H17949275   2.967   6.493   0.454  0.6554 -0.4299 -1.0987
   69MOL   H18049276   3.146   7.308   0.558  0.4689  0.0397  0.1360
   69MOL   H18149277   3.072   7.495   0.418  0.5934  3.1274  1.1902
   69MOL   C18249278   3.014   6.504   0.640 -0.4393 -0.2395 -0.3558
   69MOL   O18349279   3.096   6.502   0.730  0.1531  0.0468  0.0553
   69MOL   C18449280   2.873   6.455   0.659  0.2868 -0.1638  0.2844
   69MOL   C18549281   2.767   6.508   0.581 -0.1251  0.0742  0.2826
   69MOL   C18649282   2.633   6.460   0.595  0.0084 -0.3726 -0.0783
   69MOL   C18749283   2.606   6.367   0.693  0.0502  0.0531  0.7559
   69MOL   C18849284   2.465   6.312   0.715  0.0758 -0.1928 -0.5646
   69MOL   O18949285   2.446   6.196   0.750 -0.0932 -0.0903 -0.0766
   69MOL   N19049286   2.361   6.400   0.702 -0.4884  0.0566  0.8099
   69MOL   C19149287   2.229   6.380   0.761 -0.3094 -0.4855 -0.2328
   69MOL   C19249288   2.142   6.510   0.761 -0.6603  0.6339 -0.0776
   69MOL   C19349289   1.986   6.494   0.764 -0.0793 -0.4594 -0.0895
   69MOL   C19449290   1.933   6.422   0.888 -0.0797  0.0334  0.5734
   69MOL   C19549291   1.784   6.412   0.894 -0.7763  0.6712  0.3044
   69MOL   C19649292   1.741   6.297   0.802  0.6820  0.5020  0.0207
   69MOL   N19749293   1.598   6.299   0.789  0.3530 -0.4644 -0.3639
   69MOL   C19849294   2.705   6.312   0.777  0.0995 -0.3549 -0.3542
   69MOL   C19949295   2.839   6.357   0.760 -0.0058 -0.2393  0.0752
   69MOL   H20049296   2.790   6.579   0.503  3.2399  0.3075  1.4184
   69MOL   H20149297   2.556   6.500   0.532 -0.2880  1.1676  1.2266
   69MOL   H20249298   2.375   6.500   0.694  1.0660 -0.1937  0.3426
   69MOL   H20349299   2.176   6.304   0.704 -1.2661 -0.1772  0.2358
   69MOL   H20449300   2.232   6.342   0.863  1.6579  1.7656  0.5845
   69MOL   H20549301   2.154   6.567   0.669 -2.2545  1.9216  0.4957
   69MOL   H20649302   2.183   6.566   0.846  2.3261 -1.4470 -0.0561
   69MOL   H20749303   1.937   6.591   0.756  0.7879  0.1578  1.7244
   69MOL   H20849304   1.936   6.449   0.678 -0.2044  1.3519 -0.9725
   69MOL   H20949305   1.979   6.475   0.971 -1.2147  2.1622 -0.1092
   69MOL   H21049306   1.967   6.320   0.902  0.8920  0.1531 -0.7588
   69MOL   H21149307   1.748   6.508   0.856  2.7797  2.2432  0.7615
   69MOL   H21249308   1.740   6.391   0.992 -0.4476 -1.7638 -0.0424
   69MOL   H21349309   1.795   6.304   0.707 -0.0421 -0.1329 -0.4430
   69MOL   H21449310   1.782   6.202   0.836  1.0032  0.6884  0.1566
   69MOL   H21549311   1.555   6.234   0.853  0.5941  1.8716  2.2601
   69MOL   H21649312   2.688   6.246   0.861 -1.1203  0.5489  0.1306
   69MOL   H21749313   2.915   6.323   0.829  0.8062  1.4675  0.0726
   69MOL   C21849314   1.525   6.345   0.690  0.8651 -1.1006 -0.8183
   69MOL   O21949315   1.582   6.423   0.613 -0.1579  0.2931 -0.6629
   69MOL   C22049316   1.384   6.308   0.676  0.5233 -0.5437  0.2594
   69MOL   C22149317   1.337   6.182   0.717 -0.7054 -0.2428 -0.3088
   69MOL   C22249318   1.206   6.134   0.688 -0.1268 -0.1891  0.3689
   69MOL   C22349319   1.115   6.230   0.647  0.3054  0.0694  0.0924
   69MOL   C22449320   0.982   6.189   0.600 -0.7652 -1.0340  0.0757
   69MOL   O22549321   0.974   6.094   0.525 -0.7906 -0.7069 -0.4820
   69MOL   N22649322   0.882   6.274   0.629  0.0521  0.4468 -0.0153
   69MOL   C22749323   0.741   6.249   0.599  0.1317 -0.0927 -0.2183
   69MOL   C22849324   0.679   6.392   0.578 -0.1964 -0.3799  0.1605
   69MOL   C22949325   0.530   6.388   0.606 -0.5891 -0.1643 -0.0706
   69MOL   C23049326   0.475   6.531   0.575 -0.0889  0.4262 -0.3092
   69MOL   C23149327   0.528   6.656   0.655  0.0106  0.1356 -0.1564
   69MOL   C23249328   0.479   6.788   0.608 -0.5030  0.6860  0.0355
   69MOL   N23349329   0.330   6.792   0.598  0.0518 -0.0440  0.7189
   69MOL   C23449330   1.156   6.364   0.631  0.4080  0.5599 -0.3993
   69MOL   C23549331   1.294   6.403   0.629  0.3255  0.0305  0.0050
   69MOL   H23649332   1.408   6.116   0.764  0.4854  0.4678 -1.0784
   69MOL   H23749333   1.172   6.037   0.720 -0.6068 -0.0907  0.1577
   69MOL   H23849334   0.902   6.362   0.673  1.3555  0.4812 -0.6584
   69MOL   H23949335   0.743   6.190   0.507  0.7580 -2.0832  1.0508
   69MOL   H24049336   0.689   6.195   0.677 -3.5336  0.6503 -2.0319
   69MOL   H24149337   0.691   6.424   0.474 -0.6204  1.5254  0.6791
   69MOL   H24249338   0.738   6.459   0.641 -1.1167  0.1270  0.4933
   69MOL   H24349339   0.476   6.323   0.538 -0.2972 -0.0636 -0.3973
   69MOL   H24449340   0.507   6.365   0.710  2.3188 -0.7599  0.4685
   69MOL   H24549341   0.368   6.529   0.592 -0.0984  0.7119 -0.3324
   69MOL   H24649342   0.498   6.550   0.470  0.0935  0.1798 -0.3151
   69MOL   H24749343   0.637   6.658   0.662  0.0955 -1.5995 -0.8763
   69MOL   H24849344   0.501   6.657   0.761  0.9789  0.5568  0.0988
   69MOL   H24949345   0.508   6.871   0.672  0.5975  0.7866 -0.5698
   69MOL   H25049346   0.525   6.817   0.513 -0.7284 -2.6614 -1.1812
   69MOL   H25149347   0.285   6.788   0.508  2.2682  1.2317 -0.4802
   69MOL   H25249348   1.089   6.447   0.612 -0.1967  0.6099  1.7426
   69MOL   H25349349   1.326   6.501   0.598  1.5468  0.0893  1.4103
   69MOL   C25449350   0.246   6.793   0.700 -0.1291 -0.1440 -0.1479
   69MOL   O25549351   0.286   6.801   0.818  0.3565  0.4717 -0.2038
   69MOL   C25649352   0.096   6.788   0.669 -0.1180 -0.0548 -0.1502
   69MOL   C25749353   0.048   6.742   0.549 -0.1600  0.1535  0.7450
   69MOL   C25849354   7.799   6.736   0.522 -0.3844 -0.2714  0.0906
   69MOL   C25949355   7.708   6.782   0.621 -0.2222 -0.7311 -0.2641
   69MOL   C26049356   7.566   6.797   0.586  0.3040  0.5600  0.2356
   69MOL   O26149357   7.523   6.764   0.479 -0.1587  0.3084 -0.2611
   69MOL   N26249358   7.494   6.860   0.680 -0.1060  0.0077 -0.2525
   69MOL   C26349359   7.351   6.875   0.678  0.2173  0.6829  0.3374
   69MOL   C26449360   7.288   6.756   0.749  0.1370 -0.1461  0.3553
   69MOL   C26549361   7.140   6.750   0.717 -0.1250 -0.1364  0.2791
   69MOL   C26649362   7.061   6.654   0.807  0.4407 -0.1108 -0.1576
   69MOL   C26749363   6.912   6.652   0.771  0.1090 -0.0369 -0.9956
   69MOL   C26849364   6.829   6.604   0.886 -0.1168  0.4805 -0.1922
   69MOL   N26949365   6.691   6.589   0.856 -0.4598 -0.3954  0.2314
   69MOL   C27049366   7.763   6.834   0.742  0.3285 -0.6979 -0.4106
   69MOL   C27149367   0.013   6.840   0.767 -0.0513 -0.1641 -0.1543
   69MOL   H27249368   0.121   6.710   0.477 -0.0266  0.6203  0.6715
   69MOL   H27349369   7.755   6.699   0.431 -2.9720 -0.9037  1.5578
   69MOL   H27449370   7.542   6.908   0.755 -1.5449  0.5649  0.3198
   69MOL   H27549371   7.329   6.974   0.717 -1.1996  0.2382  0.6880
   69MOL   H27649372   7.312   6.885   0.577  0.3572 -1.5306  0.0474
   69MOL   H27749373   7.294   6.761   0.857 -1.3795  1.2727  0.3914
   69MOL   H27849374   7.330   6.662   0.712 -0.3885 -0.3312  0.2352
   69MOL   H27949375   7.100   6.852   0.720  0.5892  0.1867 -0.8951
   69MOL   H28049376   7.124   6.721   0.613  0.0339  0.5384  0.0643
   69MOL   H28149377   7.069   6.699   0.906 -0.0205 -1.4451  0.5037
   69MOL   H28249378   7.106   6.556   0.817  0.2605  0.0180  2.3655
   69MOL   H28349379   6.899   6.582   0.688 -0.1828 -0.4070 -0.6432
   69MOL   H28449380   6.895   6.755   0.740  1.1967  0.8483  1.2314
   69MOL   H28549381   6.874   6.517   0.934  1.0381  1.2835  0.2221
   69MOL   H28649382   6.835   6.679   0.965  0.3441  1.8589 -1.5067
   69MOL   H28749383   6.649   6.588   0.764 -2.2302  0.5353  1.0074
   69MOL   H28849384   7.701   6.883   0.816 -0.8420 -0.3487 -1.6130
   69MOL   H28949385   0.045   6.903   0.849 -2.5058  1.2685 -0.2431
   69MOL   C29049386   6.597   6.585   0.948  0.1039 -0.3661 -0.2659
   69MOL   O29149387   6.613   6.570   1.066 -0.1526 -0.2116 -0.7665
   69MOL   C29249388   6.455   6.603   0.898 -0.7619 -0.4278 -0.0942
   69MOL   C29349389   6.427   6.642   0.765 -0.5663 -0.1994  0.0515
   69MOL   C29449390   6.299   6.670   0.716 -0.4443 -0.4645  0.1630
   69MOL   C29549391   6.188   6.648   0.804  0.1781 -0.0654  0.0622
   69MOL   C29649392   6.047   6.681   0.756  0.0255  0.0680 -0.1830
   69MOL   O29749393   6.023   6.744   0.654 -0.0026  0.2194 -0.2481
   69MOL   N29849394   5.945   6.641   0.829  0.4603  0.3247 -0.4437
   69MOL   C29949395   5.810   6.697   0.844 -0.1663 -0.9193  0.2578
   69MOL   C30049396   5.820   6.837   0.908  0.6211 -0.6601  0.0011
   69MOL   C30149397   5.892   6.835   1.045  0.0459 -0.1837 -0.3813
   69MOL   C30249398   5.896   6.977   1.103 -0.8160 -0.1047  0.5690
   69MOL   C30349399   5.932   6.982   1.255 -0.0957 -0.6780  0.3189
   69MOL   C30449400   5.975   7.118   1.302  0.3979  0.1393  0.3467
   69MOL   N30549401   6.105   7.165   1.251 -0.1614  0.1896  0.4145
   69MOL   C30649402   6.215   6.604   0.938  0.4661  0.5567  0.0007
   69MOL   C30749403   6.347   6.582   0.989  0.4138 -0.5990 -0.3914
   69MOL   H30849404   6.509   6.663   0.697 -0.0634 -0.1081  0.6873
   69MOL   H30949405   6.288   6.693   0.611 -1.5211 -1.9195 -0.0476
   69MOL   H31049406   5.974   6.585   0.908 -2.0674  1.2037  1.1604
   69MOL   H31149407   5.752   6.685   0.752  0.8393 -0.1206 -0.5007
   69MOL   H31249408   5.749   6.637   0.911 -0.3478 -0.0267  0.8983
   69MOL   H31349409   5.716   6.868   0.925  1.0893  0.7905  0.2919
   69MOL   H31449410   5.866   6.896   0.829 -0.0255  0.3033  0.3364
   69MOL   H31549411   5.841   6.765   1.112 -1.6292  1.2732 -0.1078
   69MOL   H31649412   5.992   6.793   1.031  1.4477  2.8272  0.2764
   69MOL   H31749413   5.803   7.029   1.083 -0.7012 -0.2985 -0.5031
   69MOL   H31849414   5.972   7.032   1.047  1.2829 -2.9107  0.5072
   69MOL   H31949415   6.017   6.915   1.272  1.3494  0.5968 -1.7455
   69MOL   H32049416   5.848   6.945   1.314 -2.1467  3.0657 -0.0994
   69MOL   H32149417   5.890   7.186   1.286  1.1211  0.7366 -1.0128
   69MOL   H32249418   5.984   7.132   1.410 -1.6505  0.7757  0.4640
   69MOL   H32349419   6.175   7.094   1.235 -1.1937 -0.5506 -0.8223
   69MOL   H32449420   6.130   6.605   1.004  0.8234 -0.9145  0.5011
   69MOL   H32549421   6.373   6.559   1.091  2.1278  0.3625 -0.5884
   69MOL   C32649422   6.147   7.293   1.255  0.0425  0.9591 -0.1431
   69MOL   O32749423   6.069   7.388   1.268 -0.6485  1.1016 -0.1516
   69MOL   C32849424   6.295   7.325   1.243  0.0991 -0.1536 -0.5023
   69MOL   C32949425   6.344   7.460   1.226  0.9064  0.0846  0.0002
   69MOL   C33049426   6.484   7.474   1.209 -0.5100  0.2485 -0.4218
   69MOL   C33149427   6.573   7.369   1.224 -0.0010  0.4404  0.2700
   69MOL   C33249428   6.718   7.383   1.207 -0.1052  0.1805 -0.0716
   69MOL   O33349429   6.771   7.491   1.228  1.1982 -0.5608 -0.0506
   69MOL   N33449430   6.786   7.272   1.169 -0.0732 -0.0369  0.1775
   69MOL   C33549431   6.931   7.257   1.165  0.3238 -0.2848 -0.2496
   69MOL   C33649432   6.948   7.110   1.145  0.4780 -0.0109  0.0096
   69MOL   C33749433   7.093   7.074   1.134 -0.0109  0.3056 -0.3157
   69MOL   C33849434   7.163   7.125   1.005  0.3028  0.3373  0.3456
   69MOL   C33949435   7.309   7.103   1.017  0.2404  0.6808  0.3886
   69MOL   C34049436   7.390   7.197   0.921 -0.1473  0.5488  0.3799
   69MOL   N34149437   7.537   7.193   0.936  0.1416 -0.3195  0.5588
   69MOL   C34249438   6.518   7.240   1.248  0.2958  0.1330  0.2683
   69MOL   C34349439   6.381   7.217   1.254  0.4240  0.3081  0.0558
   69MOL   H34449440   6.269   7.536   1.211 -1.3803 -2.1349 -0.1352
   69MOL   H34549441   6.528   7.571   1.188  0.7902  0.4639  2.9293
   69MOL   H34649442   6.737   7.185   1.153 -1.7290  1.1663 -1.4757
   69MOL   H34749443   6.964   7.314   1.078  3.6600 -2.7453 -0.6858
   69MOL   H34849444   6.984   7.297   1.251 -0.0580  0.3504 -0.3058
   69MOL   H34949445   6.891   7.076   1.059 -2.1374 -1.9486  2.4408
   69MOL   H35049446   6.912   7.040   1.221 -1.3691 -0.9683 -1.7252
   69MOL   H35149447   7.147   7.108   1.222  0.4819 -1.5589  0.1251
   69MOL   H35249448   7.105   6.966   1.144  0.2400  0.2784 -0.8861
   69MOL   H35349449   7.139   7.231   0.997 -3.2066 -0.3097  1.3085
   69MOL   H35449450   7.126   7.086   0.910 -1.0339 -1.8305  1.6951
   69MOL   H35549451   7.340   7.000   1.002 -2.6850 -0.2971  0.7095
   69MOL   H35649452   7.334   7.106   1.123 -0.4953  1.6259  0.5493
   69MOL   H35749453   7.381   7.173   0.815 -1.4780 -1.4280  0.8973
   69MOL   H35849454   7.345   7.296   0.924  0.3770  0.8214 -0.4889
   69MOL   H35949455   7.575   7.132   1.007  1.0457 -0.9376 -0.4345
   69MOL   H36049456   6.576   7.150   1.260  1.6078  0.5653 -2.4603
   69MOL   H36149457   6.362   7.112   1.271  2.0697  0.1604  1.1186
   69MOL   C36249458   7.625   7.271   0.880 -0.2146 -0.7388 -0.8339
   69MOL   O36349459   7.589   7.349   0.792 -0.0371  0.1854  0.1119
   69MOL   C36449460   7.766   7.247   0.908  0.2893  0.6564 -0.9849
   69MOL   C36549461   7.850   7.208   0.803  0.4383 -0.0484 -0.2647
   69MOL   C36649462   0.103   7.195   0.820  0.1199  0.9716 -0.5435
   69MOL   C36749463   0.156   7.200   0.950  0.0935  0.0107  0.0345
   69MOL   C36849464   0.300   7.185   0.979  0.0108  0.3236  0.6504
   69MOL   O36949465   0.339   7.143   1.084 -0.0763  0.3374 -0.6051
   69MOL   N37049466   0.387   7.233   0.891  0.5784  0.3010 -0.9759
   69MOL   C37149467   0.529   7.220   0.907 -0.1795  0.3851  0.4529
   69MOL   C37249468   0.588   7.094   0.838 -0.4241 -0.4634  0.1658
   69MOL   C37349469   0.736   7.075   0.852 -0.3365 -0.0820  0.5498
   69MOL   C37449470   0.776   6.929   0.815  0.8834 -0.5857  0.5258
   69MOL   C37549471   0.922   6.911   0.846  0.7484  0.2119 -0.3746
   69MOL   C37649472   0.976   6.768   0.852  0.5584  0.0610  0.1970
   69MOL   N37749473   0.881   6.675   0.907  0.0852 -0.2681 -0.8351
   69MOL   C37849474   0.067   7.220   1.061  0.3925  0.5228 -0.4793
   69MOL   C37949475   7.817   7.246   1.040  0.4134 -0.0323  0.2191
   69MOL   H38049476   7.821   7.194   0.700  2.1012  0.7983 -0.8589
   69MOL   H38149477   0.169   7.174   0.737  0.9269  2.0272 -0.1790
   69MOL   H38249478   0.348   7.278   0.809 -1.6740  1.9354  0.9273
   69MOL   H38349479   0.575   7.307   0.859  1.1105 -1.0839 -1.0165
   69MOL   H38449480   0.560   7.232   1.011 -0.7986 -1.4244  0.8512
   69MOL   H38549481   0.571   7.097   0.730  1.0093  0.6570 -0.0342
   69MOL   H38649482   0.532   7.011   0.881  1.4755 -1.5611  0.5939
   69MOL   H38749483   0.794   7.145   0.792 -2.3150  0.4628 -0.7659
   69MOL   H38849484   0.760   7.093   0.957 -1.0358  1.6233  0.4185
   69MOL   H38949485   0.770   6.907   0.709  3.8721  0.9462 -0.0277
   69MOL   H39049486   0.717   6.857   0.871 -0.3312 -0.8145 -1.0267
   69MOL   H39149487   0.947   6.959   0.941 -1.3595 -0.5568  0.6227
   69MOL   H39249488   0.980   6.969   0.775 -0.9845  1.3608 -0.9086
   69MOL   H39349489   1.007   6.740   0.751 -0.3101 -0.9748  0.2141
   69MOL   H39449490   1.069   6.776   0.909  0.6323  1.7069 -0.1494
   69MOL   H39549491   0.806   6.715   0.963 -0.7646  0.7824 -2.6663
   69MOL   H39649492   0.102   7.238   1.161 -0.0965  0.8863 -0.3752
   69MOL   H39749493   7.759   7.268   1.129  2.6762  1.6269  1.3208
   69MOL   C39849494   0.863   6.542   0.896  0.7545  0.3082 -0.8634
   69MOL   O39949495   0.945   6.477   0.840  0.0140 -0.3220 -0.1308
   69MOL   C40049496   0.733   6.489   0.950  0.6042  0.6796 -1.1475
   69MOL   C40149497   0.629   6.576   0.985  0.3843 -0.7804 -0.2771
   69MOL   C40249498   0.499   6.535   1.011 -0.0517  0.3548 -0.2224
   69MOL   C40349499   0.473   6.395   1.025  0.5571 -0.0998 -0.2917
   69MOL   C40449500   0.343   6.342   1.068 -0.1543 -0.4963  0.3035
   69MOL   O40549501   0.286   6.244   1.016  0.1103 -0.4430 -0.1551
   69MOL   N40649502   0.286   6.403   1.178  0.0462 -0.8633 -0.3519
   69MOL   C40749503   0.157   6.375   1.229 -0.2599 -0.1169  0.3104
   69MOL   C40849504   0.106   6.497   1.312  0.7592  0.2713  0.8159
   69MOL   C40949505   7.873   6.475   1.402 -0.3678  0.1017 -0.0599
   69MOL   C41049506   0.024   6.386   1.528 -0.2786  0.9643 -0.7089
   69MOL   C41149507   7.807   6.392   1.642  0.7404 -0.1407  0.4076
   69MOL   C41249508   7.667   6.356   1.606 -0.0766 -0.4045  0.2163
   69MOL   N41349509   7.658   6.223   1.543  0.1593 -0.4961  0.0256
   69MOL   C41449510   0.576   6.307   0.989 -0.7376  0.0331 -0.8586
   69MOL   C41549511   0.704   6.349   0.949  0.5875  0.1807 -0.5765
   69MOL   H41649512   0.641   6.684   0.993 -0.1967 -0.6906 -0.6040
   69MOL   H41749513   0.423   6.600   1.051  2.1769  3.0612 -0.1666
   69MOL   H41849514   0.337   6.470   1.235  0.3437 -1.3686 -0.0198
   69MOL   H41949515   0.079   6.346   1.158 -0.1153 -0.0772  0.1359
   69MOL   H42049516   0.167   6.288   1.293 -1.1665 -0.4286  0.0423
   69MOL   H42149517   0.086   6.578   1.242 -0.6477 -0.7267  0.0361
   69MOL   H42249518   0.188   6.536   1.372  1.3900 -0.1556  0.2378
   69MOL   H42349519   7.843   6.573   1.437  0.9943  0.1542  1.0276
   69MOL   H42449520   7.797   6.428   1.340 -2.4187 -0.4192  2.7810
   69MOL   H42549521   0.123   6.417   1.561 -1.3411  2.6224  0.9870
   69MOL   H42649522   0.038   6.282   1.497  1.8178  0.7021  0.9993
   69MOL   H42749523   7.797   6.499   1.661 -0.9679 -0.2662  0.3143
   69MOL   H42849524   7.850   6.353   1.734  0.7226 -1.0322  0.0339
   69MOL   H42949525   7.601   6.352   1.693 -1.8775 -0.5629 -1.1278
   69MOL   H43049526   7.620   6.430   1.542 -1.3050  0.4596  2.0803
   69MOL   H43149527   7.743   6.168   1.549  1.1779  1.1683  1.2316
   69MOL   H43249528   0.562   6.200   0.991  1.8218 -0.3241  1.0744
   69MOL   H43349529   0.771   6.280   0.900  3.3038  3.8633 -2.2876
   69MOL   C43449530   7.551   6.159   1.493 -0.1428  0.5828  0.2990
   69MOL   O43549531   7.440   6.206   1.489 -0.0288 -0.1562  0.2965
   69MOL   C43649532   7.575   6.020   1.438 -0.9281 -0.2875 -0.2047
   69MOL   C43749533   7.707   5.979   1.408  0.1859  0.0802 -0.0488
   69MOL   C43849534   7.739   5.846   1.366 -0.0525  0.0232  0.0656
   69MOL   C43949535   7.629   5.764   1.322 -0.1204  0.7753  0.6473
   69MOL   C44049536   7.662   5.620   1.275 -0.0698 -0.2954 -0.6183
   69MOL   O44149537   7.578   5.530   1.293  0.1678  0.1088  0.1761
   69MOL   N44249538   7.783   5.593   1.213  0.2185 -0.1524 -0.5732
   69MOL   C44349539   7.827   5.464   1.157  0.1253 -1.0754 -0.6576
   69MOL   C44449540   7.857   5.481   1.009 -0.8034 -0.0311  0.8218
   69MOL   C44549541   0.072   5.378   0.960 -0.0120 -0.0408 -0.3360
   69MOL   C44649542   0.167   5.436   0.843 -0.6551  0.0360 -0.6045
   69MOL   C44749543   0.286   5.356   0.815  0.8635  0.0872  0.4376
   69MOL   C44849544   0.399   5.354   0.927  0.4509  0.3747  0.0389
   69MOL   N44949545   0.517   5.278   0.887 -0.5324  1.0973  0.1944
   69MOL   C45049546   7.491   5.801   1.348 -0.4544 -0.2820 -0.4698
   69MOL   C45149547   7.466   5.929   1.409 -0.3522 -0.9990 -0.1437
   69MOL   H45249548   7.790   6.042   1.435  0.5826  0.6807 -2.6102
   69MOL   H45349549   7.839   5.806   1.353 -0.8664 -1.9171 -0.2684
   69MOL   H45449550   7.845   5.672   1.208 -1.4558  1.2060 -0.5514
   69MOL   H45549551   0.030   5.440   1.215  0.4835 -0.7245 -1.0573
   69MOL   H45649552   7.753   5.385   1.168  1.6468 -2.4834 -0.2989
   69MOL   H45749553   0.023   5.577   1.000  0.1730 -0.4535  1.7637
   69MOL   H45849554   7.773   5.496   0.941 -1.0823 -0.5738  1.0502
   69MOL   H45949555   0.152   5.345   1.027  0.3603  0.5854 -0.4643
   69MOL   H46049556   0.022   5.289   0.922 -0.0677  0.4987 -1.5565
   69MOL   H46149557   0.201   5.536   0.869  0.0581  0.2393 -2.2319
   69MOL   H46249558   0.099   5.447   0.758 -1.3792  0.3419  0.0067
   69MOL   H46349559   0.330   5.387   0.720  1.0016 -1.3206  0.0357
   69MOL   H46449560   0.260   5.254   0.786  1.1502  0.3197 -0.6853
   69MOL   H46549561   0.427   5.455   0.955 -2.0069  1.5237 -1.4315
   69MOL   H46649562   0.359   5.318   1.021 -0.8155 -1.0692 -1.0176
   69MOL   H46749563   0.529   5.229   0.799  1.0338  0.8219  0.5463
   69MOL   H46849564   7.418   5.723   1.334 -0.0603 -0.3379 -2.3551
   69MOL   H46949565   7.364   5.963   1.420 -0.0422 -0.3186  0.6341
   69MOL   C47049566   0.626   5.271   0.966  0.3482 -0.3098  0.2560
   69MOL   O47149567   0.631   5.331   1.075  0.0804  0.0577 -0.2901
   69MOL   C47249568   0.744   5.187   0.926 -0.6123 -0.5294 -0.1005
   69MOL   C47349569   0.788   5.166   0.792  0.9711 -0.5330  0.6858
   69MOL   C47449570   0.906   5.098   0.755 -0.2875 -0.5948  0.1389
   69MOL   C47549571   0.983   5.057   0.865 -0.8449  0.3769 -0.0356
   69MOL   C47649572   1.097   4.962   0.841 -0.7360  0.6732 -0.1543
   69MOL   O47749573   1.093   4.848   0.889  0.1027  0.1183 -0.5543
   69MOL   N47849574   1.202   5.015   0.779  0.3455 -0.0377 -0.6047
   69MOL   C47949575   1.321   4.939   0.740 -0.7934 -0.9944 -0.2417
   69MOL   C48049576   1.431   4.952   0.846 -0.3823  0.6060 -0.6151
   69MOL   C48149577   1.395   4.903   0.986  0.2960 -0.5690  1.1997
   69MOL   C48249578   1.511   4.877   1.074  0.2906  0.0476  0.4500
   69MOL   C48349579   1.473   4.806   1.208  0.0272  0.2028  0.8630
   69MOL   C48449580   1.574   4.807   1.326 -0.0304  0.4685  0.5097
   69MOL   N48549581   1.525   4.752   1.455  0.3310  0.5021  0.6055
   69MOL   C48649582   0.947   5.080   0.996 -0.0107  0.5498  0.3938
   69MOL   C48749583   0.826   5.141   1.027  0.2964  0.5046 -0.3872
   69MOL   H48849584   0.723   5.195   0.710  0.5051  1.7685  1.8160
   69MOL   H48949585   0.928   5.074   0.652  0.4931 -3.1879  0.8923
   69MOL   H49049586   1.206   5.112   0.751  1.3413  0.4329  1.1054
   69MOL   H49149587   1.283   4.840   0.716 -0.5127 -1.0662 -0.3976
   69MOL   H49249588   1.364   4.977   0.647 -0.3971 -0.3245  0.2078
   69MOL   H49349589   1.458   5.056   0.832  1.6291  0.2560  0.5061
   69MOL   H49449590   1.514   4.896   0.803  0.5517  0.8654  0.8389
   69MOL   H49549591   1.317   4.972   1.020 -1.1232 -0.4322 -2.1625
   69MOL   H49649592   1.337   4.811   0.976 -0.1427 -0.2622  0.8934
   69MOL   H49749593   1.562   4.969   1.103  1.4301 -0.7307  0.9685
   69MOL   H49849594   1.589   4.820   1.023  1.8384  1.2050  1.4446
   69MOL   H49949595   1.442   4.705   1.182  0.6070 -0.1691  1.5961
   69MOL   H50049596   1.386   4.857   1.248  0.1906  1.0959  0.1088
   69MOL   H50149597   1.666   4.754   1.300 -0.3706 -0.0789  0.4273
   69MOL   H50249598   1.607   4.910   1.338  3.4568 -0.5614  0.4611
   69MOL   H50349599   1.440   4.792   1.492 -0.2480  1.1782 -1.3727
   69MOL   H50449600   1.003   5.034   1.077 -0.7728  1.4479  1.4394
   69MOL   H50549601   0.796   5.160   1.129 -0.6863  1.2874 -0.8098
   69MOL   C50649602   1.572   4.641   1.515 -0.3771 -0.2172 -0.9086
   69MOL   O50749603   1.658   4.576   1.460 -0.2914  0.0096 -0.4739
   69MOL   C50849604   1.496   4.606   1.643 -0.1582  0.8612 -0.3998
   69MOL   C50949605   1.445   4.706   1.721  0.3391 -0.1151 -1.0196
   69MOL   C51049606   1.374   4.678   1.840 -0.2849 -0.0997  0.5128
   69MOL   C51149607   1.349   4.545   1.883 -0.2779  0.9236  0.4898
   69MOL   C51249608   1.275   4.520   2.011 -0.6258 -0.7896  0.4080
   69MOL   O51349609   1.274   4.407   2.056 -0.1546  0.0168 -0.3231
   69MOL   N51449610   1.227   4.623   2.079 -0.5603  0.4134 -0.8480
   69MOL   C51549611   1.168   4.615   2.217 -0.9710 -0.1320  0.1400
   69MOL   C51649612   1.032   4.548   2.213 -0.0803  0.1381 -0.5158
   69MOL   C51749613   0.952   4.578   2.346  0.2812 -0.2269  0.2472
   69MOL   C51849614   0.875   4.710   2.336 -0.6380  0.1085  0.2758
   69MOL   C51949615   0.796   4.735   2.471 -0.2933  0.0337 -0.6965
   69MOL   C52049616   0.690   4.842   2.450 -0.3938 -0.9415 -0.9210
   69MOL   N52149617   0.622   4.888   2.572  0.9080  0.6345  0.3126
   69MOL   C52249618   1.389   4.438   1.797  0.0718 -0.6814 -0.1582
   69MOL   C52349619   1.473   4.469   1.681  0.4846  0.0029  0.3399
   69MOL   H52449620   1.450   4.810   1.691 -0.4100 -0.5997 -2.8911
   69MOL   H52549621   1.348   4.770   1.891 -0.2634  0.3105 -0.2220
   69MOL   H52649622   1.238   4.716   2.041  2.2596  0.7086  0.5370
   69MOL   H52749623   1.235   4.581   2.296 -0.5922  0.3841  0.0407
   69MOL   H52849624   1.163   4.722   2.234  1.1486 -0.0265  0.2677
   69MOL   H52949625   1.038   4.439   2.212 -1.2119  0.0738 -1.0605
   69MOL   H53049626   0.976   4.576   2.124 -1.9563  0.1151  0.6264
   69MOL   H53149627   0.885   4.497   2.374  0.8329 -1.0695 -0.8287
   69MOL   H53249628   1.020   4.589   2.431  1.8808 -1.8785 -0.7684
   69MOL   H53349629   0.808   4.712   2.250 -0.0991  0.0051 -0.1437
   69MOL   H53449630   0.938   4.797   2.318 -0.6490 -0.2364 -1.4872
   69MOL   H53549631   0.869   4.766   2.545 -1.0855  2.8813 -1.0492
   69MOL   H53649632   0.753   4.642   2.509  1.8126 -0.3464  0.8260
   69MOL   H53749633   0.746   4.921   2.399 -0.9235  0.0323 -0.0147
   69MOL   H53849634   0.616   4.805   2.379 -0.9366 -2.0928  0.2314
   69MOL   H53949635   0.667   4.965   2.620  1.6121  0.5132 -0.1489
   69MOL   H54049636   1.357   4.336   1.812  0.1412 -0.2944  2.8535
   69MOL   H54149637   1.516   4.397   1.613  2.5749  0.8840  0.6765
   69MOL   C54249638   0.496   4.847   2.609 -0.0186 -0.4736 -0.1488
   69MOL   O54349639   0.436   4.756   2.555  0.0527  0.7680  0.0621
   69MOL   C54449640   0.426   4.917   2.720 -0.1709  0.0944 -0.3092
   69MOL   C54549641   0.288   4.945   2.704 -0.0115 -0.2451  0.1044
   69MOL   C54649642   0.213   5.023   2.796 -0.1494  0.3959 -0.1032
   69MOL   C54749643   0.280   5.047   2.922  0.7281  0.8990  0.0398
   69MOL   C54849644   0.199   5.099   3.035  0.0462  0.6130  0.0956
   69MOL   O54949645   0.220   5.066   3.155 -0.0862 -0.4341 -0.5837
   69MOL   N55049646   0.102   5.179   3.001  0.5065  0.6371 -0.9186
   69MOL   C55149647   0.009   5.237   3.106  0.0056 -0.2581 -0.2862
   69MOL   C55249648   7.783   5.132   3.144 -0.2177 -0.3340  0.5793
   69MOL   C55349649   7.693   5.113   3.018  0.3732  0.5068 -0.0416
   69MOL   C55449650   7.562   5.038   3.042  0.7114 -0.5691  0.2069
   69MOL   C55549651   7.486   5.015   2.911 -0.2894  0.6401 -0.1399
   69MOL   C55649652   7.392   4.891   2.926  0.3704  0.2645  0.2832
   69MOL   N55749653   7.325   4.878   2.795  0.7739  0.1068 -0.2263
   69MOL   C55849654   0.412   5.005   2.940  0.1076  0.2897  0.0503
   69MOL   C55949655   0.491   4.935   2.842  0.6168 -0.0887 -0.3136
   69MOL   H56049656   0.241   4.919   2.610 -0.9811 -0.2594  0.5798
   69MOL   H56149657   0.111   5.054   2.777 -0.6571 -1.0812  0.1502
   69MOL   H56249658   0.087   5.219   2.909 -2.6262  1.7900  0.0495
   69MOL   H56349659   0.059   5.260   3.200 -0.8669  2.0484 -0.3476
   69MOL   H56449660   7.853   5.330   3.068  2.1888  0.7299 -0.3269
   69MOL   H56549661   7.719   5.185   3.215  2.7623  2.1585  1.4736
   69MOL   H56649662   7.817   5.035   3.180  0.2676 -0.1466  0.6212
   69MOL   H56749663   7.676   5.214   2.980 -0.1474  0.8432  1.0679
   69MOL   H56849664   7.745   5.059   2.939  2.3750  1.4337  0.6013
   69MOL   H56949665   7.490   5.077   3.114  0.2217 -0.4719 -0.3253
   69MOL   H57049666   7.575   4.935   3.076 -2.4749 -0.5401  1.7713
   69MOL   H57149667   7.549   4.989   2.826 -2.1475 -0.4111 -1.2439
   69MOL   H57249668   7.437   5.109   2.884 -1.2777  0.5067  1.1582
   69MOL   H57349669   7.429   4.793   2.955  0.4087  0.2776  0.2764
   69MOL   H57449670   7.320   4.920   3.003  0.2425  0.3272  0.1410
   69MOL   H57549671   7.270   4.959   2.770 -1.1305 -0.7666  0.9650
   69MOL   H57649672   0.454   5.009   3.039  2.0551  1.5873 -0.8157
   69MOL   H57749673   0.592   4.901   2.860  0.4296  0.4248  1.7644
   69MOL   C57849674   7.337   4.782   2.712 -0.0025 -0.1692 -0.3522
   69MOL   O57949675   7.401   4.679   2.730 -0.4672  0.0541 -0.1281
   69MOL   C58049676   7.273   4.811   2.576 -0.3360 -0.0677 -0.0791
   69MOL   C58149677   7.321   4.756   2.454 -0.3352 -0.2100  0.1496
   69MOL   C58249678   7.263   4.791   2.331  0.2069 -0.6320  0.4623
   69MOL   C58349679   7.149   4.880   2.321 -0.4786  0.7206  0.5000
   69MOL   C58449680   7.083   4.918   2.196 -0.1936  0.2898  0.0014
   69MOL   O58549681   7.090   4.840   2.097  0.1457 -0.7468  0.6023
   69MOL   N58649682   7.017   5.033   2.198  0.7178  0.6024  0.7612
   69MOL   C58749683   6.927   5.088   2.098  0.1610  0.0428  0.3279
   69MOL   C58849684   6.860   5.212   2.147 -0.5979  0.7302  0.3592
   69MOL   C58949685   6.731   5.182   2.223  0.6711  0.2661  0.9828
   69MOL   C59049686   6.700   5.293   2.316  0.2944  0.5339  0.3274
   69MOL   C59149687   6.687   5.425   2.246 -0.4931  0.2425 -0.8925
   69MOL   C59249688   6.627   5.524   2.343  0.0927 -0.6435  0.0004
   69MOL   N59349689   6.597   5.654   2.287 -0.0667 -0.2848  0.1747
   69MOL   C59449690   7.087   4.914   2.440  0.2828  0.3904 -0.1179
   69MOL   C59549691   7.147   4.882   2.561 -0.1462 -0.4916 -0.1783
   69MOL   H59649692   7.405   4.689   2.447 -0.2350 -0.3176  2.1968
   69MOL   H59749693   7.294   4.751   2.236  1.5979  1.7447 -0.1377
   69MOL   H59849694   7.033   5.076   2.288 -3.2128 -0.9180  2.2503
   69MOL   H59949695   6.996   5.113   2.017 -0.1454  1.4140  0.4855
   69MOL   H60049696   6.861   5.007   2.068 -0.3954  0.5103  0.2927
   69MOL   H60149697   6.838   5.286   2.070 -0.3779  1.8045  1.3005
   69MOL   H60249698   6.929   5.265   2.213 -1.3670  0.3759  1.4651
   69MOL   H60349699   6.653   5.152   2.153  0.6021 -1.1191  1.6387
   69MOL   H60449700   6.751   5.096   2.287  1.4037 -2.3627 -2.6431
   69MOL   H60549701   6.771   5.299   2.398 -1.3130 -1.2540  1.8903
   69MOL   H60649702   6.610   5.281   2.376 -0.6307  2.5345 -0.6277
   69MOL   H60749703   6.621   5.421   2.159 -2.3571  1.1458  0.4489
   69MOL   H60849704   6.778   5.463   2.200 -0.5793  2.6043  0.7834
   69MOL   H60949705   6.543   5.485   2.399  0.0013  1.2525  1.2355
   69MOL   H61049706   6.705   5.541   2.417 -0.1233 -0.0648  0.0973
   69MOL   H61149707   6.629   5.666   2.192 -1.7004 -0.1373 -0.3846
   69MOL   H61249708   6.998   4.975   2.435  0.3860  0.5695  0.2155
   69MOL   H61349709   7.098   4.920   2.649 -0.9951 -1.4868 -0.2158
   69MOL   C61449710   6.537   5.760   2.346  0.8702  0.1585  0.0590
   69MOL   O61549711   6.488   5.762   2.463 -0.0105 -0.3402 -0.3237
   69MOL   C61649712   6.516   5.885   2.263 -0.2490 -0.0899 -0.1155
   69MOL   C61749713   6.398   5.961   2.274  0.2740 -0.5780  0.2325
   69MOL   C61849714   6.395   6.083   2.201 -0.0017  0.4056 -0.0636
   69MOL   C61949715   6.498   6.126   2.117 -0.3303 -1.0059 -0.5129
   69MOL   C62049716   6.483   6.257   2.039 -0.2959 -0.5071 -0.5324
   69MOL   O62149717   6.372   6.313   2.024 -0.3659 -0.2455  0.0090
   69MOL   N62249718   6.592   6.315   2.004  0.1702 -0.3044  0.3618
   69MOL   C62349719   6.618   6.445   1.950 -0.0091 -0.4942  1.1247
   69MOL   C62449720   6.756   6.479   1.996 -0.1889  0.3155 -0.3432
   69MOL   C62549721   6.806   6.623   1.978 -0.3385 -0.3687  0.1616
   69MOL   C62649722   6.906   6.655   2.087 -0.3170 -0.1222  0.2484
   69MOL   C62749723   7.035   6.570   2.075  0.1088  0.3210  0.0202
   69MOL   C62849724   7.143   6.594   2.184 -0.2095 -0.0562  0.0817
   69MOL   N62949725   7.196   6.729   2.200 -0.1633  0.2581  0.1826
   69MOL   C63049726   6.607   6.040   2.102  0.4502 -0.3272 -0.8518
   69MOL   C63149727   6.619   5.930   2.178 -0.3825  0.1984 -0.6007
   69MOL   H63249728   6.321   5.934   2.345 -0.3198  0.4616 -0.0186
   69MOL   H63349729   6.310   6.149   2.209 -0.0760  0.7912 -3.2516
   69MOL   H63449730   6.675   6.258   2.015  0.5880  0.4954  1.5261
   69MOL   H63549731   6.604   6.441   1.842 -0.6605 -0.9429  1.2202
   69MOL   H63649732   6.544   6.519   1.982 -0.1228  0.8707 -2.0849
   69MOL   H63749733   6.829   6.426   1.934 -0.7487 -2.0645  1.0107
   69MOL   H63849734   6.773   6.440   2.096 -0.0069 -0.0157 -0.5036
   69MOL   H63949735   6.838   6.645   1.876  0.0553  0.1145  0.3910
   69MOL   H64049736   6.730   6.698   1.998 -0.8934 -1.2296  1.3420
   69MOL   H64149737   6.869   6.623   2.184 -0.8671 -0.1263  0.0417
   69MOL   H64249738   6.940   6.757   2.096 -1.1301  0.1774 -0.0078
   69MOL   H64349739   7.096   6.594   1.988  0.7582 -1.7119 -0.1056
   69MOL   H64449740   7.009   6.465   2.071 -2.3449  0.6772  3.7622
   69MOL   H64549741   7.093   6.575   2.279  0.5253  1.9599  0.8948
   69MOL   H64649742   7.224   6.521   2.177  0.1594  0.3176  0.3991
   69MOL   H64749743   7.159   6.787   2.274 -0.4456  0.2471  0.0525
   69MOL   H64849744   6.678   6.051   2.020  3.5255 -1.5139  1.5617
   69MOL   H64949745   6.698   5.862   2.149  0.7612  1.8263 -1.3862
   69MOL   C65049746   7.311   6.780   2.160  0.0544 -0.6204 -0.0512
   69MOL   O65149747   7.396   6.717   2.103  0.4499 -0.1181 -0.0823
   69MOL   C65249748   7.330   6.925   2.197 -0.2104 -0.0496  1.0244
   69MOL   C65349749   7.459   6.980   2.185 -0.1003  0.1348  0.6857
   69MOL   C65449750   7.481   7.122   2.196 -0.2672 -0.5840 -0.1101
   69MOL   C65549751   7.377   7.206   2.253 -0.1033 -0.5406  0.1211
   69MOL   C65649752   7.404   7.350   2.286 -0.3751 -0.1193 -0.4713
   69MOL   O65749753   7.340   7.406   2.375 -0.7889  0.3703  0.0706
   69MOL   N65849754   7.494   7.410   2.207  0.4324 -0.6106 -0.3157
   69MOL   C65949755   7.535   7.546   2.230  0.0309 -0.1894 -0.0879
   69MOL   C66049756   7.683   7.547   2.266  0.1366  0.6654 -1.0822
   69MOL   C66149757   7.766   7.521   2.137 -1.0137  0.5294  0.2950
   69MOL   C66249758   0.009   7.454   2.175 -0.9484  0.1019  0.1060
   69MOL   C66349759   0.068   7.375   2.061  0.5718  0.0430 -0.0508
   69MOL   C66449760   0.218   7.367   2.070 -0.3913  0.3276 -0.0303
   69MOL   N66549761   0.284   7.495   2.058  0.2626 -0.2704  0.8401
   69MOL   C66649762   7.248   7.152   2.256 -0.0174 -0.0247 -0.3244
   69MOL   C66749763   7.220   7.014   2.222 -0.0249  0.0131  0.4357
   69MOL   H66849764   7.535   6.907   2.161 -0.0001  0.9615 -1.6311
   69MOL   H66949765   7.586   7.149   2.188 -0.7186  0.9168 -1.1238
   69MOL   H67049766   7.536   7.352   2.136 -0.8788 -0.0862 -1.5438
   69MOL   H67149767   7.516   7.592   2.133  0.2697 -0.6580 -0.3596
   69MOL   H67249768   7.479   7.594   2.310  0.6995  1.0343 -0.3353
   69MOL   H67349769   7.705   7.480   2.350  2.5672 -0.0757 -2.2650
   69MOL   H67449770   7.716   7.646   2.299 -0.5822  0.7718 -0.6738
   69MOL   H67549771   7.707   7.448   2.081 -1.2625  0.0044  1.2342
   69MOL   H67649772   7.793   7.610   2.081  0.4354 -0.1038 -0.0373
   69MOL   H67749773   7.880   7.384   2.257  0.0147  1.4647  1.5042
   69MOL   H67849774   0.076   7.529   2.218  1.4693 -0.0719 -3.1618
   69MOL   H67949775   0.034   7.398   1.960 -2.0700  1.0605  1.0212
   69MOL   H68049776   0.032   7.273   2.055 -0.4484  0.3265  0.9817
   69MOL   H68149777   0.240   7.306   2.158 -0.7907 -0.6492 -0.5971
   69MOL   H68249778   0.239   7.300   1.986 -0.0680 -0.5732  0.7553
   69MOL   H68349779   0.253   7.554   1.982 -1.9488 -2.2297  0.1505
   69MOL   H68449780   7.168   7.217   2.287  1.3526  1.0731  1.0504
   69MOL   H68549781   7.115   6.989   2.225  0.5111 -2.2853  0.9454
   69MOL   C68649782   0.374   7.558   2.137  0.1881  0.8581  0.4477
   69MOL   O68749783   0.448   7.487   2.210 -0.0445  0.2509 -0.0620
   69MOL   C68849784   0.392   7.705   2.137 -0.1647 -0.9346  0.4705
   69MOL   C68949785   0.293   7.799   2.170  0.0390  0.6339 -0.7958
   69MOL   C69049786   0.319   0.054   2.166 -0.2427 -0.5066  0.4226
   69MOL   C69149787   0.443   0.104   2.121  0.1842  0.0716  0.2894
   69MOL   C69249788   0.468   0.255   2.114 -0.3822 -0.3957  0.7750
   69MOL   O69349789   0.572   0.302   2.074  0.6003 -0.5940  0.3869
   69MOL   N69449790   0.362   0.331   2.151  0.3828 -0.4715 -0.0651
   69MOL   C69549791   0.351   0.476   2.165 -0.0581  0.5241  0.1371
   69MOL   C69649792   0.356   0.551   2.026  0.4190  0.1042  0.6730
   69MOL   C69749793   0.323   0.696   2.044 -0.6821  0.4866  0.0129
   69MOL   C69849794   0.364   0.775   1.916 -0.5080 -0.0916  0.2953
   69MOL   C69949795   0.335   0.921   1.926 -0.1308 -0.0581 -0.3531
   69MOL   C70049796   0.364   0.996   1.798  0.1412  0.8433  0.5778
   69MOL   N70149797   0.277   1.118   1.790  0.2513  0.4693 -0.7979
   69MOL   C70249798   0.550   0.013   2.100  0.3579  0.3135  0.1926
   69MOL   C70349799   0.527   7.753   2.110 -0.4279 -0.0664 -0.3291
   69MOL   H70449800   0.193   7.766   2.190  1.1746 -1.7746  1.1839
   69MOL   H70549801   0.241   0.120   2.199  1.2504  1.4939  0.0079
   69MOL   H70649802   0.279   0.274   2.164  0.5223 -0.3288  1.6296
   69MOL   H70749803   0.262   0.508   2.219 -0.5189  0.9669 -0.8753
   69MOL   H70849804   0.441   0.505   2.219 -1.1940 -0.8157  2.8573
   69MOL   H70949805   0.293   0.500   1.952  1.3959 -0.4453  0.2120
   69MOL   H71049806   0.453   0.527   1.983 -0.1438 -2.2901  0.6733
   69MOL   H71149807   0.216   0.702   2.066  0.0508  3.5290  3.1805
   69MOL   H71249808   0.366   0.731   2.138  1.5535  0.4198 -0.9507
   69MOL   H71349809   0.322   0.732   1.825 -0.9144 -1.1081  0.9527
   69MOL   H71449810   0.470   0.770   1.892 -0.1592  1.0506  1.5346
   69MOL   H71549811   0.394   0.966   2.006  2.7711 -1.0089 -1.8579
   69MOL   H71649812   0.233   0.938   1.960 -0.6491 -1.2258 -1.2844
   69MOL   H71749813   0.471   1.000   1.776 -0.1694 -0.5948 -1.3201
   69MOL   H71849814   0.331   0.933   1.715  1.1698  1.0162  0.0303
   69MOL   H71949815   0.275   1.160   1.699 -0.1757  1.4935 -0.3264
   69MOL   H72049816   0.649   0.050   2.080  0.5566 -0.4834 -0.3063
   69MOL   H72149817   0.614   7.692   2.094  0.6252  1.0393  0.9993
   69MOL   H72249818   0.305   1.193   1.853 -0.9931 -0.0078  0.3389
   7.88606   7.88606   7.88606
