;
; Gromacs include topology (itp) file.
; For Molecular Group XYZ
; Force field scheme: opls2005
; Produced from DL_FIELD v4.11
;


[ moleculetype ]
; name    nrexcl
XYZ    3

[ atoms ]
; nr   type   resnr   residu    atom    cgnr    charge    mass
    1        CT    1  MOL      C1     1  -0.1800000   12.0115
    2        CT    1  MOL      C2     2  -0.0600000   12.0115
    3        CT    1  MOL      C3     3  -0.1200000   12.0115
    4        CT    1  MOL      C4     4   0.0000000   12.0115
    5        CT    1  MOL      C5     5  -0.1800000   12.0115
    6        CT    1  MOL      C6     6  -0.1800000   12.0115
    7        CT    1  MOL      C7     7  -0.1800000   12.0115
    8        HC    1  MOL      H8     8   0.0600000    1.0080
    9        HC    1  MOL      H9     9   0.0600000    1.0080
   10        HC    1  MOL     H10    10   0.0600000    1.0080
   11        HC    1  MOL     H11    11   0.0600000    1.0080
   12        HC    1  MOL     H12    12   0.0600000    1.0080
   13        HC    1  MOL     H13    13   0.0600000    1.0080
   14        HC    1  MOL     H14    14   0.0600000    1.0080
   15        HC    1  MOL     H15    15   0.0600000    1.0080
   16        HC    1  MOL     H16    16   0.0600000    1.0080
   17        HC    1  MOL     H17    17   0.0600000    1.0080
   18        HC    1  MOL     H18    18   0.0600000    1.0080
   19        HC    1  MOL     H19    19   0.0600000    1.0080
   20        HC    1  MOL     H20    20   0.0600000    1.0080
   21        HC    1  MOL     H21    21   0.0600000    1.0080
   22        HC    1  MOL     H22    22   0.0600000    1.0080
   23        CT    1  MOL     C23    23  -0.1200000   12.0115
   24        CT    1  MOL     C24    24  -0.0600000   12.0115
   25        CT    1  MOL     C25    25  -0.1200000   12.0115
   26        CT    1  MOL     C26    26   0.0000000   12.0115
   27        CT    1  MOL     C27    27  -0.1800000   12.0115
   28        CT    1  MOL     C28    28  -0.1800000   12.0115
   29        CT    1  MOL     C29    29  -0.1800000   12.0115
   30        HC    1  MOL     H30    30   0.0600000    1.0080
   31        HC    1  MOL     H31    31   0.0600000    1.0080
   32        HC    1  MOL     H32    32   0.0600000    1.0080
   33        HC    1  MOL     H33    33   0.0600000    1.0080
   34        HC    1  MOL     H34    34   0.0600000    1.0080
   35        HC    1  MOL     H35    35   0.0600000    1.0080
   36        HC    1  MOL     H36    36   0.0600000    1.0080
   37        HC    1  MOL     H37    37   0.0600000    1.0080
   38        HC    1  MOL     H38    38   0.0600000    1.0080
   39        HC    1  MOL     H39    39   0.0600000    1.0080
   40        HC    1  MOL     H40    40   0.0600000    1.0080
   41        HC    1  MOL     H41    41   0.0600000    1.0080
   42        HC    1  MOL     H42    42   0.0600000    1.0080
   43        HC    1  MOL     H43    43   0.0600000    1.0080
   44        CT    1  MOL     C44    44  -0.1200000   12.0115
   45        CT    1  MOL     C45    45  -0.0600000   12.0115
   46        CT    1  MOL     C46    46  -0.1200000   12.0115
   47        CT    1  MOL     C47    47   0.0000000   12.0115
   48        CT    1  MOL     C48    48  -0.1800000   12.0115
   49        CT    1  MOL     C49    49  -0.1800000   12.0115
   50        CT    1  MOL     C50    50  -0.1800000   12.0115
   51        HC    1  MOL     H51    51   0.0600000    1.0080
   52        HC    1  MOL     H52    52   0.0600000    1.0080
   53        HC    1  MOL     H53    53   0.0600000    1.0080
   54        HC    1  MOL     H54    54   0.0600000    1.0080
   55        HC    1  MOL     H55    55   0.0600000    1.0080
   56        HC    1  MOL     H56    56   0.0600000    1.0080
   57        HC    1  MOL     H57    57   0.0600000    1.0080
   58        HC    1  MOL     H58    58   0.0600000    1.0080
   59        HC    1  MOL     H59    59   0.0600000    1.0080
   60        HC    1  MOL     H60    60   0.0600000    1.0080
   61        HC    1  MOL     H61    61   0.0600000    1.0080
   62        HC    1  MOL     H62    62   0.0600000    1.0080
   63        HC    1  MOL     H63    63   0.0600000    1.0080
   64        HC    1  MOL     H64    64   0.0600000    1.0080
   65        CT    1  MOL     C65    65  -0.1200000   12.0115
   66        CT    1  MOL     C66    66  -0.0600000   12.0115
   67        CT    1  MOL     C67    67  -0.1200000   12.0115
   68        CT    1  MOL     C68    68   0.0000000   12.0115
   69        CT    1  MOL     C69    69  -0.1800000   12.0115
   70        CT    1  MOL     C70    70  -0.1800000   12.0115
   71        CT    1  MOL     C71    71  -0.1800000   12.0115
   72        HC    1  MOL     H72    72   0.0600000    1.0080
   73        HC    1  MOL     H73    73   0.0600000    1.0080
   74        HC    1  MOL     H74    74   0.0600000    1.0080
   75        HC    1  MOL     H75    75   0.0600000    1.0080
   76        HC    1  MOL     H76    76   0.0600000    1.0080
   77        HC    1  MOL     H77    77   0.0600000    1.0080
   78        HC    1  MOL     H78    78   0.0600000    1.0080
   79        HC    1  MOL     H79    79   0.0600000    1.0080
   80        HC    1  MOL     H80    80   0.0600000    1.0080
   81        HC    1  MOL     H81    81   0.0600000    1.0080
   82        HC    1  MOL     H82    82   0.0600000    1.0080
   83        HC    1  MOL     H83    83   0.0600000    1.0080
   84        HC    1  MOL     H84    84   0.0600000    1.0080
   85        HC    1  MOL     H85    85   0.0600000    1.0080
   86        CT    1  MOL     C86    86  -0.1200000   12.0115
   87        CT    1  MOL     C87    87  -0.0600000   12.0115
   88        CT    1  MOL     C88    88  -0.1200000   12.0115
   89        CT    1  MOL     C89    89   0.0000000   12.0115
   90        CT    1  MOL     C90    90  -0.1800000   12.0115
   91        CT    1  MOL     C91    91  -0.1800000   12.0115
   92        CT    1  MOL     C92    92  -0.1800000   12.0115
   93        HC    1  MOL     H93    93   0.0600000    1.0080
   94        HC    1  MOL     H94    94   0.0600000    1.0080
   95        HC    1  MOL     H95    95   0.0600000    1.0080
   96        HC    1  MOL     H96    96   0.0600000    1.0080
   97        HC    1  MOL     H97    97   0.0600000    1.0080
   98        HC    1  MOL     H98    98   0.0600000    1.0080
   99        HC    1  MOL     H99    99   0.0600000    1.0080
  100        HC    1  MOL    H100   100   0.0600000    1.0080
  101        HC    1  MOL    H101   101   0.0600000    1.0080
  102        HC    1  MOL    H102   102   0.0600000    1.0080
  103        HC    1  MOL    H103   103   0.0600000    1.0080
  104        HC    1  MOL    H104   104   0.0600000    1.0080
  105        HC    1  MOL    H105   105   0.0600000    1.0080
  106        HC    1  MOL    H106   106   0.0600000    1.0080
  107        CT    1  MOL    C107   107  -0.1200000   12.0115
  108        CT    1  MOL    C108   108  -0.0600000   12.0115
  109        CT    1  MOL    C109   109  -0.1200000   12.0115
  110        CT    1  MOL    C110   110   0.0000000   12.0115
  111        CT    1  MOL    C111   111  -0.1800000   12.0115
  112        CT    1  MOL    C112   112  -0.1800000   12.0115
  113        CT    1  MOL    C113   113  -0.1800000   12.0115
  114        HC    1  MOL    H114   114   0.0600000    1.0080
  115        HC    1  MOL    H115   115   0.0600000    1.0080
  116        HC    1  MOL    H116   116   0.0600000    1.0080
  117        HC    1  MOL    H117   117   0.0600000    1.0080
  118        HC    1  MOL    H118   118   0.0600000    1.0080
  119        HC    1  MOL    H119   119   0.0600000    1.0080
  120        HC    1  MOL    H120   120   0.0600000    1.0080
  121        HC    1  MOL    H121   121   0.0600000    1.0080
  122        HC    1  MOL    H122   122   0.0600000    1.0080
  123        HC    1  MOL    H123   123   0.0600000    1.0080
  124        HC    1  MOL    H124   124   0.0600000    1.0080
  125        HC    1  MOL    H125   125   0.0600000    1.0080
  126        HC    1  MOL    H126   126   0.0600000    1.0080
  127        HC    1  MOL    H127   127   0.0600000    1.0080
  128        CT    1  MOL    C128   128  -0.1200000   12.0115
  129        CT    1  MOL    C129   129  -0.0600000   12.0115
  130        CT    1  MOL    C130   130  -0.1200000   12.0115
  131        CT    1  MOL    C131   131   0.0000000   12.0115
  132        CT    1  MOL    C132   132  -0.1800000   12.0115
  133        CT    1  MOL    C133   133  -0.1800000   12.0115
  134        CT    1  MOL    C134   134  -0.1800000   12.0115
  135        HC    1  MOL    H135   135   0.0600000    1.0080
  136        HC    1  MOL    H136   136   0.0600000    1.0080
  137        HC    1  MOL    H137   137   0.0600000    1.0080
  138        HC    1  MOL    H138   138   0.0600000    1.0080
  139        HC    1  MOL    H139   139   0.0600000    1.0080
  140        HC    1  MOL    H140   140   0.0600000    1.0080
  141        HC    1  MOL    H141   141   0.0600000    1.0080
  142        HC    1  MOL    H142   142   0.0600000    1.0080
  143        HC    1  MOL    H143   143   0.0600000    1.0080
  144        HC    1  MOL    H144   144   0.0600000    1.0080
  145        HC    1  MOL    H145   145   0.0600000    1.0080
  146        HC    1  MOL    H146   146   0.0600000    1.0080
  147        HC    1  MOL    H147   147   0.0600000    1.0080
  148        HC    1  MOL    H148   148   0.0600000    1.0080
  149        CT    1  MOL    C149   149  -0.1200000   12.0115
  150        CT    1  MOL    C150   150  -0.0600000   12.0115
  151        CT    1  MOL    C151   151  -0.1200000   12.0115
  152        CT    1  MOL    C152   152   0.0000000   12.0115
  153        CT    1  MOL    C153   153  -0.1800000   12.0115
  154        CT    1  MOL    C154   154  -0.1800000   12.0115
  155        CT    1  MOL    C155   155  -0.1800000   12.0115
  156        HC    1  MOL    H156   156   0.0600000    1.0080
  157        HC    1  MOL    H157   157   0.0600000    1.0080
  158        HC    1  MOL    H158   158   0.0600000    1.0080
  159        HC    1  MOL    H159   159   0.0600000    1.0080
  160        HC    1  MOL    H160   160   0.0600000    1.0080
  161        HC    1  MOL    H161   161   0.0600000    1.0080
  162        HC    1  MOL    H162   162   0.0600000    1.0080
  163        HC    1  MOL    H163   163   0.0600000    1.0080
  164        HC    1  MOL    H164   164   0.0600000    1.0080
  165        HC    1  MOL    H165   165   0.0600000    1.0080
  166        HC    1  MOL    H166   166   0.0600000    1.0080
  167        HC    1  MOL    H167   167   0.0600000    1.0080
  168        HC    1  MOL    H168   168   0.0600000    1.0080
  169        HC    1  MOL    H169   169   0.0600000    1.0080
  170        CT    1  MOL    C170   170  -0.1200000   12.0115
  171        CT    1  MOL    C171   171  -0.0600000   12.0115
  172        CT    1  MOL    C172   172  -0.1200000   12.0115
  173        CT    1  MOL    C173   173   0.0000000   12.0115
  174        CT    1  MOL    C174   174  -0.1800000   12.0115
  175        CT    1  MOL    C175   175  -0.1800000   12.0115
  176        CT    1  MOL    C176   176  -0.1800000   12.0115
  177        HC    1  MOL    H177   177   0.0600000    1.0080
  178        HC    1  MOL    H178   178   0.0600000    1.0080
  179        HC    1  MOL    H179   179   0.0600000    1.0080
  180        HC    1  MOL    H180   180   0.0600000    1.0080
  181        HC    1  MOL    H181   181   0.0600000    1.0080
  182        HC    1  MOL    H182   182   0.0600000    1.0080
  183        HC    1  MOL    H183   183   0.0600000    1.0080
  184        HC    1  MOL    H184   184   0.0600000    1.0080
  185        HC    1  MOL    H185   185   0.0600000    1.0080
  186        HC    1  MOL    H186   186   0.0600000    1.0080
  187        HC    1  MOL    H187   187   0.0600000    1.0080
  188        HC    1  MOL    H188   188   0.0600000    1.0080
  189        HC    1  MOL    H189   189   0.0600000    1.0080
  190        HC    1  MOL    H190   190   0.0600000    1.0080
  191        CT    1  MOL    C191   191  -0.1200000   12.0115
  192        CT    1  MOL    C192   192  -0.0600000   12.0115
  193        CT    1  MOL    C193   193  -0.1200000   12.0115
  194        CT    1  MOL    C194   194   0.0000000   12.0115
  195        CT    1  MOL    C195   195  -0.1800000   12.0115
  196        CT    1  MOL    C196   196  -0.1800000   12.0115
  197        CT    1  MOL    C197   197  -0.1800000   12.0115
  198        HC    1  MOL    H198   198   0.0600000    1.0080
  199        HC    1  MOL    H199   199   0.0600000    1.0080
  200        HC    1  MOL    H200   200   0.0600000    1.0080
  201        HC    1  MOL    H201   201   0.0600000    1.0080
  202        HC    1  MOL    H202   202   0.0600000    1.0080
  203        HC    1  MOL    H203   203   0.0600000    1.0080
  204        HC    1  MOL    H204   204   0.0600000    1.0080
  205        HC    1  MOL    H205   205   0.0600000    1.0080
  206        HC    1  MOL    H206   206   0.0600000    1.0080
  207        HC    1  MOL    H207   207   0.0600000    1.0080
  208        HC    1  MOL    H208   208   0.0600000    1.0080
  209        HC    1  MOL    H209   209   0.0600000    1.0080
  210        HC    1  MOL    H210   210   0.0600000    1.0080
  211        HC    1  MOL    H211   211   0.0600000    1.0080
  212        CT    1  MOL    C212   212  -0.1200000   12.0115
  213        CT    1  MOL    C213   213  -0.0600000   12.0115
  214        CT    1  MOL    C214   214  -0.1200000   12.0115
  215        CT    1  MOL    C215   215   0.0000000   12.0115
  216        CT    1  MOL    C216   216  -0.1800000   12.0115
  217        CT    1  MOL    C217   217  -0.1800000   12.0115
  218        CT    1  MOL    C218   218  -0.1800000   12.0115
  219        HC    1  MOL    H219   219   0.0600000    1.0080
  220        HC    1  MOL    H220   220   0.0600000    1.0080
  221        HC    1  MOL    H221   221   0.0600000    1.0080
  222        HC    1  MOL    H222   222   0.0600000    1.0080
  223        HC    1  MOL    H223   223   0.0600000    1.0080
  224        HC    1  MOL    H224   224   0.0600000    1.0080
  225        HC    1  MOL    H225   225   0.0600000    1.0080
  226        HC    1  MOL    H226   226   0.0600000    1.0080
  227        HC    1  MOL    H227   227   0.0600000    1.0080
  228        HC    1  MOL    H228   228   0.0600000    1.0080
  229        HC    1  MOL    H229   229   0.0600000    1.0080
  230        HC    1  MOL    H230   230   0.0600000    1.0080
  231        HC    1  MOL    H231   231   0.0600000    1.0080
  232        HC    1  MOL    H232   232   0.0600000    1.0080
  233        CT    1  MOL    C233   233  -0.1200000   12.0115
  234        CT    1  MOL    C234   234  -0.0600000   12.0115
  235        CT    1  MOL    C235   235  -0.1200000   12.0115
  236        CT    1  MOL    C236   236   0.0000000   12.0115
  237        CT    1  MOL    C237   237  -0.1800000   12.0115
  238        CT    1  MOL    C238   238  -0.1800000   12.0115
  239        CT    1  MOL    C239   239  -0.1800000   12.0115
  240        HC    1  MOL    H240   240   0.0600000    1.0080
  241        HC    1  MOL    H241   241   0.0600000    1.0080
  242        HC    1  MOL    H242   242   0.0600000    1.0080
  243        HC    1  MOL    H243   243   0.0600000    1.0080
  244        HC    1  MOL    H244   244   0.0600000    1.0080
  245        HC    1  MOL    H245   245   0.0600000    1.0080
  246        HC    1  MOL    H246   246   0.0600000    1.0080
  247        HC    1  MOL    H247   247   0.0600000    1.0080
  248        HC    1  MOL    H248   248   0.0600000    1.0080
  249        HC    1  MOL    H249   249   0.0600000    1.0080
  250        HC    1  MOL    H250   250   0.0600000    1.0080
  251        HC    1  MOL    H251   251   0.0600000    1.0080
  252        HC    1  MOL    H252   252   0.0600000    1.0080
  253        HC    1  MOL    H253   253   0.0600000    1.0080
  254        CT    1  MOL    C254   254  -0.1200000   12.0115
  255        CT    1  MOL    C255   255  -0.0600000   12.0115
  256        CT    1  MOL    C256   256  -0.1200000   12.0115
  257        CT    1  MOL    C257   257   0.0000000   12.0115
  258        CT    1  MOL    C258   258  -0.1800000   12.0115
  259        CT    1  MOL    C259   259  -0.1800000   12.0115
  260        CT    1  MOL    C260   260  -0.1800000   12.0115
  261        HC    1  MOL    H261   261   0.0600000    1.0080
  262        HC    1  MOL    H262   262   0.0600000    1.0080
  263        HC    1  MOL    H263   263   0.0600000    1.0080
  264        HC    1  MOL    H264   264   0.0600000    1.0080
  265        HC    1  MOL    H265   265   0.0600000    1.0080
  266        HC    1  MOL    H266   266   0.0600000    1.0080
  267        HC    1  MOL    H267   267   0.0600000    1.0080
  268        HC    1  MOL    H268   268   0.0600000    1.0080
  269        HC    1  MOL    H269   269   0.0600000    1.0080
  270        HC    1  MOL    H270   270   0.0600000    1.0080
  271        HC    1  MOL    H271   271   0.0600000    1.0080
  272        HC    1  MOL    H272   272   0.0600000    1.0080
  273        HC    1  MOL    H273   273   0.0600000    1.0080
  274        HC    1  MOL    H274   274   0.0600000    1.0080
  275        CT    1  MOL    C275   275  -0.1200000   12.0115
  276        CT    1  MOL    C276   276  -0.0600000   12.0115
  277        CT    1  MOL    C277   277  -0.1200000   12.0115
  278        CT    1  MOL    C278   278   0.0000000   12.0115
  279        CT    1  MOL    C279   279  -0.1800000   12.0115
  280        CT    1  MOL    C280   280  -0.1800000   12.0115
  281        CT    1  MOL    C281   281  -0.1800000   12.0115
  282        HC    1  MOL    H282   282   0.0600000    1.0080
  283        HC    1  MOL    H283   283   0.0600000    1.0080
  284        HC    1  MOL    H284   284   0.0600000    1.0080
  285        HC    1  MOL    H285   285   0.0600000    1.0080
  286        HC    1  MOL    H286   286   0.0600000    1.0080
  287        HC    1  MOL    H287   287   0.0600000    1.0080
  288        HC    1  MOL    H288   288   0.0600000    1.0080
  289        HC    1  MOL    H289   289   0.0600000    1.0080
  290        HC    1  MOL    H290   290   0.0600000    1.0080
  291        HC    1  MOL    H291   291   0.0600000    1.0080
  292        HC    1  MOL    H292   292   0.0600000    1.0080
  293        HC    1  MOL    H293   293   0.0600000    1.0080
  294        HC    1  MOL    H294   294   0.0600000    1.0080
  295        HC    1  MOL    H295   295   0.0600000    1.0080
  296        CT    1  MOL    C296   296  -0.1200000   12.0115
  297        CT    1  MOL    C297   297  -0.0600000   12.0115
  298        CT    1  MOL    C298   298  -0.1200000   12.0115
  299        CT    1  MOL    C299   299   0.0000000   12.0115
  300        CT    1  MOL    C300   300  -0.1800000   12.0115
  301        CT    1  MOL    C301   301  -0.1800000   12.0115
  302        CT    1  MOL    C302   302  -0.1800000   12.0115
  303        HC    1  MOL    H303   303   0.0600000    1.0080
  304        HC    1  MOL    H304   304   0.0600000    1.0080
  305        HC    1  MOL    H305   305   0.0600000    1.0080
  306        HC    1  MOL    H306   306   0.0600000    1.0080
  307        HC    1  MOL    H307   307   0.0600000    1.0080
  308        HC    1  MOL    H308   308   0.0600000    1.0080
  309        HC    1  MOL    H309   309   0.0600000    1.0080
  310        HC    1  MOL    H310   310   0.0600000    1.0080
  311        HC    1  MOL    H311   311   0.0600000    1.0080
  312        HC    1  MOL    H312   312   0.0600000    1.0080
  313        HC    1  MOL    H313   313   0.0600000    1.0080
  314        HC    1  MOL    H314   314   0.0600000    1.0080
  315        HC    1  MOL    H315   315   0.0600000    1.0080
  316        HC    1  MOL    H316   316   0.0600000    1.0080
  317        CT    1  MOL    C317   317  -0.1200000   12.0115
  318        CT    1  MOL    C318   318  -0.0600000   12.0115
  319        CT    1  MOL    C319   319  -0.1200000   12.0115
  320        CT    1  MOL    C320   320   0.0000000   12.0115
  321        CT    1  MOL    C321   321  -0.1800000   12.0115
  322        CT    1  MOL    C322   322  -0.1800000   12.0115
  323        CT    1  MOL    C323   323  -0.1800000   12.0115
  324        HC    1  MOL    H324   324   0.0600000    1.0080
  325        HC    1  MOL    H325   325   0.0600000    1.0080
  326        HC    1  MOL    H326   326   0.0600000    1.0080
  327        HC    1  MOL    H327   327   0.0600000    1.0080
  328        HC    1  MOL    H328   328   0.0600000    1.0080
  329        HC    1  MOL    H329   329   0.0600000    1.0080
  330        HC    1  MOL    H330   330   0.0600000    1.0080
  331        HC    1  MOL    H331   331   0.0600000    1.0080
  332        HC    1  MOL    H332   332   0.0600000    1.0080
  333        HC    1  MOL    H333   333   0.0600000    1.0080
  334        HC    1  MOL    H334   334   0.0600000    1.0080
  335        HC    1  MOL    H335   335   0.0600000    1.0080
  336        HC    1  MOL    H336   336   0.0600000    1.0080
  337        HC    1  MOL    H337   337   0.0600000    1.0080
  338        CT    1  MOL    C338   338  -0.1200000   12.0115
  339        CT    1  MOL    C339   339  -0.0600000   12.0115
  340        CT    1  MOL    C340   340  -0.1200000   12.0115
  341        CT    1  MOL    C341   341   0.0000000   12.0115
  342        CT    1  MOL    C342   342  -0.1800000   12.0115
  343        CT    1  MOL    C343   343  -0.1800000   12.0115
  344        CT    1  MOL    C344   344  -0.1800000   12.0115
  345        HC    1  MOL    H345   345   0.0600000    1.0080
  346        HC    1  MOL    H346   346   0.0600000    1.0080
  347        HC    1  MOL    H347   347   0.0600000    1.0080
  348        HC    1  MOL    H348   348   0.0600000    1.0080
  349        HC    1  MOL    H349   349   0.0600000    1.0080
  350        HC    1  MOL    H350   350   0.0600000    1.0080
  351        HC    1  MOL    H351   351   0.0600000    1.0080
  352        HC    1  MOL    H352   352   0.0600000    1.0080
  353        HC    1  MOL    H353   353   0.0600000    1.0080
  354        HC    1  MOL    H354   354   0.0600000    1.0080
  355        HC    1  MOL    H355   355   0.0600000    1.0080
  356        HC    1  MOL    H356   356   0.0600000    1.0080
  357        HC    1  MOL    H357   357   0.0600000    1.0080
  358        HC    1  MOL    H358   358   0.0600000    1.0080
  359        CT    1  MOL    C359   359  -0.1200000   12.0115
  360        CT    1  MOL    C360   360  -0.0600000   12.0115
  361        CT    1  MOL    C361   361  -0.1200000   12.0115
  362        CT    1  MOL    C362   362   0.0000000   12.0115
  363        CT    1  MOL    C363   363  -0.1800000   12.0115
  364        CT    1  MOL    C364   364  -0.1800000   12.0115
  365        CT    1  MOL    C365   365  -0.1800000   12.0115
  366        HC    1  MOL    H366   366   0.0600000    1.0080
  367        HC    1  MOL    H367   367   0.0600000    1.0080
  368        HC    1  MOL    H368   368   0.0600000    1.0080
  369        HC    1  MOL    H369   369   0.0600000    1.0080
  370        HC    1  MOL    H370   370   0.0600000    1.0080
  371        HC    1  MOL    H371   371   0.0600000    1.0080
  372        HC    1  MOL    H372   372   0.0600000    1.0080
  373        HC    1  MOL    H373   373   0.0600000    1.0080
  374        HC    1  MOL    H374   374   0.0600000    1.0080
  375        HC    1  MOL    H375   375   0.0600000    1.0080
  376        HC    1  MOL    H376   376   0.0600000    1.0080
  377        HC    1  MOL    H377   377   0.0600000    1.0080
  378        HC    1  MOL    H378   378   0.0600000    1.0080
  379        HC    1  MOL    H379   379   0.0600000    1.0080
  380        CT    1  MOL    C380   380  -0.1200000   12.0115
  381        CT    1  MOL    C381   381  -0.0600000   12.0115
  382        CT    1  MOL    C382   382  -0.1200000   12.0115
  383        CT    1  MOL    C383   383   0.0000000   12.0115
  384        CT    1  MOL    C384   384  -0.1800000   12.0115
  385        CT    1  MOL    C385   385  -0.1800000   12.0115
  386        CT    1  MOL    C386   386  -0.1800000   12.0115
  387        HC    1  MOL    H387   387   0.0600000    1.0080
  388        HC    1  MOL    H388   388   0.0600000    1.0080
  389        HC    1  MOL    H389   389   0.0600000    1.0080
  390        HC    1  MOL    H390   390   0.0600000    1.0080
  391        HC    1  MOL    H391   391   0.0600000    1.0080
  392        HC    1  MOL    H392   392   0.0600000    1.0080
  393        HC    1  MOL    H393   393   0.0600000    1.0080
  394        HC    1  MOL    H394   394   0.0600000    1.0080
  395        HC    1  MOL    H395   395   0.0600000    1.0080
  396        HC    1  MOL    H396   396   0.0600000    1.0080
  397        HC    1  MOL    H397   397   0.0600000    1.0080
  398        HC    1  MOL    H398   398   0.0600000    1.0080
  399        HC    1  MOL    H399   399   0.0600000    1.0080
  400        HC    1  MOL    H400   400   0.0600000    1.0080
  401        CT    1  MOL    C401   401  -0.1200000   12.0115
  402        CT    1  MOL    C402   402  -0.1200000   12.0115
  403        CT    1  MOL    C403   403  -0.1200000   12.0115
  404        CT    1  MOL    C404   404   0.0000000   12.0115
  405        CT    1  MOL    C405   405  -0.1800000   12.0115
  406        CT    1  MOL    C406   406  -0.1800000   12.0115
  407        CT    1  MOL    C407   407  -0.1800000   12.0115
  408        HC    1  MOL    H408   408   0.0600000    1.0080
  409        HC    1  MOL    H409   409   0.0600000    1.0080
  410        HC    1  MOL    H410   410   0.0600000    1.0080
  411        HC    1  MOL    H411   411   0.0600000    1.0080
  412        HC    1  MOL    H412   412   0.0600000    1.0080
  413        HC    1  MOL    H413   413   0.0600000    1.0080
  414        HC    1  MOL    H414   414   0.0600000    1.0080
  415        HC    1  MOL    H415   415   0.0600000    1.0080
  416        HC    1  MOL    H416   416   0.0600000    1.0080
  417        HC    1  MOL    H417   417   0.0600000    1.0080
  418        HC    1  MOL    H418   418   0.0600000    1.0080
  419        HC    1  MOL    H419   419   0.0600000    1.0080
  420        HC    1  MOL    H420   420   0.0600000    1.0080
  421        HC    1  MOL    H421   421   0.0600000    1.0080
  422        HC    1  MOL    H422   422   0.0600000    1.0080

[ bonds ]
      1      2   1      0.1529 224262.4000
      1      8   1      0.1090 284512.0000
      1      9   1      0.1090 284512.0000
      1     22   1      0.1090 284512.0000
      2      3   1      0.1529 224262.4000
      2     10   1      0.1090 284512.0000
      2     23   1      0.1529 224262.4000
      3      4   1      0.1529 224262.4000
      3     11   1      0.1090 284512.0000
      3     12   1      0.1090 284512.0000
      4      5   1      0.1529 224262.4000
      4      6   1      0.1529 224262.4000
      4      7   1      0.1529 224262.4000
      5     13   1      0.1090 284512.0000
      5     14   1      0.1090 284512.0000
      5     15   1      0.1090 284512.0000
      6     16   1      0.1090 284512.0000
      6     17   1      0.1090 284512.0000
      6     18   1      0.1090 284512.0000
      7     19   1      0.1090 284512.0000
      7     20   1      0.1090 284512.0000
      7     21   1      0.1090 284512.0000
     23     24   1      0.1529 224262.4000
     23     30   1      0.1090 284512.0000
     23     31   1      0.1090 284512.0000
     24     25   1      0.1529 224262.4000
     24     32   1      0.1090 284512.0000
     24     44   1      0.1529 224262.4000
     25     26   1      0.1529 224262.4000
     25     33   1      0.1090 284512.0000
     25     34   1      0.1090 284512.0000
     26     27   1      0.1529 224262.4000
     26     28   1      0.1529 224262.4000
     26     29   1      0.1529 224262.4000
     27     35   1      0.1090 284512.0000
     27     36   1      0.1090 284512.0000
     27     37   1      0.1090 284512.0000
     28     38   1      0.1090 284512.0000
     28     39   1      0.1090 284512.0000
     28     40   1      0.1090 284512.0000
     29     41   1      0.1090 284512.0000
     29     42   1      0.1090 284512.0000
     29     43   1      0.1090 284512.0000
     44     45   1      0.1529 224262.4000
     44     51   1      0.1090 284512.0000
     44     52   1      0.1090 284512.0000
     45     46   1      0.1529 224262.4000
     45     53   1      0.1090 284512.0000
     45     65   1      0.1529 224262.4000
     46     47   1      0.1529 224262.4000
     46     54   1      0.1090 284512.0000
     46     55   1      0.1090 284512.0000
     47     48   1      0.1529 224262.4000
     47     49   1      0.1529 224262.4000
     47     50   1      0.1529 224262.4000
     48     56   1      0.1090 284512.0000
     48     57   1      0.1090 284512.0000
     48     58   1      0.1090 284512.0000
     49     59   1      0.1090 284512.0000
     49     60   1      0.1090 284512.0000
     49     61   1      0.1090 284512.0000
     50     62   1      0.1090 284512.0000
     50     63   1      0.1090 284512.0000
     50     64   1      0.1090 284512.0000
     65     66   1      0.1529 224262.4000
     65     72   1      0.1090 284512.0000
     65     73   1      0.1090 284512.0000
     66     67   1      0.1529 224262.4000
     66     74   1      0.1090 284512.0000
     66     86   1      0.1529 224262.4000
     67     68   1      0.1529 224262.4000
     67     75   1      0.1090 284512.0000
     67     76   1      0.1090 284512.0000
     68     69   1      0.1529 224262.4000
     68     70   1      0.1529 224262.4000
     68     71   1      0.1529 224262.4000
     69     77   1      0.1090 284512.0000
     69     78   1      0.1090 284512.0000
     69     79   1      0.1090 284512.0000
     70     80   1      0.1090 284512.0000
     70     81   1      0.1090 284512.0000
     70     82   1      0.1090 284512.0000
     71     83   1      0.1090 284512.0000
     71     84   1      0.1090 284512.0000
     71     85   1      0.1090 284512.0000
     86     87   1      0.1529 224262.4000
     86     93   1      0.1090 284512.0000
     86     94   1      0.1090 284512.0000
     87     88   1      0.1529 224262.4000
     87     95   1      0.1090 284512.0000
     87    107   1      0.1529 224262.4000
     88     89   1      0.1529 224262.4000
     88     96   1      0.1090 284512.0000
     88     97   1      0.1090 284512.0000
     89     90   1      0.1529 224262.4000
     89     91   1      0.1529 224262.4000
     89     92   1      0.1529 224262.4000
     90     98   1      0.1090 284512.0000
     90     99   1      0.1090 284512.0000
     90    100   1      0.1090 284512.0000
     91    101   1      0.1090 284512.0000
     91    102   1      0.1090 284512.0000
     91    103   1      0.1090 284512.0000
     92    104   1      0.1090 284512.0000
     92    105   1      0.1090 284512.0000
     92    106   1      0.1090 284512.0000
    107    108   1      0.1529 224262.4000
    107    114   1      0.1090 284512.0000
    107    115   1      0.1090 284512.0000
    108    109   1      0.1529 224262.4000
    108    116   1      0.1090 284512.0000
    108    128   1      0.1529 224262.4000
    109    110   1      0.1529 224262.4000
    109    117   1      0.1090 284512.0000
    109    118   1      0.1090 284512.0000
    110    111   1      0.1529 224262.4000
    110    112   1      0.1529 224262.4000
    110    113   1      0.1529 224262.4000
    111    119   1      0.1090 284512.0000
    111    120   1      0.1090 284512.0000
    111    121   1      0.1090 284512.0000
    112    122   1      0.1090 284512.0000
    112    123   1      0.1090 284512.0000
    112    124   1      0.1090 284512.0000
    113    125   1      0.1090 284512.0000
    113    126   1      0.1090 284512.0000
    113    127   1      0.1090 284512.0000
    128    129   1      0.1529 224262.4000
    128    135   1      0.1090 284512.0000
    128    136   1      0.1090 284512.0000
    129    130   1      0.1529 224262.4000
    129    137   1      0.1090 284512.0000
    129    149   1      0.1529 224262.4000
    130    131   1      0.1529 224262.4000
    130    138   1      0.1090 284512.0000
    130    139   1      0.1090 284512.0000
    131    132   1      0.1529 224262.4000
    131    133   1      0.1529 224262.4000
    131    134   1      0.1529 224262.4000
    132    140   1      0.1090 284512.0000
    132    141   1      0.1090 284512.0000
    132    142   1      0.1090 284512.0000
    133    143   1      0.1090 284512.0000
    133    144   1      0.1090 284512.0000
    133    145   1      0.1090 284512.0000
    134    146   1      0.1090 284512.0000
    134    147   1      0.1090 284512.0000
    134    148   1      0.1090 284512.0000
    149    150   1      0.1529 224262.4000
    149    156   1      0.1090 284512.0000
    149    157   1      0.1090 284512.0000
    150    151   1      0.1529 224262.4000
    150    158   1      0.1090 284512.0000
    150    170   1      0.1529 224262.4000
    151    152   1      0.1529 224262.4000
    151    159   1      0.1090 284512.0000
    151    160   1      0.1090 284512.0000
    152    153   1      0.1529 224262.4000
    152    154   1      0.1529 224262.4000
    152    155   1      0.1529 224262.4000
    153    161   1      0.1090 284512.0000
    153    162   1      0.1090 284512.0000
    153    163   1      0.1090 284512.0000
    154    164   1      0.1090 284512.0000
    154    165   1      0.1090 284512.0000
    154    166   1      0.1090 284512.0000
    155    167   1      0.1090 284512.0000
    155    168   1      0.1090 284512.0000
    155    169   1      0.1090 284512.0000
    170    171   1      0.1529 224262.4000
    170    177   1      0.1090 284512.0000
    170    178   1      0.1090 284512.0000
    171    172   1      0.1529 224262.4000
    171    179   1      0.1090 284512.0000
    171    191   1      0.1529 224262.4000
    172    173   1      0.1529 224262.4000
    172    180   1      0.1090 284512.0000
    172    181   1      0.1090 284512.0000
    173    174   1      0.1529 224262.4000
    173    175   1      0.1529 224262.4000
    173    176   1      0.1529 224262.4000
    174    182   1      0.1090 284512.0000
    174    183   1      0.1090 284512.0000
    174    184   1      0.1090 284512.0000
    175    185   1      0.1090 284512.0000
    175    186   1      0.1090 284512.0000
    175    187   1      0.1090 284512.0000
    176    188   1      0.1090 284512.0000
    176    189   1      0.1090 284512.0000
    176    190   1      0.1090 284512.0000
    191    192   1      0.1529 224262.4000
    191    198   1      0.1090 284512.0000
    191    199   1      0.1090 284512.0000
    192    193   1      0.1529 224262.4000
    192    200   1      0.1090 284512.0000
    192    212   1      0.1529 224262.4000
    193    194   1      0.1529 224262.4000
    193    201   1      0.1090 284512.0000
    193    202   1      0.1090 284512.0000
    194    195   1      0.1529 224262.4000
    194    196   1      0.1529 224262.4000
    194    197   1      0.1529 224262.4000
    195    203   1      0.1090 284512.0000
    195    204   1      0.1090 284512.0000
    195    205   1      0.1090 284512.0000
    196    206   1      0.1090 284512.0000
    196    207   1      0.1090 284512.0000
    196    208   1      0.1090 284512.0000
    197    209   1      0.1090 284512.0000
    197    210   1      0.1090 284512.0000
    197    211   1      0.1090 284512.0000
    212    213   1      0.1529 224262.4000
    212    219   1      0.1090 284512.0000
    212    220   1      0.1090 284512.0000
    213    214   1      0.1529 224262.4000
    213    221   1      0.1090 284512.0000
    213    233   1      0.1529 224262.4000
    214    215   1      0.1529 224262.4000
    214    222   1      0.1090 284512.0000
    214    223   1      0.1090 284512.0000
    215    216   1      0.1529 224262.4000
    215    217   1      0.1529 224262.4000
    215    218   1      0.1529 224262.4000
    216    224   1      0.1090 284512.0000
    216    225   1      0.1090 284512.0000
    216    226   1      0.1090 284512.0000
    217    227   1      0.1090 284512.0000
    217    228   1      0.1090 284512.0000
    217    229   1      0.1090 284512.0000
    218    230   1      0.1090 284512.0000
    218    231   1      0.1090 284512.0000
    218    232   1      0.1090 284512.0000
    233    234   1      0.1529 224262.4000
    233    240   1      0.1090 284512.0000
    233    241   1      0.1090 284512.0000
    234    235   1      0.1529 224262.4000
    234    242   1      0.1090 284512.0000
    234    254   1      0.1529 224262.4000
    235    236   1      0.1529 224262.4000
    235    243   1      0.1090 284512.0000
    235    244   1      0.1090 284512.0000
    236    237   1      0.1529 224262.4000
    236    238   1      0.1529 224262.4000
    236    239   1      0.1529 224262.4000
    237    245   1      0.1090 284512.0000
    237    246   1      0.1090 284512.0000
    237    247   1      0.1090 284512.0000
    238    248   1      0.1090 284512.0000
    238    249   1      0.1090 284512.0000
    238    250   1      0.1090 284512.0000
    239    251   1      0.1090 284512.0000
    239    252   1      0.1090 284512.0000
    239    253   1      0.1090 284512.0000
    254    255   1      0.1529 224262.4000
    254    261   1      0.1090 284512.0000
    254    262   1      0.1090 284512.0000
    255    256   1      0.1529 224262.4000
    255    263   1      0.1090 284512.0000
    255    275   1      0.1529 224262.4000
    256    257   1      0.1529 224262.4000
    256    264   1      0.1090 284512.0000
    256    265   1      0.1090 284512.0000
    257    258   1      0.1529 224262.4000
    257    259   1      0.1529 224262.4000
    257    260   1      0.1529 224262.4000
    258    266   1      0.1090 284512.0000
    258    267   1      0.1090 284512.0000
    258    268   1      0.1090 284512.0000
    259    269   1      0.1090 284512.0000
    259    270   1      0.1090 284512.0000
    259    271   1      0.1090 284512.0000
    260    272   1      0.1090 284512.0000
    260    273   1      0.1090 284512.0000
    260    274   1      0.1090 284512.0000
    275    276   1      0.1529 224262.4000
    275    282   1      0.1090 284512.0000
    275    283   1      0.1090 284512.0000
    276    277   1      0.1529 224262.4000
    276    284   1      0.1090 284512.0000
    276    296   1      0.1529 224262.4000
    277    278   1      0.1529 224262.4000
    277    285   1      0.1090 284512.0000
    277    286   1      0.1090 284512.0000
    278    279   1      0.1529 224262.4000
    278    280   1      0.1529 224262.4000
    278    281   1      0.1529 224262.4000
    279    287   1      0.1090 284512.0000
    279    288   1      0.1090 284512.0000
    279    289   1      0.1090 284512.0000
    280    290   1      0.1090 284512.0000
    280    291   1      0.1090 284512.0000
    280    292   1      0.1090 284512.0000
    281    293   1      0.1090 284512.0000
    281    294   1      0.1090 284512.0000
    281    295   1      0.1090 284512.0000
    296    297   1      0.1529 224262.4000
    296    303   1      0.1090 284512.0000
    296    304   1      0.1090 284512.0000
    297    298   1      0.1529 224262.4000
    297    305   1      0.1090 284512.0000
    297    317   1      0.1529 224262.4000
    298    299   1      0.1529 224262.4000
    298    306   1      0.1090 284512.0000
    298    307   1      0.1090 284512.0000
    299    300   1      0.1529 224262.4000
    299    301   1      0.1529 224262.4000
    299    302   1      0.1529 224262.4000
    300    308   1      0.1090 284512.0000
    300    309   1      0.1090 284512.0000
    300    310   1      0.1090 284512.0000
    301    311   1      0.1090 284512.0000
    301    312   1      0.1090 284512.0000
    301    313   1      0.1090 284512.0000
    302    314   1      0.1090 284512.0000
    302    315   1      0.1090 284512.0000
    302    316   1      0.1090 284512.0000
    317    318   1      0.1529 224262.4000
    317    324   1      0.1090 284512.0000
    317    325   1      0.1090 284512.0000
    318    319   1      0.1529 224262.4000
    318    326   1      0.1090 284512.0000
    318    338   1      0.1529 224262.4000
    319    320   1      0.1529 224262.4000
    319    327   1      0.1090 284512.0000
    319    328   1      0.1090 284512.0000
    320    321   1      0.1529 224262.4000
    320    322   1      0.1529 224262.4000
    320    323   1      0.1529 224262.4000
    321    329   1      0.1090 284512.0000
    321    330   1      0.1090 284512.0000
    321    331   1      0.1090 284512.0000
    322    332   1      0.1090 284512.0000
    322    333   1      0.1090 284512.0000
    322    334   1      0.1090 284512.0000
    323    335   1      0.1090 284512.0000
    323    336   1      0.1090 284512.0000
    323    337   1      0.1090 284512.0000
    338    339   1      0.1529 224262.4000
    338    345   1      0.1090 284512.0000
    338    346   1      0.1090 284512.0000
    339    340   1      0.1529 224262.4000
    339    347   1      0.1090 284512.0000
    339    359   1      0.1529 224262.4000
    340    341   1      0.1529 224262.4000
    340    348   1      0.1090 284512.0000
    340    349   1      0.1090 284512.0000
    341    342   1      0.1529 224262.4000
    341    343   1      0.1529 224262.4000
    341    344   1      0.1529 224262.4000
    342    350   1      0.1090 284512.0000
    342    351   1      0.1090 284512.0000
    342    352   1      0.1090 284512.0000
    343    353   1      0.1090 284512.0000
    343    354   1      0.1090 284512.0000
    343    355   1      0.1090 284512.0000
    344    356   1      0.1090 284512.0000
    344    357   1      0.1090 284512.0000
    344    358   1      0.1090 284512.0000
    359    360   1      0.1529 224262.4000
    359    366   1      0.1090 284512.0000
    359    367   1      0.1090 284512.0000
    360    361   1      0.1529 224262.4000
    360    368   1      0.1090 284512.0000
    360    380   1      0.1529 224262.4000
    361    362   1      0.1529 224262.4000
    361    369   1      0.1090 284512.0000
    361    370   1      0.1090 284512.0000
    362    363   1      0.1529 224262.4000
    362    364   1      0.1529 224262.4000
    362    365   1      0.1529 224262.4000
    363    371   1      0.1090 284512.0000
    363    372   1      0.1090 284512.0000
    363    373   1      0.1090 284512.0000
    364    374   1      0.1090 284512.0000
    364    375   1      0.1090 284512.0000
    364    376   1      0.1090 284512.0000
    365    377   1      0.1090 284512.0000
    365    378   1      0.1090 284512.0000
    365    379   1      0.1090 284512.0000
    380    381   1      0.1529 224262.4000
    380    387   1      0.1090 284512.0000
    380    388   1      0.1090 284512.0000
    381    382   1      0.1529 224262.4000
    381    389   1      0.1090 284512.0000
    381    401   1      0.1529 224262.4000
    382    383   1      0.1529 224262.4000
    382    390   1      0.1090 284512.0000
    382    391   1      0.1090 284512.0000
    383    384   1      0.1529 224262.4000
    383    385   1      0.1529 224262.4000
    383    386   1      0.1529 224262.4000
    384    392   1      0.1090 284512.0000
    384    393   1      0.1090 284512.0000
    384    394   1      0.1090 284512.0000
    385    395   1      0.1090 284512.0000
    385    396   1      0.1090 284512.0000
    385    397   1      0.1090 284512.0000
    386    398   1      0.1090 284512.0000
    386    399   1      0.1090 284512.0000
    386    400   1      0.1090 284512.0000
    401    402   1      0.1529 224262.4000
    401    408   1      0.1090 284512.0000
    401    409   1      0.1090 284512.0000
    402    403   1      0.1529 224262.4000
    402    410   1      0.1090 284512.0000
    402    422   1      0.1090 284512.0000
    403    404   1      0.1529 224262.4000
    403    411   1      0.1090 284512.0000
    403    412   1      0.1090 284512.0000
    404    405   1      0.1529 224262.4000
    404    406   1      0.1529 224262.4000
    404    407   1      0.1529 224262.4000
    405    413   1      0.1090 284512.0000
    405    414   1      0.1090 284512.0000
    405    415   1      0.1090 284512.0000
    406    416   1      0.1090 284512.0000
    406    417   1      0.1090 284512.0000
    406    418   1      0.1090 284512.0000
    407    419   1      0.1090 284512.0000
    407    420   1      0.1090 284512.0000
    407    421   1      0.1090 284512.0000

[ pairs ]
; ai   aj   funct   fudge_QQ  charge_i   charge_j   c6    c12
      8      3   2   0.50000     0.0600000   -0.1200000   2.494471e-04  1.671101e-07
      8     10   2   0.50000     0.0600000    0.0600000   6.128906e-05  1.496315e-08
      8     23   2   0.50000     0.0600000   -0.1200000   2.494471e-04  1.671101e-07
      9      3   2   0.50000     0.0600000   -0.1200000   2.494471e-04  1.671101e-07
      9     10   2   0.50000     0.0600000    0.0600000   6.128906e-05  1.496315e-08
      9     23   2   0.50000     0.0600000   -0.1200000   2.494471e-04  1.671101e-07
     22      3   2   0.50000     0.0600000   -0.1200000   2.494471e-04  1.671101e-07
     22     10   2   0.50000     0.0600000    0.0600000   6.128906e-05  1.496315e-08
     22     23   2   0.50000     0.0600000   -0.1200000   2.494471e-04  1.671101e-07
      1      4   2   0.50000    -0.1800000    0.0000000   1.015252e-03  1.866303e-06
      1     11   2   0.50000    -0.1800000    0.0600000   2.494471e-04  1.671101e-07
      1     12   2   0.50000    -0.1800000    0.0600000   2.494471e-04  1.671101e-07
     10      4   2   0.50000     0.0600000    0.0000000   2.494471e-04  1.671101e-07
     10     11   2   0.50000     0.0600000    0.0600000   6.128906e-05  1.496315e-08
     10     12   2   0.50000     0.0600000    0.0600000   6.128906e-05  1.496315e-08
     23      4   2   0.50000    -0.1200000    0.0000000   1.015252e-03  1.866303e-06
     23     11   2   0.50000    -0.1200000    0.0600000   2.494471e-04  1.671101e-07
     23     12   2   0.50000    -0.1200000    0.0600000   2.494471e-04  1.671101e-07
      1     24   2   0.50000    -0.1800000   -0.0600000   1.015252e-03  1.866303e-06
      1     30   2   0.50000    -0.1800000    0.0600000   2.494471e-04  1.671101e-07
      1     31   2   0.50000    -0.1800000    0.0600000   2.494471e-04  1.671101e-07
      3     24   2   0.50000    -0.1200000   -0.0600000   1.015252e-03  1.866303e-06
      3     30   2   0.50000    -0.1200000    0.0600000   2.494471e-04  1.671101e-07
      3     31   2   0.50000    -0.1200000    0.0600000   2.494471e-04  1.671101e-07
     10     24   2   0.50000     0.0600000   -0.0600000   2.494471e-04  1.671101e-07
     10     30   2   0.50000     0.0600000    0.0600000   6.128906e-05  1.496315e-08
     10     31   2   0.50000     0.0600000    0.0600000   6.128906e-05  1.496315e-08
      2      5   2   0.50000    -0.0600000   -0.1800000   1.015252e-03  1.866303e-06
      2      6   2   0.50000    -0.0600000   -0.1800000   1.015252e-03  1.866303e-06
      2      7   2   0.50000    -0.0600000   -0.1800000   1.015252e-03  1.866303e-06
     11      5   2   0.50000     0.0600000   -0.1800000   2.494471e-04  1.671101e-07
     11      6   2   0.50000     0.0600000   -0.1800000   2.494471e-04  1.671101e-07
     11      7   2   0.50000     0.0600000   -0.1800000   2.494471e-04  1.671101e-07
     12      5   2   0.50000     0.0600000   -0.1800000   2.494471e-04  1.671101e-07
     12      6   2   0.50000     0.0600000   -0.1800000   2.494471e-04  1.671101e-07
     12      7   2   0.50000     0.0600000   -0.1800000   2.494471e-04  1.671101e-07
      3     13   2   0.50000    -0.1200000    0.0600000   2.494471e-04  1.671101e-07
      3     14   2   0.50000    -0.1200000    0.0600000   2.494471e-04  1.671101e-07
      3     15   2   0.50000    -0.1200000    0.0600000   2.494471e-04  1.671101e-07
      6     13   2   0.50000    -0.1800000    0.0600000   2.494471e-04  1.671101e-07
      6     14   2   0.50000    -0.1800000    0.0600000   2.494471e-04  1.671101e-07
      6     15   2   0.50000    -0.1800000    0.0600000   2.494471e-04  1.671101e-07
      7     13   2   0.50000    -0.1800000    0.0600000   2.494471e-04  1.671101e-07
      7     14   2   0.50000    -0.1800000    0.0600000   2.494471e-04  1.671101e-07
      7     15   2   0.50000    -0.1800000    0.0600000   2.494471e-04  1.671101e-07
      3     16   2   0.50000    -0.1200000    0.0600000   2.494471e-04  1.671101e-07
      3     17   2   0.50000    -0.1200000    0.0600000   2.494471e-04  1.671101e-07
      3     18   2   0.50000    -0.1200000    0.0600000   2.494471e-04  1.671101e-07
      5     16   2   0.50000    -0.1800000    0.0600000   2.494471e-04  1.671101e-07
      5     17   2   0.50000    -0.1800000    0.0600000   2.494471e-04  1.671101e-07
      5     18   2   0.50000    -0.1800000    0.0600000   2.494471e-04  1.671101e-07
      7     16   2   0.50000    -0.1800000    0.0600000   2.494471e-04  1.671101e-07
      7     17   2   0.50000    -0.1800000    0.0600000   2.494471e-04  1.671101e-07
      7     18   2   0.50000    -0.1800000    0.0600000   2.494471e-04  1.671101e-07
      3     19   2   0.50000    -0.1200000    0.0600000   2.494471e-04  1.671101e-07
      3     20   2   0.50000    -0.1200000    0.0600000   2.494471e-04  1.671101e-07
      3     21   2   0.50000    -0.1200000    0.0600000   2.494471e-04  1.671101e-07
      5     19   2   0.50000    -0.1800000    0.0600000   2.494471e-04  1.671101e-07
      5     20   2   0.50000    -0.1800000    0.0600000   2.494471e-04  1.671101e-07
      5     21   2   0.50000    -0.1800000    0.0600000   2.494471e-04  1.671101e-07
      6     19   2   0.50000    -0.1800000    0.0600000   2.494471e-04  1.671101e-07
      6     20   2   0.50000    -0.1800000    0.0600000   2.494471e-04  1.671101e-07
      6     21   2   0.50000    -0.1800000    0.0600000   2.494471e-04  1.671101e-07
      2     25   2   0.50000    -0.0600000   -0.1200000   1.015252e-03  1.866303e-06
      2     32   2   0.50000    -0.0600000    0.0600000   2.494471e-04  1.671101e-07
      2     44   2   0.50000    -0.0600000   -0.1200000   1.015252e-03  1.866303e-06
     30     25   2   0.50000     0.0600000   -0.1200000   2.494471e-04  1.671101e-07
     30     32   2   0.50000     0.0600000    0.0600000   6.128906e-05  1.496315e-08
     30     44   2   0.50000     0.0600000   -0.1200000   2.494471e-04  1.671101e-07
     31     25   2   0.50000     0.0600000   -0.1200000   2.494471e-04  1.671101e-07
     31     32   2   0.50000     0.0600000    0.0600000   6.128906e-05  1.496315e-08
     31     44   2   0.50000     0.0600000   -0.1200000   2.494471e-04  1.671101e-07
     23     26   2   0.50000    -0.1200000    0.0000000   1.015252e-03  1.866303e-06
     23     33   2   0.50000    -0.1200000    0.0600000   2.494471e-04  1.671101e-07
     23     34   2   0.50000    -0.1200000    0.0600000   2.494471e-04  1.671101e-07
     32     26   2   0.50000     0.0600000    0.0000000   2.494471e-04  1.671101e-07
     32     33   2   0.50000     0.0600000    0.0600000   6.128906e-05  1.496315e-08
     32     34   2   0.50000     0.0600000    0.0600000   6.128906e-05  1.496315e-08
     44     26   2   0.50000    -0.1200000    0.0000000   1.015252e-03  1.866303e-06
     44     33   2   0.50000    -0.1200000    0.0600000   2.494471e-04  1.671101e-07
     44     34   2   0.50000    -0.1200000    0.0600000   2.494471e-04  1.671101e-07
     23     45   2   0.50000    -0.1200000   -0.0600000   1.015252e-03  1.866303e-06
     23     51   2   0.50000    -0.1200000    0.0600000   2.494471e-04  1.671101e-07
     23     52   2   0.50000    -0.1200000    0.0600000   2.494471e-04  1.671101e-07
     25     45   2   0.50000    -0.1200000   -0.0600000   1.015252e-03  1.866303e-06
     25     51   2   0.50000    -0.1200000    0.0600000   2.494471e-04  1.671101e-07
     25     52   2   0.50000    -0.1200000    0.0600000   2.494471e-04  1.671101e-07
     32     45   2   0.50000     0.0600000   -0.0600000   2.494471e-04  1.671101e-07
     32     51   2   0.50000     0.0600000    0.0600000   6.128906e-05  1.496315e-08
     32     52   2   0.50000     0.0600000    0.0600000   6.128906e-05  1.496315e-08
     24     27   2   0.50000    -0.0600000   -0.1800000   1.015252e-03  1.866303e-06
     24     28   2   0.50000    -0.0600000   -0.1800000   1.015252e-03  1.866303e-06
     24     29   2   0.50000    -0.0600000   -0.1800000   1.015252e-03  1.866303e-06
     33     27   2   0.50000     0.0600000   -0.1800000   2.494471e-04  1.671101e-07
     33     28   2   0.50000     0.0600000   -0.1800000   2.494471e-04  1.671101e-07
     33     29   2   0.50000     0.0600000   -0.1800000   2.494471e-04  1.671101e-07
     34     27   2   0.50000     0.0600000   -0.1800000   2.494471e-04  1.671101e-07
     34     28   2   0.50000     0.0600000   -0.1800000   2.494471e-04  1.671101e-07
     34     29   2   0.50000     0.0600000   -0.1800000   2.494471e-04  1.671101e-07
     25     35   2   0.50000    -0.1200000    0.0600000   2.494471e-04  1.671101e-07
     25     36   2   0.50000    -0.1200000    0.0600000   2.494471e-04  1.671101e-07
     25     37   2   0.50000    -0.1200000    0.0600000   2.494471e-04  1.671101e-07
     28     35   2   0.50000    -0.1800000    0.0600000   2.494471e-04  1.671101e-07
     28     36   2   0.50000    -0.1800000    0.0600000   2.494471e-04  1.671101e-07
     28     37   2   0.50000    -0.1800000    0.0600000   2.494471e-04  1.671101e-07
     29     35   2   0.50000    -0.1800000    0.0600000   2.494471e-04  1.671101e-07
     29     36   2   0.50000    -0.1800000    0.0600000   2.494471e-04  1.671101e-07
     29     37   2   0.50000    -0.1800000    0.0600000   2.494471e-04  1.671101e-07
     25     38   2   0.50000    -0.1200000    0.0600000   2.494471e-04  1.671101e-07
     25     39   2   0.50000    -0.1200000    0.0600000   2.494471e-04  1.671101e-07
     25     40   2   0.50000    -0.1200000    0.0600000   2.494471e-04  1.671101e-07
     27     38   2   0.50000    -0.1800000    0.0600000   2.494471e-04  1.671101e-07
     27     39   2   0.50000    -0.1800000    0.0600000   2.494471e-04  1.671101e-07
     27     40   2   0.50000    -0.1800000    0.0600000   2.494471e-04  1.671101e-07
     29     38   2   0.50000    -0.1800000    0.0600000   2.494471e-04  1.671101e-07
     29     39   2   0.50000    -0.1800000    0.0600000   2.494471e-04  1.671101e-07
     29     40   2   0.50000    -0.1800000    0.0600000   2.494471e-04  1.671101e-07
     25     41   2   0.50000    -0.1200000    0.0600000   2.494471e-04  1.671101e-07
     25     42   2   0.50000    -0.1200000    0.0600000   2.494471e-04  1.671101e-07
     25     43   2   0.50000    -0.1200000    0.0600000   2.494471e-04  1.671101e-07
     27     41   2   0.50000    -0.1800000    0.0600000   2.494471e-04  1.671101e-07
     27     42   2   0.50000    -0.1800000    0.0600000   2.494471e-04  1.671101e-07
     27     43   2   0.50000    -0.1800000    0.0600000   2.494471e-04  1.671101e-07
     28     41   2   0.50000    -0.1800000    0.0600000   2.494471e-04  1.671101e-07
     28     42   2   0.50000    -0.1800000    0.0600000   2.494471e-04  1.671101e-07
     28     43   2   0.50000    -0.1800000    0.0600000   2.494471e-04  1.671101e-07
     24     46   2   0.50000    -0.0600000   -0.1200000   1.015252e-03  1.866303e-06
     24     53   2   0.50000    -0.0600000    0.0600000   2.494471e-04  1.671101e-07
     24     65   2   0.50000    -0.0600000   -0.1200000   1.015252e-03  1.866303e-06
     51     46   2   0.50000     0.0600000   -0.1200000   2.494471e-04  1.671101e-07
     51     53   2   0.50000     0.0600000    0.0600000   6.128906e-05  1.496315e-08
     51     65   2   0.50000     0.0600000   -0.1200000   2.494471e-04  1.671101e-07
     52     46   2   0.50000     0.0600000   -0.1200000   2.494471e-04  1.671101e-07
     52     53   2   0.50000     0.0600000    0.0600000   6.128906e-05  1.496315e-08
     52     65   2   0.50000     0.0600000   -0.1200000   2.494471e-04  1.671101e-07
     44     47   2   0.50000    -0.1200000    0.0000000   1.015252e-03  1.866303e-06
     44     54   2   0.50000    -0.1200000    0.0600000   2.494471e-04  1.671101e-07
     44     55   2   0.50000    -0.1200000    0.0600000   2.494471e-04  1.671101e-07
     53     47   2   0.50000     0.0600000    0.0000000   2.494471e-04  1.671101e-07
     53     54   2   0.50000     0.0600000    0.0600000   6.128906e-05  1.496315e-08
     53     55   2   0.50000     0.0600000    0.0600000   6.128906e-05  1.496315e-08
     65     47   2   0.50000    -0.1200000    0.0000000   1.015252e-03  1.866303e-06
     65     54   2   0.50000    -0.1200000    0.0600000   2.494471e-04  1.671101e-07
     65     55   2   0.50000    -0.1200000    0.0600000   2.494471e-04  1.671101e-07
     44     66   2   0.50000    -0.1200000   -0.0600000   1.015252e-03  1.866303e-06
     44     72   2   0.50000    -0.1200000    0.0600000   2.494471e-04  1.671101e-07
     44     73   2   0.50000    -0.1200000    0.0600000   2.494471e-04  1.671101e-07
     46     66   2   0.50000    -0.1200000   -0.0600000   1.015252e-03  1.866303e-06
     46     72   2   0.50000    -0.1200000    0.0600000   2.494471e-04  1.671101e-07
     46     73   2   0.50000    -0.1200000    0.0600000   2.494471e-04  1.671101e-07
     53     66   2   0.50000     0.0600000   -0.0600000   2.494471e-04  1.671101e-07
     53     72   2   0.50000     0.0600000    0.0600000   6.128906e-05  1.496315e-08
     53     73   2   0.50000     0.0600000    0.0600000   6.128906e-05  1.496315e-08
     45     48   2   0.50000    -0.0600000   -0.1800000   1.015252e-03  1.866303e-06
     45     49   2   0.50000    -0.0600000   -0.1800000   1.015252e-03  1.866303e-06
     45     50   2   0.50000    -0.0600000   -0.1800000   1.015252e-03  1.866303e-06
     54     48   2   0.50000     0.0600000   -0.1800000   2.494471e-04  1.671101e-07
     54     49   2   0.50000     0.0600000   -0.1800000   2.494471e-04  1.671101e-07
     54     50   2   0.50000     0.0600000   -0.1800000   2.494471e-04  1.671101e-07
     55     48   2   0.50000     0.0600000   -0.1800000   2.494471e-04  1.671101e-07
     55     49   2   0.50000     0.0600000   -0.1800000   2.494471e-04  1.671101e-07
     55     50   2   0.50000     0.0600000   -0.1800000   2.494471e-04  1.671101e-07
     46     56   2   0.50000    -0.1200000    0.0600000   2.494471e-04  1.671101e-07
     46     57   2   0.50000    -0.1200000    0.0600000   2.494471e-04  1.671101e-07
     46     58   2   0.50000    -0.1200000    0.0600000   2.494471e-04  1.671101e-07
     49     56   2   0.50000    -0.1800000    0.0600000   2.494471e-04  1.671101e-07
     49     57   2   0.50000    -0.1800000    0.0600000   2.494471e-04  1.671101e-07
     49     58   2   0.50000    -0.1800000    0.0600000   2.494471e-04  1.671101e-07
     50     56   2   0.50000    -0.1800000    0.0600000   2.494471e-04  1.671101e-07
     50     57   2   0.50000    -0.1800000    0.0600000   2.494471e-04  1.671101e-07
     50     58   2   0.50000    -0.1800000    0.0600000   2.494471e-04  1.671101e-07
     46     59   2   0.50000    -0.1200000    0.0600000   2.494471e-04  1.671101e-07
     46     60   2   0.50000    -0.1200000    0.0600000   2.494471e-04  1.671101e-07
     46     61   2   0.50000    -0.1200000    0.0600000   2.494471e-04  1.671101e-07
     48     59   2   0.50000    -0.1800000    0.0600000   2.494471e-04  1.671101e-07
     48     60   2   0.50000    -0.1800000    0.0600000   2.494471e-04  1.671101e-07
     48     61   2   0.50000    -0.1800000    0.0600000   2.494471e-04  1.671101e-07
     50     59   2   0.50000    -0.1800000    0.0600000   2.494471e-04  1.671101e-07
     50     60   2   0.50000    -0.1800000    0.0600000   2.494471e-04  1.671101e-07
     50     61   2   0.50000    -0.1800000    0.0600000   2.494471e-04  1.671101e-07
     46     62   2   0.50000    -0.1200000    0.0600000   2.494471e-04  1.671101e-07
     46     63   2   0.50000    -0.1200000    0.0600000   2.494471e-04  1.671101e-07
     46     64   2   0.50000    -0.1200000    0.0600000   2.494471e-04  1.671101e-07
     48     62   2   0.50000    -0.1800000    0.0600000   2.494471e-04  1.671101e-07
     48     63   2   0.50000    -0.1800000    0.0600000   2.494471e-04  1.671101e-07
     48     64   2   0.50000    -0.1800000    0.0600000   2.494471e-04  1.671101e-07
     49     62   2   0.50000    -0.1800000    0.0600000   2.494471e-04  1.671101e-07
     49     63   2   0.50000    -0.1800000    0.0600000   2.494471e-04  1.671101e-07
     49     64   2   0.50000    -0.1800000    0.0600000   2.494471e-04  1.671101e-07
     45     67   2   0.50000    -0.0600000   -0.1200000   1.015252e-03  1.866303e-06
     45     74   2   0.50000    -0.0600000    0.0600000   2.494471e-04  1.671101e-07
     45     86   2   0.50000    -0.0600000   -0.1200000   1.015252e-03  1.866303e-06
     72     67   2   0.50000     0.0600000   -0.1200000   2.494471e-04  1.671101e-07
     72     74   2   0.50000     0.0600000    0.0600000   6.128906e-05  1.496315e-08
     72     86   2   0.50000     0.0600000   -0.1200000   2.494471e-04  1.671101e-07
     73     67   2   0.50000     0.0600000   -0.1200000   2.494471e-04  1.671101e-07
     73     74   2   0.50000     0.0600000    0.0600000   6.128906e-05  1.496315e-08
     73     86   2   0.50000     0.0600000   -0.1200000   2.494471e-04  1.671101e-07
     65     68   2   0.50000    -0.1200000    0.0000000   1.015252e-03  1.866303e-06
     65     75   2   0.50000    -0.1200000    0.0600000   2.494471e-04  1.671101e-07
     65     76   2   0.50000    -0.1200000    0.0600000   2.494471e-04  1.671101e-07
     74     68   2   0.50000     0.0600000    0.0000000   2.494471e-04  1.671101e-07
     74     75   2   0.50000     0.0600000    0.0600000   6.128906e-05  1.496315e-08
     74     76   2   0.50000     0.0600000    0.0600000   6.128906e-05  1.496315e-08
     86     68   2   0.50000    -0.1200000    0.0000000   1.015252e-03  1.866303e-06
     86     75   2   0.50000    -0.1200000    0.0600000   2.494471e-04  1.671101e-07
     86     76   2   0.50000    -0.1200000    0.0600000   2.494471e-04  1.671101e-07
     65     87   2   0.50000    -0.1200000   -0.0600000   1.015252e-03  1.866303e-06
     65     93   2   0.50000    -0.1200000    0.0600000   2.494471e-04  1.671101e-07
     65     94   2   0.50000    -0.1200000    0.0600000   2.494471e-04  1.671101e-07
     67     87   2   0.50000    -0.1200000   -0.0600000   1.015252e-03  1.866303e-06
     67     93   2   0.50000    -0.1200000    0.0600000   2.494471e-04  1.671101e-07
     67     94   2   0.50000    -0.1200000    0.0600000   2.494471e-04  1.671101e-07
     74     87   2   0.50000     0.0600000   -0.0600000   2.494471e-04  1.671101e-07
     74     93   2   0.50000     0.0600000    0.0600000   6.128906e-05  1.496315e-08
     74     94   2   0.50000     0.0600000    0.0600000   6.128906e-05  1.496315e-08
     66     69   2   0.50000    -0.0600000   -0.1800000   1.015252e-03  1.866303e-06
     66     70   2   0.50000    -0.0600000   -0.1800000   1.015252e-03  1.866303e-06
     66     71   2   0.50000    -0.0600000   -0.1800000   1.015252e-03  1.866303e-06
     75     69   2   0.50000     0.0600000   -0.1800000   2.494471e-04  1.671101e-07
     75     70   2   0.50000     0.0600000   -0.1800000   2.494471e-04  1.671101e-07
     75     71   2   0.50000     0.0600000   -0.1800000   2.494471e-04  1.671101e-07
     76     69   2   0.50000     0.0600000   -0.1800000   2.494471e-04  1.671101e-07
     76     70   2   0.50000     0.0600000   -0.1800000   2.494471e-04  1.671101e-07
     76     71   2   0.50000     0.0600000   -0.1800000   2.494471e-04  1.671101e-07
     67     77   2   0.50000    -0.1200000    0.0600000   2.494471e-04  1.671101e-07
     67     78   2   0.50000    -0.1200000    0.0600000   2.494471e-04  1.671101e-07
     67     79   2   0.50000    -0.1200000    0.0600000   2.494471e-04  1.671101e-07
     70     77   2   0.50000    -0.1800000    0.0600000   2.494471e-04  1.671101e-07
     70     78   2   0.50000    -0.1800000    0.0600000   2.494471e-04  1.671101e-07
     70     79   2   0.50000    -0.1800000    0.0600000   2.494471e-04  1.671101e-07
     71     77   2   0.50000    -0.1800000    0.0600000   2.494471e-04  1.671101e-07
     71     78   2   0.50000    -0.1800000    0.0600000   2.494471e-04  1.671101e-07
     71     79   2   0.50000    -0.1800000    0.0600000   2.494471e-04  1.671101e-07
     67     80   2   0.50000    -0.1200000    0.0600000   2.494471e-04  1.671101e-07
     67     81   2   0.50000    -0.1200000    0.0600000   2.494471e-04  1.671101e-07
     67     82   2   0.50000    -0.1200000    0.0600000   2.494471e-04  1.671101e-07
     69     80   2   0.50000    -0.1800000    0.0600000   2.494471e-04  1.671101e-07
     69     81   2   0.50000    -0.1800000    0.0600000   2.494471e-04  1.671101e-07
     69     82   2   0.50000    -0.1800000    0.0600000   2.494471e-04  1.671101e-07
     71     80   2   0.50000    -0.1800000    0.0600000   2.494471e-04  1.671101e-07
     71     81   2   0.50000    -0.1800000    0.0600000   2.494471e-04  1.671101e-07
     71     82   2   0.50000    -0.1800000    0.0600000   2.494471e-04  1.671101e-07
     67     83   2   0.50000    -0.1200000    0.0600000   2.494471e-04  1.671101e-07
     67     84   2   0.50000    -0.1200000    0.0600000   2.494471e-04  1.671101e-07
     67     85   2   0.50000    -0.1200000    0.0600000   2.494471e-04  1.671101e-07
     69     83   2   0.50000    -0.1800000    0.0600000   2.494471e-04  1.671101e-07
     69     84   2   0.50000    -0.1800000    0.0600000   2.494471e-04  1.671101e-07
     69     85   2   0.50000    -0.1800000    0.0600000   2.494471e-04  1.671101e-07
     70     83   2   0.50000    -0.1800000    0.0600000   2.494471e-04  1.671101e-07
     70     84   2   0.50000    -0.1800000    0.0600000   2.494471e-04  1.671101e-07
     70     85   2   0.50000    -0.1800000    0.0600000   2.494471e-04  1.671101e-07
     66     88   2   0.50000    -0.0600000   -0.1200000   1.015252e-03  1.866303e-06
     66     95   2   0.50000    -0.0600000    0.0600000   2.494471e-04  1.671101e-07
     66    107   2   0.50000    -0.0600000   -0.1200000   1.015252e-03  1.866303e-06
     93     88   2   0.50000     0.0600000   -0.1200000   2.494471e-04  1.671101e-07
     93     95   2   0.50000     0.0600000    0.0600000   6.128906e-05  1.496315e-08
     93    107   2   0.50000     0.0600000   -0.1200000   2.494471e-04  1.671101e-07
     94     88   2   0.50000     0.0600000   -0.1200000   2.494471e-04  1.671101e-07
     94     95   2   0.50000     0.0600000    0.0600000   6.128906e-05  1.496315e-08
     94    107   2   0.50000     0.0600000   -0.1200000   2.494471e-04  1.671101e-07
     86     89   2   0.50000    -0.1200000    0.0000000   1.015252e-03  1.866303e-06
     86     96   2   0.50000    -0.1200000    0.0600000   2.494471e-04  1.671101e-07
     86     97   2   0.50000    -0.1200000    0.0600000   2.494471e-04  1.671101e-07
     95     89   2   0.50000     0.0600000    0.0000000   2.494471e-04  1.671101e-07
     95     96   2   0.50000     0.0600000    0.0600000   6.128906e-05  1.496315e-08
     95     97   2   0.50000     0.0600000    0.0600000   6.128906e-05  1.496315e-08
    107     89   2   0.50000    -0.1200000    0.0000000   1.015252e-03  1.866303e-06
    107     96   2   0.50000    -0.1200000    0.0600000   2.494471e-04  1.671101e-07
    107     97   2   0.50000    -0.1200000    0.0600000   2.494471e-04  1.671101e-07
     86    108   2   0.50000    -0.1200000   -0.0600000   1.015252e-03  1.866303e-06
     86    114   2   0.50000    -0.1200000    0.0600000   2.494471e-04  1.671101e-07
     86    115   2   0.50000    -0.1200000    0.0600000   2.494471e-04  1.671101e-07
     88    108   2   0.50000    -0.1200000   -0.0600000   1.015252e-03  1.866303e-06
     88    114   2   0.50000    -0.1200000    0.0600000   2.494471e-04  1.671101e-07
     88    115   2   0.50000    -0.1200000    0.0600000   2.494471e-04  1.671101e-07
     95    108   2   0.50000     0.0600000   -0.0600000   2.494471e-04  1.671101e-07
     95    114   2   0.50000     0.0600000    0.0600000   6.128906e-05  1.496315e-08
     95    115   2   0.50000     0.0600000    0.0600000   6.128906e-05  1.496315e-08
     87     90   2   0.50000    -0.0600000   -0.1800000   1.015252e-03  1.866303e-06
     87     91   2   0.50000    -0.0600000   -0.1800000   1.015252e-03  1.866303e-06
     87     92   2   0.50000    -0.0600000   -0.1800000   1.015252e-03  1.866303e-06
     96     90   2   0.50000     0.0600000   -0.1800000   2.494471e-04  1.671101e-07
     96     91   2   0.50000     0.0600000   -0.1800000   2.494471e-04  1.671101e-07
     96     92   2   0.50000     0.0600000   -0.1800000   2.494471e-04  1.671101e-07
     97     90   2   0.50000     0.0600000   -0.1800000   2.494471e-04  1.671101e-07
     97     91   2   0.50000     0.0600000   -0.1800000   2.494471e-04  1.671101e-07
     97     92   2   0.50000     0.0600000   -0.1800000   2.494471e-04  1.671101e-07
     88     98   2   0.50000    -0.1200000    0.0600000   2.494471e-04  1.671101e-07
     88     99   2   0.50000    -0.1200000    0.0600000   2.494471e-04  1.671101e-07
     88    100   2   0.50000    -0.1200000    0.0600000   2.494471e-04  1.671101e-07
     91     98   2   0.50000    -0.1800000    0.0600000   2.494471e-04  1.671101e-07
     91     99   2   0.50000    -0.1800000    0.0600000   2.494471e-04  1.671101e-07
     91    100   2   0.50000    -0.1800000    0.0600000   2.494471e-04  1.671101e-07
     92     98   2   0.50000    -0.1800000    0.0600000   2.494471e-04  1.671101e-07
     92     99   2   0.50000    -0.1800000    0.0600000   2.494471e-04  1.671101e-07
     92    100   2   0.50000    -0.1800000    0.0600000   2.494471e-04  1.671101e-07
     88    101   2   0.50000    -0.1200000    0.0600000   2.494471e-04  1.671101e-07
     88    102   2   0.50000    -0.1200000    0.0600000   2.494471e-04  1.671101e-07
     88    103   2   0.50000    -0.1200000    0.0600000   2.494471e-04  1.671101e-07
     90    101   2   0.50000    -0.1800000    0.0600000   2.494471e-04  1.671101e-07
     90    102   2   0.50000    -0.1800000    0.0600000   2.494471e-04  1.671101e-07
     90    103   2   0.50000    -0.1800000    0.0600000   2.494471e-04  1.671101e-07
     92    101   2   0.50000    -0.1800000    0.0600000   2.494471e-04  1.671101e-07
     92    102   2   0.50000    -0.1800000    0.0600000   2.494471e-04  1.671101e-07
     92    103   2   0.50000    -0.1800000    0.0600000   2.494471e-04  1.671101e-07
     88    104   2   0.50000    -0.1200000    0.0600000   2.494471e-04  1.671101e-07
     88    105   2   0.50000    -0.1200000    0.0600000   2.494471e-04  1.671101e-07
     88    106   2   0.50000    -0.1200000    0.0600000   2.494471e-04  1.671101e-07
     90    104   2   0.50000    -0.1800000    0.0600000   2.494471e-04  1.671101e-07
     90    105   2   0.50000    -0.1800000    0.0600000   2.494471e-04  1.671101e-07
     90    106   2   0.50000    -0.1800000    0.0600000   2.494471e-04  1.671101e-07
     91    104   2   0.50000    -0.1800000    0.0600000   2.494471e-04  1.671101e-07
     91    105   2   0.50000    -0.1800000    0.0600000   2.494471e-04  1.671101e-07
     91    106   2   0.50000    -0.1800000    0.0600000   2.494471e-04  1.671101e-07
     87    109   2   0.50000    -0.0600000   -0.1200000   1.015252e-03  1.866303e-06
     87    116   2   0.50000    -0.0600000    0.0600000   2.494471e-04  1.671101e-07
     87    128   2   0.50000    -0.0600000   -0.1200000   1.015252e-03  1.866303e-06
    114    109   2   0.50000     0.0600000   -0.1200000   2.494471e-04  1.671101e-07
    114    116   2   0.50000     0.0600000    0.0600000   6.128906e-05  1.496315e-08
    114    128   2   0.50000     0.0600000   -0.1200000   2.494471e-04  1.671101e-07
    115    109   2   0.50000     0.0600000   -0.1200000   2.494471e-04  1.671101e-07
    115    116   2   0.50000     0.0600000    0.0600000   6.128906e-05  1.496315e-08
    115    128   2   0.50000     0.0600000   -0.1200000   2.494471e-04  1.671101e-07
    107    110   2   0.50000    -0.1200000    0.0000000   1.015252e-03  1.866303e-06
    107    117   2   0.50000    -0.1200000    0.0600000   2.494471e-04  1.671101e-07
    107    118   2   0.50000    -0.1200000    0.0600000   2.494471e-04  1.671101e-07
    116    110   2   0.50000     0.0600000    0.0000000   2.494471e-04  1.671101e-07
    116    117   2   0.50000     0.0600000    0.0600000   6.128906e-05  1.496315e-08
    116    118   2   0.50000     0.0600000    0.0600000   6.128906e-05  1.496315e-08
    128    110   2   0.50000    -0.1200000    0.0000000   1.015252e-03  1.866303e-06
    128    117   2   0.50000    -0.1200000    0.0600000   2.494471e-04  1.671101e-07
    128    118   2   0.50000    -0.1200000    0.0600000   2.494471e-04  1.671101e-07
    107    129   2   0.50000    -0.1200000   -0.0600000   1.015252e-03  1.866303e-06
    107    135   2   0.50000    -0.1200000    0.0600000   2.494471e-04  1.671101e-07
    107    136   2   0.50000    -0.1200000    0.0600000   2.494471e-04  1.671101e-07
    109    129   2   0.50000    -0.1200000   -0.0600000   1.015252e-03  1.866303e-06
    109    135   2   0.50000    -0.1200000    0.0600000   2.494471e-04  1.671101e-07
    109    136   2   0.50000    -0.1200000    0.0600000   2.494471e-04  1.671101e-07
    116    129   2   0.50000     0.0600000   -0.0600000   2.494471e-04  1.671101e-07
    116    135   2   0.50000     0.0600000    0.0600000   6.128906e-05  1.496315e-08
    116    136   2   0.50000     0.0600000    0.0600000   6.128906e-05  1.496315e-08
    108    111   2   0.50000    -0.0600000   -0.1800000   1.015252e-03  1.866303e-06
    108    112   2   0.50000    -0.0600000   -0.1800000   1.015252e-03  1.866303e-06
    108    113   2   0.50000    -0.0600000   -0.1800000   1.015252e-03  1.866303e-06
    117    111   2   0.50000     0.0600000   -0.1800000   2.494471e-04  1.671101e-07
    117    112   2   0.50000     0.0600000   -0.1800000   2.494471e-04  1.671101e-07
    117    113   2   0.50000     0.0600000   -0.1800000   2.494471e-04  1.671101e-07
    118    111   2   0.50000     0.0600000   -0.1800000   2.494471e-04  1.671101e-07
    118    112   2   0.50000     0.0600000   -0.1800000   2.494471e-04  1.671101e-07
    118    113   2   0.50000     0.0600000   -0.1800000   2.494471e-04  1.671101e-07
    109    119   2   0.50000    -0.1200000    0.0600000   2.494471e-04  1.671101e-07
    109    120   2   0.50000    -0.1200000    0.0600000   2.494471e-04  1.671101e-07
    109    121   2   0.50000    -0.1200000    0.0600000   2.494471e-04  1.671101e-07
    112    119   2   0.50000    -0.1800000    0.0600000   2.494471e-04  1.671101e-07
    112    120   2   0.50000    -0.1800000    0.0600000   2.494471e-04  1.671101e-07
    112    121   2   0.50000    -0.1800000    0.0600000   2.494471e-04  1.671101e-07
    113    119   2   0.50000    -0.1800000    0.0600000   2.494471e-04  1.671101e-07
    113    120   2   0.50000    -0.1800000    0.0600000   2.494471e-04  1.671101e-07
    113    121   2   0.50000    -0.1800000    0.0600000   2.494471e-04  1.671101e-07
    109    122   2   0.50000    -0.1200000    0.0600000   2.494471e-04  1.671101e-07
    109    123   2   0.50000    -0.1200000    0.0600000   2.494471e-04  1.671101e-07
    109    124   2   0.50000    -0.1200000    0.0600000   2.494471e-04  1.671101e-07
    111    122   2   0.50000    -0.1800000    0.0600000   2.494471e-04  1.671101e-07
    111    123   2   0.50000    -0.1800000    0.0600000   2.494471e-04  1.671101e-07
    111    124   2   0.50000    -0.1800000    0.0600000   2.494471e-04  1.671101e-07
    113    122   2   0.50000    -0.1800000    0.0600000   2.494471e-04  1.671101e-07
    113    123   2   0.50000    -0.1800000    0.0600000   2.494471e-04  1.671101e-07
    113    124   2   0.50000    -0.1800000    0.0600000   2.494471e-04  1.671101e-07
    109    125   2   0.50000    -0.1200000    0.0600000   2.494471e-04  1.671101e-07
    109    126   2   0.50000    -0.1200000    0.0600000   2.494471e-04  1.671101e-07
    109    127   2   0.50000    -0.1200000    0.0600000   2.494471e-04  1.671101e-07
    111    125   2   0.50000    -0.1800000    0.0600000   2.494471e-04  1.671101e-07
    111    126   2   0.50000    -0.1800000    0.0600000   2.494471e-04  1.671101e-07
    111    127   2   0.50000    -0.1800000    0.0600000   2.494471e-04  1.671101e-07
    112    125   2   0.50000    -0.1800000    0.0600000   2.494471e-04  1.671101e-07
    112    126   2   0.50000    -0.1800000    0.0600000   2.494471e-04  1.671101e-07
    112    127   2   0.50000    -0.1800000    0.0600000   2.494471e-04  1.671101e-07
    108    130   2   0.50000    -0.0600000   -0.1200000   1.015252e-03  1.866303e-06
    108    137   2   0.50000    -0.0600000    0.0600000   2.494471e-04  1.671101e-07
    108    149   2   0.50000    -0.0600000   -0.1200000   1.015252e-03  1.866303e-06
    135    130   2   0.50000     0.0600000   -0.1200000   2.494471e-04  1.671101e-07
    135    137   2   0.50000     0.0600000    0.0600000   6.128906e-05  1.496315e-08
    135    149   2   0.50000     0.0600000   -0.1200000   2.494471e-04  1.671101e-07
    136    130   2   0.50000     0.0600000   -0.1200000   2.494471e-04  1.671101e-07
    136    137   2   0.50000     0.0600000    0.0600000   6.128906e-05  1.496315e-08
    136    149   2   0.50000     0.0600000   -0.1200000   2.494471e-04  1.671101e-07
    128    131   2   0.50000    -0.1200000    0.0000000   1.015252e-03  1.866303e-06
    128    138   2   0.50000    -0.1200000    0.0600000   2.494471e-04  1.671101e-07
    128    139   2   0.50000    -0.1200000    0.0600000   2.494471e-04  1.671101e-07
    137    131   2   0.50000     0.0600000    0.0000000   2.494471e-04  1.671101e-07
    137    138   2   0.50000     0.0600000    0.0600000   6.128906e-05  1.496315e-08
    137    139   2   0.50000     0.0600000    0.0600000   6.128906e-05  1.496315e-08
    149    131   2   0.50000    -0.1200000    0.0000000   1.015252e-03  1.866303e-06
    149    138   2   0.50000    -0.1200000    0.0600000   2.494471e-04  1.671101e-07
    149    139   2   0.50000    -0.1200000    0.0600000   2.494471e-04  1.671101e-07
    128    150   2   0.50000    -0.1200000   -0.0600000   1.015252e-03  1.866303e-06
    128    156   2   0.50000    -0.1200000    0.0600000   2.494471e-04  1.671101e-07
    128    157   2   0.50000    -0.1200000    0.0600000   2.494471e-04  1.671101e-07
    130    150   2   0.50000    -0.1200000   -0.0600000   1.015252e-03  1.866303e-06
    130    156   2   0.50000    -0.1200000    0.0600000   2.494471e-04  1.671101e-07
    130    157   2   0.50000    -0.1200000    0.0600000   2.494471e-04  1.671101e-07
    137    150   2   0.50000     0.0600000   -0.0600000   2.494471e-04  1.671101e-07
    137    156   2   0.50000     0.0600000    0.0600000   6.128906e-05  1.496315e-08
    137    157   2   0.50000     0.0600000    0.0600000   6.128906e-05  1.496315e-08
    129    132   2   0.50000    -0.0600000   -0.1800000   1.015252e-03  1.866303e-06
    129    133   2   0.50000    -0.0600000   -0.1800000   1.015252e-03  1.866303e-06
    129    134   2   0.50000    -0.0600000   -0.1800000   1.015252e-03  1.866303e-06
    138    132   2   0.50000     0.0600000   -0.1800000   2.494471e-04  1.671101e-07
    138    133   2   0.50000     0.0600000   -0.1800000   2.494471e-04  1.671101e-07
    138    134   2   0.50000     0.0600000   -0.1800000   2.494471e-04  1.671101e-07
    139    132   2   0.50000     0.0600000   -0.1800000   2.494471e-04  1.671101e-07
    139    133   2   0.50000     0.0600000   -0.1800000   2.494471e-04  1.671101e-07
    139    134   2   0.50000     0.0600000   -0.1800000   2.494471e-04  1.671101e-07
    130    140   2   0.50000    -0.1200000    0.0600000   2.494471e-04  1.671101e-07
    130    141   2   0.50000    -0.1200000    0.0600000   2.494471e-04  1.671101e-07
    130    142   2   0.50000    -0.1200000    0.0600000   2.494471e-04  1.671101e-07
    133    140   2   0.50000    -0.1800000    0.0600000   2.494471e-04  1.671101e-07
    133    141   2   0.50000    -0.1800000    0.0600000   2.494471e-04  1.671101e-07
    133    142   2   0.50000    -0.1800000    0.0600000   2.494471e-04  1.671101e-07
    134    140   2   0.50000    -0.1800000    0.0600000   2.494471e-04  1.671101e-07
    134    141   2   0.50000    -0.1800000    0.0600000   2.494471e-04  1.671101e-07
    134    142   2   0.50000    -0.1800000    0.0600000   2.494471e-04  1.671101e-07
    130    143   2   0.50000    -0.1200000    0.0600000   2.494471e-04  1.671101e-07
    130    144   2   0.50000    -0.1200000    0.0600000   2.494471e-04  1.671101e-07
    130    145   2   0.50000    -0.1200000    0.0600000   2.494471e-04  1.671101e-07
    132    143   2   0.50000    -0.1800000    0.0600000   2.494471e-04  1.671101e-07
    132    144   2   0.50000    -0.1800000    0.0600000   2.494471e-04  1.671101e-07
    132    145   2   0.50000    -0.1800000    0.0600000   2.494471e-04  1.671101e-07
    134    143   2   0.50000    -0.1800000    0.0600000   2.494471e-04  1.671101e-07
    134    144   2   0.50000    -0.1800000    0.0600000   2.494471e-04  1.671101e-07
    134    145   2   0.50000    -0.1800000    0.0600000   2.494471e-04  1.671101e-07
    130    146   2   0.50000    -0.1200000    0.0600000   2.494471e-04  1.671101e-07
    130    147   2   0.50000    -0.1200000    0.0600000   2.494471e-04  1.671101e-07
    130    148   2   0.50000    -0.1200000    0.0600000   2.494471e-04  1.671101e-07
    132    146   2   0.50000    -0.1800000    0.0600000   2.494471e-04  1.671101e-07
    132    147   2   0.50000    -0.1800000    0.0600000   2.494471e-04  1.671101e-07
    132    148   2   0.50000    -0.1800000    0.0600000   2.494471e-04  1.671101e-07
    133    146   2   0.50000    -0.1800000    0.0600000   2.494471e-04  1.671101e-07
    133    147   2   0.50000    -0.1800000    0.0600000   2.494471e-04  1.671101e-07
    133    148   2   0.50000    -0.1800000    0.0600000   2.494471e-04  1.671101e-07
    129    151   2   0.50000    -0.0600000   -0.1200000   1.015252e-03  1.866303e-06
    129    158   2   0.50000    -0.0600000    0.0600000   2.494471e-04  1.671101e-07
    129    170   2   0.50000    -0.0600000   -0.1200000   1.015252e-03  1.866303e-06
    156    151   2   0.50000     0.0600000   -0.1200000   2.494471e-04  1.671101e-07
    156    158   2   0.50000     0.0600000    0.0600000   6.128906e-05  1.496315e-08
    156    170   2   0.50000     0.0600000   -0.1200000   2.494471e-04  1.671101e-07
    157    151   2   0.50000     0.0600000   -0.1200000   2.494471e-04  1.671101e-07
    157    158   2   0.50000     0.0600000    0.0600000   6.128906e-05  1.496315e-08
    157    170   2   0.50000     0.0600000   -0.1200000   2.494471e-04  1.671101e-07
    149    152   2   0.50000    -0.1200000    0.0000000   1.015252e-03  1.866303e-06
    149    159   2   0.50000    -0.1200000    0.0600000   2.494471e-04  1.671101e-07
    149    160   2   0.50000    -0.1200000    0.0600000   2.494471e-04  1.671101e-07
    158    152   2   0.50000     0.0600000    0.0000000   2.494471e-04  1.671101e-07
    158    159   2   0.50000     0.0600000    0.0600000   6.128906e-05  1.496315e-08
    158    160   2   0.50000     0.0600000    0.0600000   6.128906e-05  1.496315e-08
    170    152   2   0.50000    -0.1200000    0.0000000   1.015252e-03  1.866303e-06
    170    159   2   0.50000    -0.1200000    0.0600000   2.494471e-04  1.671101e-07
    170    160   2   0.50000    -0.1200000    0.0600000   2.494471e-04  1.671101e-07
    149    171   2   0.50000    -0.1200000   -0.0600000   1.015252e-03  1.866303e-06
    149    177   2   0.50000    -0.1200000    0.0600000   2.494471e-04  1.671101e-07
    149    178   2   0.50000    -0.1200000    0.0600000   2.494471e-04  1.671101e-07
    151    171   2   0.50000    -0.1200000   -0.0600000   1.015252e-03  1.866303e-06
    151    177   2   0.50000    -0.1200000    0.0600000   2.494471e-04  1.671101e-07
    151    178   2   0.50000    -0.1200000    0.0600000   2.494471e-04  1.671101e-07
    158    171   2   0.50000     0.0600000   -0.0600000   2.494471e-04  1.671101e-07
    158    177   2   0.50000     0.0600000    0.0600000   6.128906e-05  1.496315e-08
    158    178   2   0.50000     0.0600000    0.0600000   6.128906e-05  1.496315e-08
    150    153   2   0.50000    -0.0600000   -0.1800000   1.015252e-03  1.866303e-06
    150    154   2   0.50000    -0.0600000   -0.1800000   1.015252e-03  1.866303e-06
    150    155   2   0.50000    -0.0600000   -0.1800000   1.015252e-03  1.866303e-06
    159    153   2   0.50000     0.0600000   -0.1800000   2.494471e-04  1.671101e-07
    159    154   2   0.50000     0.0600000   -0.1800000   2.494471e-04  1.671101e-07
    159    155   2   0.50000     0.0600000   -0.1800000   2.494471e-04  1.671101e-07
    160    153   2   0.50000     0.0600000   -0.1800000   2.494471e-04  1.671101e-07
    160    154   2   0.50000     0.0600000   -0.1800000   2.494471e-04  1.671101e-07
    160    155   2   0.50000     0.0600000   -0.1800000   2.494471e-04  1.671101e-07
    151    161   2   0.50000    -0.1200000    0.0600000   2.494471e-04  1.671101e-07
    151    162   2   0.50000    -0.1200000    0.0600000   2.494471e-04  1.671101e-07
    151    163   2   0.50000    -0.1200000    0.0600000   2.494471e-04  1.671101e-07
    154    161   2   0.50000    -0.1800000    0.0600000   2.494471e-04  1.671101e-07
    154    162   2   0.50000    -0.1800000    0.0600000   2.494471e-04  1.671101e-07
    154    163   2   0.50000    -0.1800000    0.0600000   2.494471e-04  1.671101e-07
    155    161   2   0.50000    -0.1800000    0.0600000   2.494471e-04  1.671101e-07
    155    162   2   0.50000    -0.1800000    0.0600000   2.494471e-04  1.671101e-07
    155    163   2   0.50000    -0.1800000    0.0600000   2.494471e-04  1.671101e-07
    151    164   2   0.50000    -0.1200000    0.0600000   2.494471e-04  1.671101e-07
    151    165   2   0.50000    -0.1200000    0.0600000   2.494471e-04  1.671101e-07
    151    166   2   0.50000    -0.1200000    0.0600000   2.494471e-04  1.671101e-07
    153    164   2   0.50000    -0.1800000    0.0600000   2.494471e-04  1.671101e-07
    153    165   2   0.50000    -0.1800000    0.0600000   2.494471e-04  1.671101e-07
    153    166   2   0.50000    -0.1800000    0.0600000   2.494471e-04  1.671101e-07
    155    164   2   0.50000    -0.1800000    0.0600000   2.494471e-04  1.671101e-07
    155    165   2   0.50000    -0.1800000    0.0600000   2.494471e-04  1.671101e-07
    155    166   2   0.50000    -0.1800000    0.0600000   2.494471e-04  1.671101e-07
    151    167   2   0.50000    -0.1200000    0.0600000   2.494471e-04  1.671101e-07
    151    168   2   0.50000    -0.1200000    0.0600000   2.494471e-04  1.671101e-07
    151    169   2   0.50000    -0.1200000    0.0600000   2.494471e-04  1.671101e-07
    153    167   2   0.50000    -0.1800000    0.0600000   2.494471e-04  1.671101e-07
    153    168   2   0.50000    -0.1800000    0.0600000   2.494471e-04  1.671101e-07
    153    169   2   0.50000    -0.1800000    0.0600000   2.494471e-04  1.671101e-07
    154    167   2   0.50000    -0.1800000    0.0600000   2.494471e-04  1.671101e-07
    154    168   2   0.50000    -0.1800000    0.0600000   2.494471e-04  1.671101e-07
    154    169   2   0.50000    -0.1800000    0.0600000   2.494471e-04  1.671101e-07
    150    172   2   0.50000    -0.0600000   -0.1200000   1.015252e-03  1.866303e-06
    150    179   2   0.50000    -0.0600000    0.0600000   2.494471e-04  1.671101e-07
    150    191   2   0.50000    -0.0600000   -0.1200000   1.015252e-03  1.866303e-06
    177    172   2   0.50000     0.0600000   -0.1200000   2.494471e-04  1.671101e-07
    177    179   2   0.50000     0.0600000    0.0600000   6.128906e-05  1.496315e-08
    177    191   2   0.50000     0.0600000   -0.1200000   2.494471e-04  1.671101e-07
    178    172   2   0.50000     0.0600000   -0.1200000   2.494471e-04  1.671101e-07
    178    179   2   0.50000     0.0600000    0.0600000   6.128906e-05  1.496315e-08
    178    191   2   0.50000     0.0600000   -0.1200000   2.494471e-04  1.671101e-07
    170    173   2   0.50000    -0.1200000    0.0000000   1.015252e-03  1.866303e-06
    170    180   2   0.50000    -0.1200000    0.0600000   2.494471e-04  1.671101e-07
    170    181   2   0.50000    -0.1200000    0.0600000   2.494471e-04  1.671101e-07
    179    173   2   0.50000     0.0600000    0.0000000   2.494471e-04  1.671101e-07
    179    180   2   0.50000     0.0600000    0.0600000   6.128906e-05  1.496315e-08
    179    181   2   0.50000     0.0600000    0.0600000   6.128906e-05  1.496315e-08
    191    173   2   0.50000    -0.1200000    0.0000000   1.015252e-03  1.866303e-06
    191    180   2   0.50000    -0.1200000    0.0600000   2.494471e-04  1.671101e-07
    191    181   2   0.50000    -0.1200000    0.0600000   2.494471e-04  1.671101e-07
    170    192   2   0.50000    -0.1200000   -0.0600000   1.015252e-03  1.866303e-06
    170    198   2   0.50000    -0.1200000    0.0600000   2.494471e-04  1.671101e-07
    170    199   2   0.50000    -0.1200000    0.0600000   2.494471e-04  1.671101e-07
    172    192   2   0.50000    -0.1200000   -0.0600000   1.015252e-03  1.866303e-06
    172    198   2   0.50000    -0.1200000    0.0600000   2.494471e-04  1.671101e-07
    172    199   2   0.50000    -0.1200000    0.0600000   2.494471e-04  1.671101e-07
    179    192   2   0.50000     0.0600000   -0.0600000   2.494471e-04  1.671101e-07
    179    198   2   0.50000     0.0600000    0.0600000   6.128906e-05  1.496315e-08
    179    199   2   0.50000     0.0600000    0.0600000   6.128906e-05  1.496315e-08
    171    174   2   0.50000    -0.0600000   -0.1800000   1.015252e-03  1.866303e-06
    171    175   2   0.50000    -0.0600000   -0.1800000   1.015252e-03  1.866303e-06
    171    176   2   0.50000    -0.0600000   -0.1800000   1.015252e-03  1.866303e-06
    180    174   2   0.50000     0.0600000   -0.1800000   2.494471e-04  1.671101e-07
    180    175   2   0.50000     0.0600000   -0.1800000   2.494471e-04  1.671101e-07
    180    176   2   0.50000     0.0600000   -0.1800000   2.494471e-04  1.671101e-07
    181    174   2   0.50000     0.0600000   -0.1800000   2.494471e-04  1.671101e-07
    181    175   2   0.50000     0.0600000   -0.1800000   2.494471e-04  1.671101e-07
    181    176   2   0.50000     0.0600000   -0.1800000   2.494471e-04  1.671101e-07
    172    182   2   0.50000    -0.1200000    0.0600000   2.494471e-04  1.671101e-07
    172    183   2   0.50000    -0.1200000    0.0600000   2.494471e-04  1.671101e-07
    172    184   2   0.50000    -0.1200000    0.0600000   2.494471e-04  1.671101e-07
    175    182   2   0.50000    -0.1800000    0.0600000   2.494471e-04  1.671101e-07
    175    183   2   0.50000    -0.1800000    0.0600000   2.494471e-04  1.671101e-07
    175    184   2   0.50000    -0.1800000    0.0600000   2.494471e-04  1.671101e-07
    176    182   2   0.50000    -0.1800000    0.0600000   2.494471e-04  1.671101e-07
    176    183   2   0.50000    -0.1800000    0.0600000   2.494471e-04  1.671101e-07
    176    184   2   0.50000    -0.1800000    0.0600000   2.494471e-04  1.671101e-07
    172    185   2   0.50000    -0.1200000    0.0600000   2.494471e-04  1.671101e-07
    172    186   2   0.50000    -0.1200000    0.0600000   2.494471e-04  1.671101e-07
    172    187   2   0.50000    -0.1200000    0.0600000   2.494471e-04  1.671101e-07
    174    185   2   0.50000    -0.1800000    0.0600000   2.494471e-04  1.671101e-07
    174    186   2   0.50000    -0.1800000    0.0600000   2.494471e-04  1.671101e-07
    174    187   2   0.50000    -0.1800000    0.0600000   2.494471e-04  1.671101e-07
    176    185   2   0.50000    -0.1800000    0.0600000   2.494471e-04  1.671101e-07
    176    186   2   0.50000    -0.1800000    0.0600000   2.494471e-04  1.671101e-07
    176    187   2   0.50000    -0.1800000    0.0600000   2.494471e-04  1.671101e-07
    172    188   2   0.50000    -0.1200000    0.0600000   2.494471e-04  1.671101e-07
    172    189   2   0.50000    -0.1200000    0.0600000   2.494471e-04  1.671101e-07
    172    190   2   0.50000    -0.1200000    0.0600000   2.494471e-04  1.671101e-07
    174    188   2   0.50000    -0.1800000    0.0600000   2.494471e-04  1.671101e-07
    174    189   2   0.50000    -0.1800000    0.0600000   2.494471e-04  1.671101e-07
    174    190   2   0.50000    -0.1800000    0.0600000   2.494471e-04  1.671101e-07
    175    188   2   0.50000    -0.1800000    0.0600000   2.494471e-04  1.671101e-07
    175    189   2   0.50000    -0.1800000    0.0600000   2.494471e-04  1.671101e-07
    175    190   2   0.50000    -0.1800000    0.0600000   2.494471e-04  1.671101e-07
    171    193   2   0.50000    -0.0600000   -0.1200000   1.015252e-03  1.866303e-06
    171    200   2   0.50000    -0.0600000    0.0600000   2.494471e-04  1.671101e-07
    171    212   2   0.50000    -0.0600000   -0.1200000   1.015252e-03  1.866303e-06
    198    193   2   0.50000     0.0600000   -0.1200000   2.494471e-04  1.671101e-07
    198    200   2   0.50000     0.0600000    0.0600000   6.128906e-05  1.496315e-08
    198    212   2   0.50000     0.0600000   -0.1200000   2.494471e-04  1.671101e-07
    199    193   2   0.50000     0.0600000   -0.1200000   2.494471e-04  1.671101e-07
    199    200   2   0.50000     0.0600000    0.0600000   6.128906e-05  1.496315e-08
    199    212   2   0.50000     0.0600000   -0.1200000   2.494471e-04  1.671101e-07
    191    194   2   0.50000    -0.1200000    0.0000000   1.015252e-03  1.866303e-06
    191    201   2   0.50000    -0.1200000    0.0600000   2.494471e-04  1.671101e-07
    191    202   2   0.50000    -0.1200000    0.0600000   2.494471e-04  1.671101e-07
    200    194   2   0.50000     0.0600000    0.0000000   2.494471e-04  1.671101e-07
    200    201   2   0.50000     0.0600000    0.0600000   6.128906e-05  1.496315e-08
    200    202   2   0.50000     0.0600000    0.0600000   6.128906e-05  1.496315e-08
    212    194   2   0.50000    -0.1200000    0.0000000   1.015252e-03  1.866303e-06
    212    201   2   0.50000    -0.1200000    0.0600000   2.494471e-04  1.671101e-07
    212    202   2   0.50000    -0.1200000    0.0600000   2.494471e-04  1.671101e-07
    191    213   2   0.50000    -0.1200000   -0.0600000   1.015252e-03  1.866303e-06
    191    219   2   0.50000    -0.1200000    0.0600000   2.494471e-04  1.671101e-07
    191    220   2   0.50000    -0.1200000    0.0600000   2.494471e-04  1.671101e-07
    193    213   2   0.50000    -0.1200000   -0.0600000   1.015252e-03  1.866303e-06
    193    219   2   0.50000    -0.1200000    0.0600000   2.494471e-04  1.671101e-07
    193    220   2   0.50000    -0.1200000    0.0600000   2.494471e-04  1.671101e-07
    200    213   2   0.50000     0.0600000   -0.0600000   2.494471e-04  1.671101e-07
    200    219   2   0.50000     0.0600000    0.0600000   6.128906e-05  1.496315e-08
    200    220   2   0.50000     0.0600000    0.0600000   6.128906e-05  1.496315e-08
    192    195   2   0.50000    -0.0600000   -0.1800000   1.015252e-03  1.866303e-06
    192    196   2   0.50000    -0.0600000   -0.1800000   1.015252e-03  1.866303e-06
    192    197   2   0.50000    -0.0600000   -0.1800000   1.015252e-03  1.866303e-06
    201    195   2   0.50000     0.0600000   -0.1800000   2.494471e-04  1.671101e-07
    201    196   2   0.50000     0.0600000   -0.1800000   2.494471e-04  1.671101e-07
    201    197   2   0.50000     0.0600000   -0.1800000   2.494471e-04  1.671101e-07
    202    195   2   0.50000     0.0600000   -0.1800000   2.494471e-04  1.671101e-07
    202    196   2   0.50000     0.0600000   -0.1800000   2.494471e-04  1.671101e-07
    202    197   2   0.50000     0.0600000   -0.1800000   2.494471e-04  1.671101e-07
    193    203   2   0.50000    -0.1200000    0.0600000   2.494471e-04  1.671101e-07
    193    204   2   0.50000    -0.1200000    0.0600000   2.494471e-04  1.671101e-07
    193    205   2   0.50000    -0.1200000    0.0600000   2.494471e-04  1.671101e-07
    196    203   2   0.50000    -0.1800000    0.0600000   2.494471e-04  1.671101e-07
    196    204   2   0.50000    -0.1800000    0.0600000   2.494471e-04  1.671101e-07
    196    205   2   0.50000    -0.1800000    0.0600000   2.494471e-04  1.671101e-07
    197    203   2   0.50000    -0.1800000    0.0600000   2.494471e-04  1.671101e-07
    197    204   2   0.50000    -0.1800000    0.0600000   2.494471e-04  1.671101e-07
    197    205   2   0.50000    -0.1800000    0.0600000   2.494471e-04  1.671101e-07
    193    206   2   0.50000    -0.1200000    0.0600000   2.494471e-04  1.671101e-07
    193    207   2   0.50000    -0.1200000    0.0600000   2.494471e-04  1.671101e-07
    193    208   2   0.50000    -0.1200000    0.0600000   2.494471e-04  1.671101e-07
    195    206   2   0.50000    -0.1800000    0.0600000   2.494471e-04  1.671101e-07
    195    207   2   0.50000    -0.1800000    0.0600000   2.494471e-04  1.671101e-07
    195    208   2   0.50000    -0.1800000    0.0600000   2.494471e-04  1.671101e-07
    197    206   2   0.50000    -0.1800000    0.0600000   2.494471e-04  1.671101e-07
    197    207   2   0.50000    -0.1800000    0.0600000   2.494471e-04  1.671101e-07
    197    208   2   0.50000    -0.1800000    0.0600000   2.494471e-04  1.671101e-07
    193    209   2   0.50000    -0.1200000    0.0600000   2.494471e-04  1.671101e-07
    193    210   2   0.50000    -0.1200000    0.0600000   2.494471e-04  1.671101e-07
    193    211   2   0.50000    -0.1200000    0.0600000   2.494471e-04  1.671101e-07
    195    209   2   0.50000    -0.1800000    0.0600000   2.494471e-04  1.671101e-07
    195    210   2   0.50000    -0.1800000    0.0600000   2.494471e-04  1.671101e-07
    195    211   2   0.50000    -0.1800000    0.0600000   2.494471e-04  1.671101e-07
    196    209   2   0.50000    -0.1800000    0.0600000   2.494471e-04  1.671101e-07
    196    210   2   0.50000    -0.1800000    0.0600000   2.494471e-04  1.671101e-07
    196    211   2   0.50000    -0.1800000    0.0600000   2.494471e-04  1.671101e-07
    192    214   2   0.50000    -0.0600000   -0.1200000   1.015252e-03  1.866303e-06
    192    221   2   0.50000    -0.0600000    0.0600000   2.494471e-04  1.671101e-07
    192    233   2   0.50000    -0.0600000   -0.1200000   1.015252e-03  1.866303e-06
    219    214   2   0.50000     0.0600000   -0.1200000   2.494471e-04  1.671101e-07
    219    221   2   0.50000     0.0600000    0.0600000   6.128906e-05  1.496315e-08
    219    233   2   0.50000     0.0600000   -0.1200000   2.494471e-04  1.671101e-07
    220    214   2   0.50000     0.0600000   -0.1200000   2.494471e-04  1.671101e-07
    220    221   2   0.50000     0.0600000    0.0600000   6.128906e-05  1.496315e-08
    220    233   2   0.50000     0.0600000   -0.1200000   2.494471e-04  1.671101e-07
    212    215   2   0.50000    -0.1200000    0.0000000   1.015252e-03  1.866303e-06
    212    222   2   0.50000    -0.1200000    0.0600000   2.494471e-04  1.671101e-07
    212    223   2   0.50000    -0.1200000    0.0600000   2.494471e-04  1.671101e-07
    221    215   2   0.50000     0.0600000    0.0000000   2.494471e-04  1.671101e-07
    221    222   2   0.50000     0.0600000    0.0600000   6.128906e-05  1.496315e-08
    221    223   2   0.50000     0.0600000    0.0600000   6.128906e-05  1.496315e-08
    233    215   2   0.50000    -0.1200000    0.0000000   1.015252e-03  1.866303e-06
    233    222   2   0.50000    -0.1200000    0.0600000   2.494471e-04  1.671101e-07
    233    223   2   0.50000    -0.1200000    0.0600000   2.494471e-04  1.671101e-07
    212    234   2   0.50000    -0.1200000   -0.0600000   1.015252e-03  1.866303e-06
    212    240   2   0.50000    -0.1200000    0.0600000   2.494471e-04  1.671101e-07
    212    241   2   0.50000    -0.1200000    0.0600000   2.494471e-04  1.671101e-07
    214    234   2   0.50000    -0.1200000   -0.0600000   1.015252e-03  1.866303e-06
    214    240   2   0.50000    -0.1200000    0.0600000   2.494471e-04  1.671101e-07
    214    241   2   0.50000    -0.1200000    0.0600000   2.494471e-04  1.671101e-07
    221    234   2   0.50000     0.0600000   -0.0600000   2.494471e-04  1.671101e-07
    221    240   2   0.50000     0.0600000    0.0600000   6.128906e-05  1.496315e-08
    221    241   2   0.50000     0.0600000    0.0600000   6.128906e-05  1.496315e-08
    213    216   2   0.50000    -0.0600000   -0.1800000   1.015252e-03  1.866303e-06
    213    217   2   0.50000    -0.0600000   -0.1800000   1.015252e-03  1.866303e-06
    213    218   2   0.50000    -0.0600000   -0.1800000   1.015252e-03  1.866303e-06
    222    216   2   0.50000     0.0600000   -0.1800000   2.494471e-04  1.671101e-07
    222    217   2   0.50000     0.0600000   -0.1800000   2.494471e-04  1.671101e-07
    222    218   2   0.50000     0.0600000   -0.1800000   2.494471e-04  1.671101e-07
    223    216   2   0.50000     0.0600000   -0.1800000   2.494471e-04  1.671101e-07
    223    217   2   0.50000     0.0600000   -0.1800000   2.494471e-04  1.671101e-07
    223    218   2   0.50000     0.0600000   -0.1800000   2.494471e-04  1.671101e-07
    214    224   2   0.50000    -0.1200000    0.0600000   2.494471e-04  1.671101e-07
    214    225   2   0.50000    -0.1200000    0.0600000   2.494471e-04  1.671101e-07
    214    226   2   0.50000    -0.1200000    0.0600000   2.494471e-04  1.671101e-07
    217    224   2   0.50000    -0.1800000    0.0600000   2.494471e-04  1.671101e-07
    217    225   2   0.50000    -0.1800000    0.0600000   2.494471e-04  1.671101e-07
    217    226   2   0.50000    -0.1800000    0.0600000   2.494471e-04  1.671101e-07
    218    224   2   0.50000    -0.1800000    0.0600000   2.494471e-04  1.671101e-07
    218    225   2   0.50000    -0.1800000    0.0600000   2.494471e-04  1.671101e-07
    218    226   2   0.50000    -0.1800000    0.0600000   2.494471e-04  1.671101e-07
    214    227   2   0.50000    -0.1200000    0.0600000   2.494471e-04  1.671101e-07
    214    228   2   0.50000    -0.1200000    0.0600000   2.494471e-04  1.671101e-07
    214    229   2   0.50000    -0.1200000    0.0600000   2.494471e-04  1.671101e-07
    216    227   2   0.50000    -0.1800000    0.0600000   2.494471e-04  1.671101e-07
    216    228   2   0.50000    -0.1800000    0.0600000   2.494471e-04  1.671101e-07
    216    229   2   0.50000    -0.1800000    0.0600000   2.494471e-04  1.671101e-07
    218    227   2   0.50000    -0.1800000    0.0600000   2.494471e-04  1.671101e-07
    218    228   2   0.50000    -0.1800000    0.0600000   2.494471e-04  1.671101e-07
    218    229   2   0.50000    -0.1800000    0.0600000   2.494471e-04  1.671101e-07
    214    230   2   0.50000    -0.1200000    0.0600000   2.494471e-04  1.671101e-07
    214    231   2   0.50000    -0.1200000    0.0600000   2.494471e-04  1.671101e-07
    214    232   2   0.50000    -0.1200000    0.0600000   2.494471e-04  1.671101e-07
    216    230   2   0.50000    -0.1800000    0.0600000   2.494471e-04  1.671101e-07
    216    231   2   0.50000    -0.1800000    0.0600000   2.494471e-04  1.671101e-07
    216    232   2   0.50000    -0.1800000    0.0600000   2.494471e-04  1.671101e-07
    217    230   2   0.50000    -0.1800000    0.0600000   2.494471e-04  1.671101e-07
    217    231   2   0.50000    -0.1800000    0.0600000   2.494471e-04  1.671101e-07
    217    232   2   0.50000    -0.1800000    0.0600000   2.494471e-04  1.671101e-07
    213    235   2   0.50000    -0.0600000   -0.1200000   1.015252e-03  1.866303e-06
    213    242   2   0.50000    -0.0600000    0.0600000   2.494471e-04  1.671101e-07
    213    254   2   0.50000    -0.0600000   -0.1200000   1.015252e-03  1.866303e-06
    240    235   2   0.50000     0.0600000   -0.1200000   2.494471e-04  1.671101e-07
    240    242   2   0.50000     0.0600000    0.0600000   6.128906e-05  1.496315e-08
    240    254   2   0.50000     0.0600000   -0.1200000   2.494471e-04  1.671101e-07
    241    235   2   0.50000     0.0600000   -0.1200000   2.494471e-04  1.671101e-07
    241    242   2   0.50000     0.0600000    0.0600000   6.128906e-05  1.496315e-08
    241    254   2   0.50000     0.0600000   -0.1200000   2.494471e-04  1.671101e-07
    233    236   2   0.50000    -0.1200000    0.0000000   1.015252e-03  1.866303e-06
    233    243   2   0.50000    -0.1200000    0.0600000   2.494471e-04  1.671101e-07
    233    244   2   0.50000    -0.1200000    0.0600000   2.494471e-04  1.671101e-07
    242    236   2   0.50000     0.0600000    0.0000000   2.494471e-04  1.671101e-07
    242    243   2   0.50000     0.0600000    0.0600000   6.128906e-05  1.496315e-08
    242    244   2   0.50000     0.0600000    0.0600000   6.128906e-05  1.496315e-08
    254    236   2   0.50000    -0.1200000    0.0000000   1.015252e-03  1.866303e-06
    254    243   2   0.50000    -0.1200000    0.0600000   2.494471e-04  1.671101e-07
    254    244   2   0.50000    -0.1200000    0.0600000   2.494471e-04  1.671101e-07
    233    255   2   0.50000    -0.1200000   -0.0600000   1.015252e-03  1.866303e-06
    233    261   2   0.50000    -0.1200000    0.0600000   2.494471e-04  1.671101e-07
    233    262   2   0.50000    -0.1200000    0.0600000   2.494471e-04  1.671101e-07
    235    255   2   0.50000    -0.1200000   -0.0600000   1.015252e-03  1.866303e-06
    235    261   2   0.50000    -0.1200000    0.0600000   2.494471e-04  1.671101e-07
    235    262   2   0.50000    -0.1200000    0.0600000   2.494471e-04  1.671101e-07
    242    255   2   0.50000     0.0600000   -0.0600000   2.494471e-04  1.671101e-07
    242    261   2   0.50000     0.0600000    0.0600000   6.128906e-05  1.496315e-08
    242    262   2   0.50000     0.0600000    0.0600000   6.128906e-05  1.496315e-08
    234    237   2   0.50000    -0.0600000   -0.1800000   1.015252e-03  1.866303e-06
    234    238   2   0.50000    -0.0600000   -0.1800000   1.015252e-03  1.866303e-06
    234    239   2   0.50000    -0.0600000   -0.1800000   1.015252e-03  1.866303e-06
    243    237   2   0.50000     0.0600000   -0.1800000   2.494471e-04  1.671101e-07
    243    238   2   0.50000     0.0600000   -0.1800000   2.494471e-04  1.671101e-07
    243    239   2   0.50000     0.0600000   -0.1800000   2.494471e-04  1.671101e-07
    244    237   2   0.50000     0.0600000   -0.1800000   2.494471e-04  1.671101e-07
    244    238   2   0.50000     0.0600000   -0.1800000   2.494471e-04  1.671101e-07
    244    239   2   0.50000     0.0600000   -0.1800000   2.494471e-04  1.671101e-07
    235    245   2   0.50000    -0.1200000    0.0600000   2.494471e-04  1.671101e-07
    235    246   2   0.50000    -0.1200000    0.0600000   2.494471e-04  1.671101e-07
    235    247   2   0.50000    -0.1200000    0.0600000   2.494471e-04  1.671101e-07
    238    245   2   0.50000    -0.1800000    0.0600000   2.494471e-04  1.671101e-07
    238    246   2   0.50000    -0.1800000    0.0600000   2.494471e-04  1.671101e-07
    238    247   2   0.50000    -0.1800000    0.0600000   2.494471e-04  1.671101e-07
    239    245   2   0.50000    -0.1800000    0.0600000   2.494471e-04  1.671101e-07
    239    246   2   0.50000    -0.1800000    0.0600000   2.494471e-04  1.671101e-07
    239    247   2   0.50000    -0.1800000    0.0600000   2.494471e-04  1.671101e-07
    235    248   2   0.50000    -0.1200000    0.0600000   2.494471e-04  1.671101e-07
    235    249   2   0.50000    -0.1200000    0.0600000   2.494471e-04  1.671101e-07
    235    250   2   0.50000    -0.1200000    0.0600000   2.494471e-04  1.671101e-07
    237    248   2   0.50000    -0.1800000    0.0600000   2.494471e-04  1.671101e-07
    237    249   2   0.50000    -0.1800000    0.0600000   2.494471e-04  1.671101e-07
    237    250   2   0.50000    -0.1800000    0.0600000   2.494471e-04  1.671101e-07
    239    248   2   0.50000    -0.1800000    0.0600000   2.494471e-04  1.671101e-07
    239    249   2   0.50000    -0.1800000    0.0600000   2.494471e-04  1.671101e-07
    239    250   2   0.50000    -0.1800000    0.0600000   2.494471e-04  1.671101e-07
    235    251   2   0.50000    -0.1200000    0.0600000   2.494471e-04  1.671101e-07
    235    252   2   0.50000    -0.1200000    0.0600000   2.494471e-04  1.671101e-07
    235    253   2   0.50000    -0.1200000    0.0600000   2.494471e-04  1.671101e-07
    237    251   2   0.50000    -0.1800000    0.0600000   2.494471e-04  1.671101e-07
    237    252   2   0.50000    -0.1800000    0.0600000   2.494471e-04  1.671101e-07
    237    253   2   0.50000    -0.1800000    0.0600000   2.494471e-04  1.671101e-07
    238    251   2   0.50000    -0.1800000    0.0600000   2.494471e-04  1.671101e-07
    238    252   2   0.50000    -0.1800000    0.0600000   2.494471e-04  1.671101e-07
    238    253   2   0.50000    -0.1800000    0.0600000   2.494471e-04  1.671101e-07
    234    256   2   0.50000    -0.0600000   -0.1200000   1.015252e-03  1.866303e-06
    234    263   2   0.50000    -0.0600000    0.0600000   2.494471e-04  1.671101e-07
    234    275   2   0.50000    -0.0600000   -0.1200000   1.015252e-03  1.866303e-06
    261    256   2   0.50000     0.0600000   -0.1200000   2.494471e-04  1.671101e-07
    261    263   2   0.50000     0.0600000    0.0600000   6.128906e-05  1.496315e-08
    261    275   2   0.50000     0.0600000   -0.1200000   2.494471e-04  1.671101e-07
    262    256   2   0.50000     0.0600000   -0.1200000   2.494471e-04  1.671101e-07
    262    263   2   0.50000     0.0600000    0.0600000   6.128906e-05  1.496315e-08
    262    275   2   0.50000     0.0600000   -0.1200000   2.494471e-04  1.671101e-07
    254    257   2   0.50000    -0.1200000    0.0000000   1.015252e-03  1.866303e-06
    254    264   2   0.50000    -0.1200000    0.0600000   2.494471e-04  1.671101e-07
    254    265   2   0.50000    -0.1200000    0.0600000   2.494471e-04  1.671101e-07
    263    257   2   0.50000     0.0600000    0.0000000   2.494471e-04  1.671101e-07
    263    264   2   0.50000     0.0600000    0.0600000   6.128906e-05  1.496315e-08
    263    265   2   0.50000     0.0600000    0.0600000   6.128906e-05  1.496315e-08
    275    257   2   0.50000    -0.1200000    0.0000000   1.015252e-03  1.866303e-06
    275    264   2   0.50000    -0.1200000    0.0600000   2.494471e-04  1.671101e-07
    275    265   2   0.50000    -0.1200000    0.0600000   2.494471e-04  1.671101e-07
    254    276   2   0.50000    -0.1200000   -0.0600000   1.015252e-03  1.866303e-06
    254    282   2   0.50000    -0.1200000    0.0600000   2.494471e-04  1.671101e-07
    254    283   2   0.50000    -0.1200000    0.0600000   2.494471e-04  1.671101e-07
    256    276   2   0.50000    -0.1200000   -0.0600000   1.015252e-03  1.866303e-06
    256    282   2   0.50000    -0.1200000    0.0600000   2.494471e-04  1.671101e-07
    256    283   2   0.50000    -0.1200000    0.0600000   2.494471e-04  1.671101e-07
    263    276   2   0.50000     0.0600000   -0.0600000   2.494471e-04  1.671101e-07
    263    282   2   0.50000     0.0600000    0.0600000   6.128906e-05  1.496315e-08
    263    283   2   0.50000     0.0600000    0.0600000   6.128906e-05  1.496315e-08
    255    258   2   0.50000    -0.0600000   -0.1800000   1.015252e-03  1.866303e-06
    255    259   2   0.50000    -0.0600000   -0.1800000   1.015252e-03  1.866303e-06
    255    260   2   0.50000    -0.0600000   -0.1800000   1.015252e-03  1.866303e-06
    264    258   2   0.50000     0.0600000   -0.1800000   2.494471e-04  1.671101e-07
    264    259   2   0.50000     0.0600000   -0.1800000   2.494471e-04  1.671101e-07
    264    260   2   0.50000     0.0600000   -0.1800000   2.494471e-04  1.671101e-07
    265    258   2   0.50000     0.0600000   -0.1800000   2.494471e-04  1.671101e-07
    265    259   2   0.50000     0.0600000   -0.1800000   2.494471e-04  1.671101e-07
    265    260   2   0.50000     0.0600000   -0.1800000   2.494471e-04  1.671101e-07
    256    266   2   0.50000    -0.1200000    0.0600000   2.494471e-04  1.671101e-07
    256    267   2   0.50000    -0.1200000    0.0600000   2.494471e-04  1.671101e-07
    256    268   2   0.50000    -0.1200000    0.0600000   2.494471e-04  1.671101e-07
    259    266   2   0.50000    -0.1800000    0.0600000   2.494471e-04  1.671101e-07
    259    267   2   0.50000    -0.1800000    0.0600000   2.494471e-04  1.671101e-07
    259    268   2   0.50000    -0.1800000    0.0600000   2.494471e-04  1.671101e-07
    260    266   2   0.50000    -0.1800000    0.0600000   2.494471e-04  1.671101e-07
    260    267   2   0.50000    -0.1800000    0.0600000   2.494471e-04  1.671101e-07
    260    268   2   0.50000    -0.1800000    0.0600000   2.494471e-04  1.671101e-07
    256    269   2   0.50000    -0.1200000    0.0600000   2.494471e-04  1.671101e-07
    256    270   2   0.50000    -0.1200000    0.0600000   2.494471e-04  1.671101e-07
    256    271   2   0.50000    -0.1200000    0.0600000   2.494471e-04  1.671101e-07
    258    269   2   0.50000    -0.1800000    0.0600000   2.494471e-04  1.671101e-07
    258    270   2   0.50000    -0.1800000    0.0600000   2.494471e-04  1.671101e-07
    258    271   2   0.50000    -0.1800000    0.0600000   2.494471e-04  1.671101e-07
    260    269   2   0.50000    -0.1800000    0.0600000   2.494471e-04  1.671101e-07
    260    270   2   0.50000    -0.1800000    0.0600000   2.494471e-04  1.671101e-07
    260    271   2   0.50000    -0.1800000    0.0600000   2.494471e-04  1.671101e-07
    256    272   2   0.50000    -0.1200000    0.0600000   2.494471e-04  1.671101e-07
    256    273   2   0.50000    -0.1200000    0.0600000   2.494471e-04  1.671101e-07
    256    274   2   0.50000    -0.1200000    0.0600000   2.494471e-04  1.671101e-07
    258    272   2   0.50000    -0.1800000    0.0600000   2.494471e-04  1.671101e-07
    258    273   2   0.50000    -0.1800000    0.0600000   2.494471e-04  1.671101e-07
    258    274   2   0.50000    -0.1800000    0.0600000   2.494471e-04  1.671101e-07
    259    272   2   0.50000    -0.1800000    0.0600000   2.494471e-04  1.671101e-07
    259    273   2   0.50000    -0.1800000    0.0600000   2.494471e-04  1.671101e-07
    259    274   2   0.50000    -0.1800000    0.0600000   2.494471e-04  1.671101e-07
    255    277   2   0.50000    -0.0600000   -0.1200000   1.015252e-03  1.866303e-06
    255    284   2   0.50000    -0.0600000    0.0600000   2.494471e-04  1.671101e-07
    255    296   2   0.50000    -0.0600000   -0.1200000   1.015252e-03  1.866303e-06
    282    277   2   0.50000     0.0600000   -0.1200000   2.494471e-04  1.671101e-07
    282    284   2   0.50000     0.0600000    0.0600000   6.128906e-05  1.496315e-08
    282    296   2   0.50000     0.0600000   -0.1200000   2.494471e-04  1.671101e-07
    283    277   2   0.50000     0.0600000   -0.1200000   2.494471e-04  1.671101e-07
    283    284   2   0.50000     0.0600000    0.0600000   6.128906e-05  1.496315e-08
    283    296   2   0.50000     0.0600000   -0.1200000   2.494471e-04  1.671101e-07
    275    278   2   0.50000    -0.1200000    0.0000000   1.015252e-03  1.866303e-06
    275    285   2   0.50000    -0.1200000    0.0600000   2.494471e-04  1.671101e-07
    275    286   2   0.50000    -0.1200000    0.0600000   2.494471e-04  1.671101e-07
    284    278   2   0.50000     0.0600000    0.0000000   2.494471e-04  1.671101e-07
    284    285   2   0.50000     0.0600000    0.0600000   6.128906e-05  1.496315e-08
    284    286   2   0.50000     0.0600000    0.0600000   6.128906e-05  1.496315e-08
    296    278   2   0.50000    -0.1200000    0.0000000   1.015252e-03  1.866303e-06
    296    285   2   0.50000    -0.1200000    0.0600000   2.494471e-04  1.671101e-07
    296    286   2   0.50000    -0.1200000    0.0600000   2.494471e-04  1.671101e-07
    275    297   2   0.50000    -0.1200000   -0.0600000   1.015252e-03  1.866303e-06
    275    303   2   0.50000    -0.1200000    0.0600000   2.494471e-04  1.671101e-07
    275    304   2   0.50000    -0.1200000    0.0600000   2.494471e-04  1.671101e-07
    277    297   2   0.50000    -0.1200000   -0.0600000   1.015252e-03  1.866303e-06
    277    303   2   0.50000    -0.1200000    0.0600000   2.494471e-04  1.671101e-07
    277    304   2   0.50000    -0.1200000    0.0600000   2.494471e-04  1.671101e-07
    284    297   2   0.50000     0.0600000   -0.0600000   2.494471e-04  1.671101e-07
    284    303   2   0.50000     0.0600000    0.0600000   6.128906e-05  1.496315e-08
    284    304   2   0.50000     0.0600000    0.0600000   6.128906e-05  1.496315e-08
    276    279   2   0.50000    -0.0600000   -0.1800000   1.015252e-03  1.866303e-06
    276    280   2   0.50000    -0.0600000   -0.1800000   1.015252e-03  1.866303e-06
    276    281   2   0.50000    -0.0600000   -0.1800000   1.015252e-03  1.866303e-06
    285    279   2   0.50000     0.0600000   -0.1800000   2.494471e-04  1.671101e-07
    285    280   2   0.50000     0.0600000   -0.1800000   2.494471e-04  1.671101e-07
    285    281   2   0.50000     0.0600000   -0.1800000   2.494471e-04  1.671101e-07
    286    279   2   0.50000     0.0600000   -0.1800000   2.494471e-04  1.671101e-07
    286    280   2   0.50000     0.0600000   -0.1800000   2.494471e-04  1.671101e-07
    286    281   2   0.50000     0.0600000   -0.1800000   2.494471e-04  1.671101e-07
    277    287   2   0.50000    -0.1200000    0.0600000   2.494471e-04  1.671101e-07
    277    288   2   0.50000    -0.1200000    0.0600000   2.494471e-04  1.671101e-07
    277    289   2   0.50000    -0.1200000    0.0600000   2.494471e-04  1.671101e-07
    280    287   2   0.50000    -0.1800000    0.0600000   2.494471e-04  1.671101e-07
    280    288   2   0.50000    -0.1800000    0.0600000   2.494471e-04  1.671101e-07
    280    289   2   0.50000    -0.1800000    0.0600000   2.494471e-04  1.671101e-07
    281    287   2   0.50000    -0.1800000    0.0600000   2.494471e-04  1.671101e-07
    281    288   2   0.50000    -0.1800000    0.0600000   2.494471e-04  1.671101e-07
    281    289   2   0.50000    -0.1800000    0.0600000   2.494471e-04  1.671101e-07
    277    290   2   0.50000    -0.1200000    0.0600000   2.494471e-04  1.671101e-07
    277    291   2   0.50000    -0.1200000    0.0600000   2.494471e-04  1.671101e-07
    277    292   2   0.50000    -0.1200000    0.0600000   2.494471e-04  1.671101e-07
    279    290   2   0.50000    -0.1800000    0.0600000   2.494471e-04  1.671101e-07
    279    291   2   0.50000    -0.1800000    0.0600000   2.494471e-04  1.671101e-07
    279    292   2   0.50000    -0.1800000    0.0600000   2.494471e-04  1.671101e-07
    281    290   2   0.50000    -0.1800000    0.0600000   2.494471e-04  1.671101e-07
    281    291   2   0.50000    -0.1800000    0.0600000   2.494471e-04  1.671101e-07
    281    292   2   0.50000    -0.1800000    0.0600000   2.494471e-04  1.671101e-07
    277    293   2   0.50000    -0.1200000    0.0600000   2.494471e-04  1.671101e-07
    277    294   2   0.50000    -0.1200000    0.0600000   2.494471e-04  1.671101e-07
    277    295   2   0.50000    -0.1200000    0.0600000   2.494471e-04  1.671101e-07
    279    293   2   0.50000    -0.1800000    0.0600000   2.494471e-04  1.671101e-07
    279    294   2   0.50000    -0.1800000    0.0600000   2.494471e-04  1.671101e-07
    279    295   2   0.50000    -0.1800000    0.0600000   2.494471e-04  1.671101e-07
    280    293   2   0.50000    -0.1800000    0.0600000   2.494471e-04  1.671101e-07
    280    294   2   0.50000    -0.1800000    0.0600000   2.494471e-04  1.671101e-07
    280    295   2   0.50000    -0.1800000    0.0600000   2.494471e-04  1.671101e-07
    276    298   2   0.50000    -0.0600000   -0.1200000   1.015252e-03  1.866303e-06
    276    305   2   0.50000    -0.0600000    0.0600000   2.494471e-04  1.671101e-07
    276    317   2   0.50000    -0.0600000   -0.1200000   1.015252e-03  1.866303e-06
    303    298   2   0.50000     0.0600000   -0.1200000   2.494471e-04  1.671101e-07
    303    305   2   0.50000     0.0600000    0.0600000   6.128906e-05  1.496315e-08
    303    317   2   0.50000     0.0600000   -0.1200000   2.494471e-04  1.671101e-07
    304    298   2   0.50000     0.0600000   -0.1200000   2.494471e-04  1.671101e-07
    304    305   2   0.50000     0.0600000    0.0600000   6.128906e-05  1.496315e-08
    304    317   2   0.50000     0.0600000   -0.1200000   2.494471e-04  1.671101e-07
    296    299   2   0.50000    -0.1200000    0.0000000   1.015252e-03  1.866303e-06
    296    306   2   0.50000    -0.1200000    0.0600000   2.494471e-04  1.671101e-07
    296    307   2   0.50000    -0.1200000    0.0600000   2.494471e-04  1.671101e-07
    305    299   2   0.50000     0.0600000    0.0000000   2.494471e-04  1.671101e-07
    305    306   2   0.50000     0.0600000    0.0600000   6.128906e-05  1.496315e-08
    305    307   2   0.50000     0.0600000    0.0600000   6.128906e-05  1.496315e-08
    317    299   2   0.50000    -0.1200000    0.0000000   1.015252e-03  1.866303e-06
    317    306   2   0.50000    -0.1200000    0.0600000   2.494471e-04  1.671101e-07
    317    307   2   0.50000    -0.1200000    0.0600000   2.494471e-04  1.671101e-07
    296    318   2   0.50000    -0.1200000   -0.0600000   1.015252e-03  1.866303e-06
    296    324   2   0.50000    -0.1200000    0.0600000   2.494471e-04  1.671101e-07
    296    325   2   0.50000    -0.1200000    0.0600000   2.494471e-04  1.671101e-07
    298    318   2   0.50000    -0.1200000   -0.0600000   1.015252e-03  1.866303e-06
    298    324   2   0.50000    -0.1200000    0.0600000   2.494471e-04  1.671101e-07
    298    325   2   0.50000    -0.1200000    0.0600000   2.494471e-04  1.671101e-07
    305    318   2   0.50000     0.0600000   -0.0600000   2.494471e-04  1.671101e-07
    305    324   2   0.50000     0.0600000    0.0600000   6.128906e-05  1.496315e-08
    305    325   2   0.50000     0.0600000    0.0600000   6.128906e-05  1.496315e-08
    297    300   2   0.50000    -0.0600000   -0.1800000   1.015252e-03  1.866303e-06
    297    301   2   0.50000    -0.0600000   -0.1800000   1.015252e-03  1.866303e-06
    297    302   2   0.50000    -0.0600000   -0.1800000   1.015252e-03  1.866303e-06
    306    300   2   0.50000     0.0600000   -0.1800000   2.494471e-04  1.671101e-07
    306    301   2   0.50000     0.0600000   -0.1800000   2.494471e-04  1.671101e-07
    306    302   2   0.50000     0.0600000   -0.1800000   2.494471e-04  1.671101e-07
    307    300   2   0.50000     0.0600000   -0.1800000   2.494471e-04  1.671101e-07
    307    301   2   0.50000     0.0600000   -0.1800000   2.494471e-04  1.671101e-07
    307    302   2   0.50000     0.0600000   -0.1800000   2.494471e-04  1.671101e-07
    298    308   2   0.50000    -0.1200000    0.0600000   2.494471e-04  1.671101e-07
    298    309   2   0.50000    -0.1200000    0.0600000   2.494471e-04  1.671101e-07
    298    310   2   0.50000    -0.1200000    0.0600000   2.494471e-04  1.671101e-07
    301    308   2   0.50000    -0.1800000    0.0600000   2.494471e-04  1.671101e-07
    301    309   2   0.50000    -0.1800000    0.0600000   2.494471e-04  1.671101e-07
    301    310   2   0.50000    -0.1800000    0.0600000   2.494471e-04  1.671101e-07
    302    308   2   0.50000    -0.1800000    0.0600000   2.494471e-04  1.671101e-07
    302    309   2   0.50000    -0.1800000    0.0600000   2.494471e-04  1.671101e-07
    302    310   2   0.50000    -0.1800000    0.0600000   2.494471e-04  1.671101e-07
    298    311   2   0.50000    -0.1200000    0.0600000   2.494471e-04  1.671101e-07
    298    312   2   0.50000    -0.1200000    0.0600000   2.494471e-04  1.671101e-07
    298    313   2   0.50000    -0.1200000    0.0600000   2.494471e-04  1.671101e-07
    300    311   2   0.50000    -0.1800000    0.0600000   2.494471e-04  1.671101e-07
    300    312   2   0.50000    -0.1800000    0.0600000   2.494471e-04  1.671101e-07
    300    313   2   0.50000    -0.1800000    0.0600000   2.494471e-04  1.671101e-07
    302    311   2   0.50000    -0.1800000    0.0600000   2.494471e-04  1.671101e-07
    302    312   2   0.50000    -0.1800000    0.0600000   2.494471e-04  1.671101e-07
    302    313   2   0.50000    -0.1800000    0.0600000   2.494471e-04  1.671101e-07
    298    314   2   0.50000    -0.1200000    0.0600000   2.494471e-04  1.671101e-07
    298    315   2   0.50000    -0.1200000    0.0600000   2.494471e-04  1.671101e-07
    298    316   2   0.50000    -0.1200000    0.0600000   2.494471e-04  1.671101e-07
    300    314   2   0.50000    -0.1800000    0.0600000   2.494471e-04  1.671101e-07
    300    315   2   0.50000    -0.1800000    0.0600000   2.494471e-04  1.671101e-07
    300    316   2   0.50000    -0.1800000    0.0600000   2.494471e-04  1.671101e-07
    301    314   2   0.50000    -0.1800000    0.0600000   2.494471e-04  1.671101e-07
    301    315   2   0.50000    -0.1800000    0.0600000   2.494471e-04  1.671101e-07
    301    316   2   0.50000    -0.1800000    0.0600000   2.494471e-04  1.671101e-07
    297    319   2   0.50000    -0.0600000   -0.1200000   1.015252e-03  1.866303e-06
    297    326   2   0.50000    -0.0600000    0.0600000   2.494471e-04  1.671101e-07
    297    338   2   0.50000    -0.0600000   -0.1200000   1.015252e-03  1.866303e-06
    324    319   2   0.50000     0.0600000   -0.1200000   2.494471e-04  1.671101e-07
    324    326   2   0.50000     0.0600000    0.0600000   6.128906e-05  1.496315e-08
    324    338   2   0.50000     0.0600000   -0.1200000   2.494471e-04  1.671101e-07
    325    319   2   0.50000     0.0600000   -0.1200000   2.494471e-04  1.671101e-07
    325    326   2   0.50000     0.0600000    0.0600000   6.128906e-05  1.496315e-08
    325    338   2   0.50000     0.0600000   -0.1200000   2.494471e-04  1.671101e-07
    317    320   2   0.50000    -0.1200000    0.0000000   1.015252e-03  1.866303e-06
    317    327   2   0.50000    -0.1200000    0.0600000   2.494471e-04  1.671101e-07
    317    328   2   0.50000    -0.1200000    0.0600000   2.494471e-04  1.671101e-07
    326    320   2   0.50000     0.0600000    0.0000000   2.494471e-04  1.671101e-07
    326    327   2   0.50000     0.0600000    0.0600000   6.128906e-05  1.496315e-08
    326    328   2   0.50000     0.0600000    0.0600000   6.128906e-05  1.496315e-08
    338    320   2   0.50000    -0.1200000    0.0000000   1.015252e-03  1.866303e-06
    338    327   2   0.50000    -0.1200000    0.0600000   2.494471e-04  1.671101e-07
    338    328   2   0.50000    -0.1200000    0.0600000   2.494471e-04  1.671101e-07
    317    339   2   0.50000    -0.1200000   -0.0600000   1.015252e-03  1.866303e-06
    317    345   2   0.50000    -0.1200000    0.0600000   2.494471e-04  1.671101e-07
    317    346   2   0.50000    -0.1200000    0.0600000   2.494471e-04  1.671101e-07
    319    339   2   0.50000    -0.1200000   -0.0600000   1.015252e-03  1.866303e-06
    319    345   2   0.50000    -0.1200000    0.0600000   2.494471e-04  1.671101e-07
    319    346   2   0.50000    -0.1200000    0.0600000   2.494471e-04  1.671101e-07
    326    339   2   0.50000     0.0600000   -0.0600000   2.494471e-04  1.671101e-07
    326    345   2   0.50000     0.0600000    0.0600000   6.128906e-05  1.496315e-08
    326    346   2   0.50000     0.0600000    0.0600000   6.128906e-05  1.496315e-08
    318    321   2   0.50000    -0.0600000   -0.1800000   1.015252e-03  1.866303e-06
    318    322   2   0.50000    -0.0600000   -0.1800000   1.015252e-03  1.866303e-06
    318    323   2   0.50000    -0.0600000   -0.1800000   1.015252e-03  1.866303e-06
    327    321   2   0.50000     0.0600000   -0.1800000   2.494471e-04  1.671101e-07
    327    322   2   0.50000     0.0600000   -0.1800000   2.494471e-04  1.671101e-07
    327    323   2   0.50000     0.0600000   -0.1800000   2.494471e-04  1.671101e-07
    328    321   2   0.50000     0.0600000   -0.1800000   2.494471e-04  1.671101e-07
    328    322   2   0.50000     0.0600000   -0.1800000   2.494471e-04  1.671101e-07
    328    323   2   0.50000     0.0600000   -0.1800000   2.494471e-04  1.671101e-07
    319    329   2   0.50000    -0.1200000    0.0600000   2.494471e-04  1.671101e-07
    319    330   2   0.50000    -0.1200000    0.0600000   2.494471e-04  1.671101e-07
    319    331   2   0.50000    -0.1200000    0.0600000   2.494471e-04  1.671101e-07
    322    329   2   0.50000    -0.1800000    0.0600000   2.494471e-04  1.671101e-07
    322    330   2   0.50000    -0.1800000    0.0600000   2.494471e-04  1.671101e-07
    322    331   2   0.50000    -0.1800000    0.0600000   2.494471e-04  1.671101e-07
    323    329   2   0.50000    -0.1800000    0.0600000   2.494471e-04  1.671101e-07
    323    330   2   0.50000    -0.1800000    0.0600000   2.494471e-04  1.671101e-07
    323    331   2   0.50000    -0.1800000    0.0600000   2.494471e-04  1.671101e-07
    319    332   2   0.50000    -0.1200000    0.0600000   2.494471e-04  1.671101e-07
    319    333   2   0.50000    -0.1200000    0.0600000   2.494471e-04  1.671101e-07
    319    334   2   0.50000    -0.1200000    0.0600000   2.494471e-04  1.671101e-07
    321    332   2   0.50000    -0.1800000    0.0600000   2.494471e-04  1.671101e-07
    321    333   2   0.50000    -0.1800000    0.0600000   2.494471e-04  1.671101e-07
    321    334   2   0.50000    -0.1800000    0.0600000   2.494471e-04  1.671101e-07
    323    332   2   0.50000    -0.1800000    0.0600000   2.494471e-04  1.671101e-07
    323    333   2   0.50000    -0.1800000    0.0600000   2.494471e-04  1.671101e-07
    323    334   2   0.50000    -0.1800000    0.0600000   2.494471e-04  1.671101e-07
    319    335   2   0.50000    -0.1200000    0.0600000   2.494471e-04  1.671101e-07
    319    336   2   0.50000    -0.1200000    0.0600000   2.494471e-04  1.671101e-07
    319    337   2   0.50000    -0.1200000    0.0600000   2.494471e-04  1.671101e-07
    321    335   2   0.50000    -0.1800000    0.0600000   2.494471e-04  1.671101e-07
    321    336   2   0.50000    -0.1800000    0.0600000   2.494471e-04  1.671101e-07
    321    337   2   0.50000    -0.1800000    0.0600000   2.494471e-04  1.671101e-07
    322    335   2   0.50000    -0.1800000    0.0600000   2.494471e-04  1.671101e-07
    322    336   2   0.50000    -0.1800000    0.0600000   2.494471e-04  1.671101e-07
    322    337   2   0.50000    -0.1800000    0.0600000   2.494471e-04  1.671101e-07
    318    340   2   0.50000    -0.0600000   -0.1200000   1.015252e-03  1.866303e-06
    318    347   2   0.50000    -0.0600000    0.0600000   2.494471e-04  1.671101e-07
    318    359   2   0.50000    -0.0600000   -0.1200000   1.015252e-03  1.866303e-06
    345    340   2   0.50000     0.0600000   -0.1200000   2.494471e-04  1.671101e-07
    345    347   2   0.50000     0.0600000    0.0600000   6.128906e-05  1.496315e-08
    345    359   2   0.50000     0.0600000   -0.1200000   2.494471e-04  1.671101e-07
    346    340   2   0.50000     0.0600000   -0.1200000   2.494471e-04  1.671101e-07
    346    347   2   0.50000     0.0600000    0.0600000   6.128906e-05  1.496315e-08
    346    359   2   0.50000     0.0600000   -0.1200000   2.494471e-04  1.671101e-07
    338    341   2   0.50000    -0.1200000    0.0000000   1.015252e-03  1.866303e-06
    338    348   2   0.50000    -0.1200000    0.0600000   2.494471e-04  1.671101e-07
    338    349   2   0.50000    -0.1200000    0.0600000   2.494471e-04  1.671101e-07
    347    341   2   0.50000     0.0600000    0.0000000   2.494471e-04  1.671101e-07
    347    348   2   0.50000     0.0600000    0.0600000   6.128906e-05  1.496315e-08
    347    349   2   0.50000     0.0600000    0.0600000   6.128906e-05  1.496315e-08
    359    341   2   0.50000    -0.1200000    0.0000000   1.015252e-03  1.866303e-06
    359    348   2   0.50000    -0.1200000    0.0600000   2.494471e-04  1.671101e-07
    359    349   2   0.50000    -0.1200000    0.0600000   2.494471e-04  1.671101e-07
    338    360   2   0.50000    -0.1200000   -0.0600000   1.015252e-03  1.866303e-06
    338    366   2   0.50000    -0.1200000    0.0600000   2.494471e-04  1.671101e-07
    338    367   2   0.50000    -0.1200000    0.0600000   2.494471e-04  1.671101e-07
    340    360   2   0.50000    -0.1200000   -0.0600000   1.015252e-03  1.866303e-06
    340    366   2   0.50000    -0.1200000    0.0600000   2.494471e-04  1.671101e-07
    340    367   2   0.50000    -0.1200000    0.0600000   2.494471e-04  1.671101e-07
    347    360   2   0.50000     0.0600000   -0.0600000   2.494471e-04  1.671101e-07
    347    366   2   0.50000     0.0600000    0.0600000   6.128906e-05  1.496315e-08
    347    367   2   0.50000     0.0600000    0.0600000   6.128906e-05  1.496315e-08
    339    342   2   0.50000    -0.0600000   -0.1800000   1.015252e-03  1.866303e-06
    339    343   2   0.50000    -0.0600000   -0.1800000   1.015252e-03  1.866303e-06
    339    344   2   0.50000    -0.0600000   -0.1800000   1.015252e-03  1.866303e-06
    348    342   2   0.50000     0.0600000   -0.1800000   2.494471e-04  1.671101e-07
    348    343   2   0.50000     0.0600000   -0.1800000   2.494471e-04  1.671101e-07
    348    344   2   0.50000     0.0600000   -0.1800000   2.494471e-04  1.671101e-07
    349    342   2   0.50000     0.0600000   -0.1800000   2.494471e-04  1.671101e-07
    349    343   2   0.50000     0.0600000   -0.1800000   2.494471e-04  1.671101e-07
    349    344   2   0.50000     0.0600000   -0.1800000   2.494471e-04  1.671101e-07
    340    350   2   0.50000    -0.1200000    0.0600000   2.494471e-04  1.671101e-07
    340    351   2   0.50000    -0.1200000    0.0600000   2.494471e-04  1.671101e-07
    340    352   2   0.50000    -0.1200000    0.0600000   2.494471e-04  1.671101e-07
    343    350   2   0.50000    -0.1800000    0.0600000   2.494471e-04  1.671101e-07
    343    351   2   0.50000    -0.1800000    0.0600000   2.494471e-04  1.671101e-07
    343    352   2   0.50000    -0.1800000    0.0600000   2.494471e-04  1.671101e-07
    344    350   2   0.50000    -0.1800000    0.0600000   2.494471e-04  1.671101e-07
    344    351   2   0.50000    -0.1800000    0.0600000   2.494471e-04  1.671101e-07
    344    352   2   0.50000    -0.1800000    0.0600000   2.494471e-04  1.671101e-07
    340    353   2   0.50000    -0.1200000    0.0600000   2.494471e-04  1.671101e-07
    340    354   2   0.50000    -0.1200000    0.0600000   2.494471e-04  1.671101e-07
    340    355   2   0.50000    -0.1200000    0.0600000   2.494471e-04  1.671101e-07
    342    353   2   0.50000    -0.1800000    0.0600000   2.494471e-04  1.671101e-07
    342    354   2   0.50000    -0.1800000    0.0600000   2.494471e-04  1.671101e-07
    342    355   2   0.50000    -0.1800000    0.0600000   2.494471e-04  1.671101e-07
    344    353   2   0.50000    -0.1800000    0.0600000   2.494471e-04  1.671101e-07
    344    354   2   0.50000    -0.1800000    0.0600000   2.494471e-04  1.671101e-07
    344    355   2   0.50000    -0.1800000    0.0600000   2.494471e-04  1.671101e-07
    340    356   2   0.50000    -0.1200000    0.0600000   2.494471e-04  1.671101e-07
    340    357   2   0.50000    -0.1200000    0.0600000   2.494471e-04  1.671101e-07
    340    358   2   0.50000    -0.1200000    0.0600000   2.494471e-04  1.671101e-07
    342    356   2   0.50000    -0.1800000    0.0600000   2.494471e-04  1.671101e-07
    342    357   2   0.50000    -0.1800000    0.0600000   2.494471e-04  1.671101e-07
    342    358   2   0.50000    -0.1800000    0.0600000   2.494471e-04  1.671101e-07
    343    356   2   0.50000    -0.1800000    0.0600000   2.494471e-04  1.671101e-07
    343    357   2   0.50000    -0.1800000    0.0600000   2.494471e-04  1.671101e-07
    343    358   2   0.50000    -0.1800000    0.0600000   2.494471e-04  1.671101e-07
    339    361   2   0.50000    -0.0600000   -0.1200000   1.015252e-03  1.866303e-06
    339    368   2   0.50000    -0.0600000    0.0600000   2.494471e-04  1.671101e-07
    339    380   2   0.50000    -0.0600000   -0.1200000   1.015252e-03  1.866303e-06
    366    361   2   0.50000     0.0600000   -0.1200000   2.494471e-04  1.671101e-07
    366    368   2   0.50000     0.0600000    0.0600000   6.128906e-05  1.496315e-08
    366    380   2   0.50000     0.0600000   -0.1200000   2.494471e-04  1.671101e-07
    367    361   2   0.50000     0.0600000   -0.1200000   2.494471e-04  1.671101e-07
    367    368   2   0.50000     0.0600000    0.0600000   6.128906e-05  1.496315e-08
    367    380   2   0.50000     0.0600000   -0.1200000   2.494471e-04  1.671101e-07
    359    362   2   0.50000    -0.1200000    0.0000000   1.015252e-03  1.866303e-06
    359    369   2   0.50000    -0.1200000    0.0600000   2.494471e-04  1.671101e-07
    359    370   2   0.50000    -0.1200000    0.0600000   2.494471e-04  1.671101e-07
    368    362   2   0.50000     0.0600000    0.0000000   2.494471e-04  1.671101e-07
    368    369   2   0.50000     0.0600000    0.0600000   6.128906e-05  1.496315e-08
    368    370   2   0.50000     0.0600000    0.0600000   6.128906e-05  1.496315e-08
    380    362   2   0.50000    -0.1200000    0.0000000   1.015252e-03  1.866303e-06
    380    369   2   0.50000    -0.1200000    0.0600000   2.494471e-04  1.671101e-07
    380    370   2   0.50000    -0.1200000    0.0600000   2.494471e-04  1.671101e-07
    359    381   2   0.50000    -0.1200000   -0.0600000   1.015252e-03  1.866303e-06
    359    387   2   0.50000    -0.1200000    0.0600000   2.494471e-04  1.671101e-07
    359    388   2   0.50000    -0.1200000    0.0600000   2.494471e-04  1.671101e-07
    361    381   2   0.50000    -0.1200000   -0.0600000   1.015252e-03  1.866303e-06
    361    387   2   0.50000    -0.1200000    0.0600000   2.494471e-04  1.671101e-07
    361    388   2   0.50000    -0.1200000    0.0600000   2.494471e-04  1.671101e-07
    368    381   2   0.50000     0.0600000   -0.0600000   2.494471e-04  1.671101e-07
    368    387   2   0.50000     0.0600000    0.0600000   6.128906e-05  1.496315e-08
    368    388   2   0.50000     0.0600000    0.0600000   6.128906e-05  1.496315e-08
    360    363   2   0.50000    -0.0600000   -0.1800000   1.015252e-03  1.866303e-06
    360    364   2   0.50000    -0.0600000   -0.1800000   1.015252e-03  1.866303e-06
    360    365   2   0.50000    -0.0600000   -0.1800000   1.015252e-03  1.866303e-06
    369    363   2   0.50000     0.0600000   -0.1800000   2.494471e-04  1.671101e-07
    369    364   2   0.50000     0.0600000   -0.1800000   2.494471e-04  1.671101e-07
    369    365   2   0.50000     0.0600000   -0.1800000   2.494471e-04  1.671101e-07
    370    363   2   0.50000     0.0600000   -0.1800000   2.494471e-04  1.671101e-07
    370    364   2   0.50000     0.0600000   -0.1800000   2.494471e-04  1.671101e-07
    370    365   2   0.50000     0.0600000   -0.1800000   2.494471e-04  1.671101e-07
    361    371   2   0.50000    -0.1200000    0.0600000   2.494471e-04  1.671101e-07
    361    372   2   0.50000    -0.1200000    0.0600000   2.494471e-04  1.671101e-07
    361    373   2   0.50000    -0.1200000    0.0600000   2.494471e-04  1.671101e-07
    364    371   2   0.50000    -0.1800000    0.0600000   2.494471e-04  1.671101e-07
    364    372   2   0.50000    -0.1800000    0.0600000   2.494471e-04  1.671101e-07
    364    373   2   0.50000    -0.1800000    0.0600000   2.494471e-04  1.671101e-07
    365    371   2   0.50000    -0.1800000    0.0600000   2.494471e-04  1.671101e-07
    365    372   2   0.50000    -0.1800000    0.0600000   2.494471e-04  1.671101e-07
    365    373   2   0.50000    -0.1800000    0.0600000   2.494471e-04  1.671101e-07
    361    374   2   0.50000    -0.1200000    0.0600000   2.494471e-04  1.671101e-07
    361    375   2   0.50000    -0.1200000    0.0600000   2.494471e-04  1.671101e-07
    361    376   2   0.50000    -0.1200000    0.0600000   2.494471e-04  1.671101e-07
    363    374   2   0.50000    -0.1800000    0.0600000   2.494471e-04  1.671101e-07
    363    375   2   0.50000    -0.1800000    0.0600000   2.494471e-04  1.671101e-07
    363    376   2   0.50000    -0.1800000    0.0600000   2.494471e-04  1.671101e-07
    365    374   2   0.50000    -0.1800000    0.0600000   2.494471e-04  1.671101e-07
    365    375   2   0.50000    -0.1800000    0.0600000   2.494471e-04  1.671101e-07
    365    376   2   0.50000    -0.1800000    0.0600000   2.494471e-04  1.671101e-07
    361    377   2   0.50000    -0.1200000    0.0600000   2.494471e-04  1.671101e-07
    361    378   2   0.50000    -0.1200000    0.0600000   2.494471e-04  1.671101e-07
    361    379   2   0.50000    -0.1200000    0.0600000   2.494471e-04  1.671101e-07
    363    377   2   0.50000    -0.1800000    0.0600000   2.494471e-04  1.671101e-07
    363    378   2   0.50000    -0.1800000    0.0600000   2.494471e-04  1.671101e-07
    363    379   2   0.50000    -0.1800000    0.0600000   2.494471e-04  1.671101e-07
    364    377   2   0.50000    -0.1800000    0.0600000   2.494471e-04  1.671101e-07
    364    378   2   0.50000    -0.1800000    0.0600000   2.494471e-04  1.671101e-07
    364    379   2   0.50000    -0.1800000    0.0600000   2.494471e-04  1.671101e-07
    360    382   2   0.50000    -0.0600000   -0.1200000   1.015252e-03  1.866303e-06
    360    389   2   0.50000    -0.0600000    0.0600000   2.494471e-04  1.671101e-07
    360    401   2   0.50000    -0.0600000   -0.1200000   1.015252e-03  1.866303e-06
    387    382   2   0.50000     0.0600000   -0.1200000   2.494471e-04  1.671101e-07
    387    389   2   0.50000     0.0600000    0.0600000   6.128906e-05  1.496315e-08
    387    401   2   0.50000     0.0600000   -0.1200000   2.494471e-04  1.671101e-07
    388    382   2   0.50000     0.0600000   -0.1200000   2.494471e-04  1.671101e-07
    388    389   2   0.50000     0.0600000    0.0600000   6.128906e-05  1.496315e-08
    388    401   2   0.50000     0.0600000   -0.1200000   2.494471e-04  1.671101e-07
    380    383   2   0.50000    -0.1200000    0.0000000   1.015252e-03  1.866303e-06
    380    390   2   0.50000    -0.1200000    0.0600000   2.494471e-04  1.671101e-07
    380    391   2   0.50000    -0.1200000    0.0600000   2.494471e-04  1.671101e-07
    389    383   2   0.50000     0.0600000    0.0000000   2.494471e-04  1.671101e-07
    389    390   2   0.50000     0.0600000    0.0600000   6.128906e-05  1.496315e-08
    389    391   2   0.50000     0.0600000    0.0600000   6.128906e-05  1.496315e-08
    401    383   2   0.50000    -0.1200000    0.0000000   1.015252e-03  1.866303e-06
    401    390   2   0.50000    -0.1200000    0.0600000   2.494471e-04  1.671101e-07
    401    391   2   0.50000    -0.1200000    0.0600000   2.494471e-04  1.671101e-07
    380    402   2   0.50000    -0.1200000   -0.1200000   1.015252e-03  1.866303e-06
    380    408   2   0.50000    -0.1200000    0.0600000   2.494471e-04  1.671101e-07
    380    409   2   0.50000    -0.1200000    0.0600000   2.494471e-04  1.671101e-07
    382    402   2   0.50000    -0.1200000   -0.1200000   1.015252e-03  1.866303e-06
    382    408   2   0.50000    -0.1200000    0.0600000   2.494471e-04  1.671101e-07
    382    409   2   0.50000    -0.1200000    0.0600000   2.494471e-04  1.671101e-07
    389    402   2   0.50000     0.0600000   -0.1200000   2.494471e-04  1.671101e-07
    389    408   2   0.50000     0.0600000    0.0600000   6.128906e-05  1.496315e-08
    389    409   2   0.50000     0.0600000    0.0600000   6.128906e-05  1.496315e-08
    381    384   2   0.50000    -0.0600000   -0.1800000   1.015252e-03  1.866303e-06
    381    385   2   0.50000    -0.0600000   -0.1800000   1.015252e-03  1.866303e-06
    381    386   2   0.50000    -0.0600000   -0.1800000   1.015252e-03  1.866303e-06
    390    384   2   0.50000     0.0600000   -0.1800000   2.494471e-04  1.671101e-07
    390    385   2   0.50000     0.0600000   -0.1800000   2.494471e-04  1.671101e-07
    390    386   2   0.50000     0.0600000   -0.1800000   2.494471e-04  1.671101e-07
    391    384   2   0.50000     0.0600000   -0.1800000   2.494471e-04  1.671101e-07
    391    385   2   0.50000     0.0600000   -0.1800000   2.494471e-04  1.671101e-07
    391    386   2   0.50000     0.0600000   -0.1800000   2.494471e-04  1.671101e-07
    382    392   2   0.50000    -0.1200000    0.0600000   2.494471e-04  1.671101e-07
    382    393   2   0.50000    -0.1200000    0.0600000   2.494471e-04  1.671101e-07
    382    394   2   0.50000    -0.1200000    0.0600000   2.494471e-04  1.671101e-07
    385    392   2   0.50000    -0.1800000    0.0600000   2.494471e-04  1.671101e-07
    385    393   2   0.50000    -0.1800000    0.0600000   2.494471e-04  1.671101e-07
    385    394   2   0.50000    -0.1800000    0.0600000   2.494471e-04  1.671101e-07
    386    392   2   0.50000    -0.1800000    0.0600000   2.494471e-04  1.671101e-07
    386    393   2   0.50000    -0.1800000    0.0600000   2.494471e-04  1.671101e-07
    386    394   2   0.50000    -0.1800000    0.0600000   2.494471e-04  1.671101e-07
    382    395   2   0.50000    -0.1200000    0.0600000   2.494471e-04  1.671101e-07
    382    396   2   0.50000    -0.1200000    0.0600000   2.494471e-04  1.671101e-07
    382    397   2   0.50000    -0.1200000    0.0600000   2.494471e-04  1.671101e-07
    384    395   2   0.50000    -0.1800000    0.0600000   2.494471e-04  1.671101e-07
    384    396   2   0.50000    -0.1800000    0.0600000   2.494471e-04  1.671101e-07
    384    397   2   0.50000    -0.1800000    0.0600000   2.494471e-04  1.671101e-07
    386    395   2   0.50000    -0.1800000    0.0600000   2.494471e-04  1.671101e-07
    386    396   2   0.50000    -0.1800000    0.0600000   2.494471e-04  1.671101e-07
    386    397   2   0.50000    -0.1800000    0.0600000   2.494471e-04  1.671101e-07
    382    398   2   0.50000    -0.1200000    0.0600000   2.494471e-04  1.671101e-07
    382    399   2   0.50000    -0.1200000    0.0600000   2.494471e-04  1.671101e-07
    382    400   2   0.50000    -0.1200000    0.0600000   2.494471e-04  1.671101e-07
    384    398   2   0.50000    -0.1800000    0.0600000   2.494471e-04  1.671101e-07
    384    399   2   0.50000    -0.1800000    0.0600000   2.494471e-04  1.671101e-07
    384    400   2   0.50000    -0.1800000    0.0600000   2.494471e-04  1.671101e-07
    385    398   2   0.50000    -0.1800000    0.0600000   2.494471e-04  1.671101e-07
    385    399   2   0.50000    -0.1800000    0.0600000   2.494471e-04  1.671101e-07
    385    400   2   0.50000    -0.1800000    0.0600000   2.494471e-04  1.671101e-07
    381    403   2   0.50000    -0.0600000   -0.1200000   1.015252e-03  1.866303e-06
    381    410   2   0.50000    -0.0600000    0.0600000   2.494471e-04  1.671101e-07
    381    422   2   0.50000    -0.0600000    0.0600000   2.494471e-04  1.671101e-07
    408    403   2   0.50000     0.0600000   -0.1200000   2.494471e-04  1.671101e-07
    408    410   2   0.50000     0.0600000    0.0600000   6.128906e-05  1.496315e-08
    408    422   2   0.50000     0.0600000    0.0600000   6.128906e-05  1.496315e-08
    409    403   2   0.50000     0.0600000   -0.1200000   2.494471e-04  1.671101e-07
    409    410   2   0.50000     0.0600000    0.0600000   6.128906e-05  1.496315e-08
    409    422   2   0.50000     0.0600000    0.0600000   6.128906e-05  1.496315e-08
    401    404   2   0.50000    -0.1200000    0.0000000   1.015252e-03  1.866303e-06
    401    411   2   0.50000    -0.1200000    0.0600000   2.494471e-04  1.671101e-07
    401    412   2   0.50000    -0.1200000    0.0600000   2.494471e-04  1.671101e-07
    410    404   2   0.50000     0.0600000    0.0000000   2.494471e-04  1.671101e-07
    410    411   2   0.50000     0.0600000    0.0600000   6.128906e-05  1.496315e-08
    410    412   2   0.50000     0.0600000    0.0600000   6.128906e-05  1.496315e-08
    422    404   2   0.50000     0.0600000    0.0000000   2.494471e-04  1.671101e-07
    422    411   2   0.50000     0.0600000    0.0600000   6.128906e-05  1.496315e-08
    422    412   2   0.50000     0.0600000    0.0600000   6.128906e-05  1.496315e-08
    402    405   2   0.50000    -0.1200000   -0.1800000   1.015252e-03  1.866303e-06
    402    406   2   0.50000    -0.1200000   -0.1800000   1.015252e-03  1.866303e-06
    402    407   2   0.50000    -0.1200000   -0.1800000   1.015252e-03  1.866303e-06
    411    405   2   0.50000     0.0600000   -0.1800000   2.494471e-04  1.671101e-07
    411    406   2   0.50000     0.0600000   -0.1800000   2.494471e-04  1.671101e-07
    411    407   2   0.50000     0.0600000   -0.1800000   2.494471e-04  1.671101e-07
    412    405   2   0.50000     0.0600000   -0.1800000   2.494471e-04  1.671101e-07
    412    406   2   0.50000     0.0600000   -0.1800000   2.494471e-04  1.671101e-07
    412    407   2   0.50000     0.0600000   -0.1800000   2.494471e-04  1.671101e-07
    403    413   2   0.50000    -0.1200000    0.0600000   2.494471e-04  1.671101e-07
    403    414   2   0.50000    -0.1200000    0.0600000   2.494471e-04  1.671101e-07
    403    415   2   0.50000    -0.1200000    0.0600000   2.494471e-04  1.671101e-07
    406    413   2   0.50000    -0.1800000    0.0600000   2.494471e-04  1.671101e-07
    406    414   2   0.50000    -0.1800000    0.0600000   2.494471e-04  1.671101e-07
    406    415   2   0.50000    -0.1800000    0.0600000   2.494471e-04  1.671101e-07
    407    413   2   0.50000    -0.1800000    0.0600000   2.494471e-04  1.671101e-07
    407    414   2   0.50000    -0.1800000    0.0600000   2.494471e-04  1.671101e-07
    407    415   2   0.50000    -0.1800000    0.0600000   2.494471e-04  1.671101e-07
    403    416   2   0.50000    -0.1200000    0.0600000   2.494471e-04  1.671101e-07
    403    417   2   0.50000    -0.1200000    0.0600000   2.494471e-04  1.671101e-07
    403    418   2   0.50000    -0.1200000    0.0600000   2.494471e-04  1.671101e-07
    405    416   2   0.50000    -0.1800000    0.0600000   2.494471e-04  1.671101e-07
    405    417   2   0.50000    -0.1800000    0.0600000   2.494471e-04  1.671101e-07
    405    418   2   0.50000    -0.1800000    0.0600000   2.494471e-04  1.671101e-07
    407    416   2   0.50000    -0.1800000    0.0600000   2.494471e-04  1.671101e-07
    407    417   2   0.50000    -0.1800000    0.0600000   2.494471e-04  1.671101e-07
    407    418   2   0.50000    -0.1800000    0.0600000   2.494471e-04  1.671101e-07
    403    419   2   0.50000    -0.1200000    0.0600000   2.494471e-04  1.671101e-07
    403    420   2   0.50000    -0.1200000    0.0600000   2.494471e-04  1.671101e-07
    403    421   2   0.50000    -0.1200000    0.0600000   2.494471e-04  1.671101e-07
    405    419   2   0.50000    -0.1800000    0.0600000   2.494471e-04  1.671101e-07
    405    420   2   0.50000    -0.1800000    0.0600000   2.494471e-04  1.671101e-07
    405    421   2   0.50000    -0.1800000    0.0600000   2.494471e-04  1.671101e-07
    406    419   2   0.50000    -0.1800000    0.0600000   2.494471e-04  1.671101e-07
    406    420   2   0.50000    -0.1800000    0.0600000   2.494471e-04  1.671101e-07
    406    421   2   0.50000    -0.1800000    0.0600000   2.494471e-04  1.671101e-07

[ angles ]
; ai  aj  ak
      2      1      8   1    110.7000    313.8000
      2      1      9   1    110.7000    313.8000
      2      1     22   1    110.7000    313.8000
      8      1      9   1    107.8000    276.1440
      8      1     22   1    107.8000    276.1440
      9      1     22   1    107.8000    276.1440
      1      2      3   1    112.7000    488.2728
      1      2     10   1    110.7000    313.8000
      1      2     23   1    112.7000    488.2728
      3      2     10   1    110.7000    313.8000
      3      2     23   1    112.7000    488.2728
     10      2     23   1    110.7000    313.8000
      2      3      4   1    112.7000    488.2728
      2      3     11   1    110.7000    313.8000
      2      3     12   1    110.7000    313.8000
      4      3     11   1    110.7000    313.8000
      4      3     12   1    110.7000    313.8000
     11      3     12   1    107.8000    276.1440
      3      4      5   1    112.7000    488.2728
      3      4      6   1    112.7000    488.2728
      3      4      7   1    112.7000    488.2728
      5      4      6   1    112.7000    488.2728
      5      4      7   1    112.7000    488.2728
      6      4      7   1    112.7000    488.2728
      4      5     13   1    110.7000    313.8000
      4      5     14   1    110.7000    313.8000
      4      5     15   1    110.7000    313.8000
     13      5     14   1    107.8000    276.1440
     13      5     15   1    107.8000    276.1440
     14      5     15   1    107.8000    276.1440
      4      6     16   1    110.7000    313.8000
      4      6     17   1    110.7000    313.8000
      4      6     18   1    110.7000    313.8000
     16      6     17   1    107.8000    276.1440
     16      6     18   1    107.8000    276.1440
     17      6     18   1    107.8000    276.1440
      4      7     19   1    110.7000    313.8000
      4      7     20   1    110.7000    313.8000
      4      7     21   1    110.7000    313.8000
     19      7     20   1    107.8000    276.1440
     19      7     21   1    107.8000    276.1440
     20      7     21   1    107.8000    276.1440
      2     23     24   1    112.7000    488.2728
      2     23     30   1    110.7000    313.8000
      2     23     31   1    110.7000    313.8000
     24     23     30   1    110.7000    313.8000
     24     23     31   1    110.7000    313.8000
     30     23     31   1    107.8000    276.1440
     23     24     25   1    112.7000    488.2728
     23     24     32   1    110.7000    313.8000
     23     24     44   1    112.7000    488.2728
     25     24     32   1    110.7000    313.8000
     25     24     44   1    112.7000    488.2728
     32     24     44   1    110.7000    313.8000
     24     25     26   1    112.7000    488.2728
     24     25     33   1    110.7000    313.8000
     24     25     34   1    110.7000    313.8000
     26     25     33   1    110.7000    313.8000
     26     25     34   1    110.7000    313.8000
     33     25     34   1    107.8000    276.1440
     25     26     27   1    112.7000    488.2728
     25     26     28   1    112.7000    488.2728
     25     26     29   1    112.7000    488.2728
     27     26     28   1    112.7000    488.2728
     27     26     29   1    112.7000    488.2728
     28     26     29   1    112.7000    488.2728
     26     27     35   1    110.7000    313.8000
     26     27     36   1    110.7000    313.8000
     26     27     37   1    110.7000    313.8000
     35     27     36   1    107.8000    276.1440
     35     27     37   1    107.8000    276.1440
     36     27     37   1    107.8000    276.1440
     26     28     38   1    110.7000    313.8000
     26     28     39   1    110.7000    313.8000
     26     28     40   1    110.7000    313.8000
     38     28     39   1    107.8000    276.1440
     38     28     40   1    107.8000    276.1440
     39     28     40   1    107.8000    276.1440
     26     29     41   1    110.7000    313.8000
     26     29     42   1    110.7000    313.8000
     26     29     43   1    110.7000    313.8000
     41     29     42   1    107.8000    276.1440
     41     29     43   1    107.8000    276.1440
     42     29     43   1    107.8000    276.1440
     24     44     45   1    112.7000    488.2728
     24     44     51   1    110.7000    313.8000
     24     44     52   1    110.7000    313.8000
     45     44     51   1    110.7000    313.8000
     45     44     52   1    110.7000    313.8000
     51     44     52   1    107.8000    276.1440
     44     45     46   1    112.7000    488.2728
     44     45     53   1    110.7000    313.8000
     44     45     65   1    112.7000    488.2728
     46     45     53   1    110.7000    313.8000
     46     45     65   1    112.7000    488.2728
     53     45     65   1    110.7000    313.8000
     45     46     47   1    112.7000    488.2728
     45     46     54   1    110.7000    313.8000
     45     46     55   1    110.7000    313.8000
     47     46     54   1    110.7000    313.8000
     47     46     55   1    110.7000    313.8000
     54     46     55   1    107.8000    276.1440
     46     47     48   1    112.7000    488.2728
     46     47     49   1    112.7000    488.2728
     46     47     50   1    112.7000    488.2728
     48     47     49   1    112.7000    488.2728
     48     47     50   1    112.7000    488.2728
     49     47     50   1    112.7000    488.2728
     47     48     56   1    110.7000    313.8000
     47     48     57   1    110.7000    313.8000
     47     48     58   1    110.7000    313.8000
     56     48     57   1    107.8000    276.1440
     56     48     58   1    107.8000    276.1440
     57     48     58   1    107.8000    276.1440
     47     49     59   1    110.7000    313.8000
     47     49     60   1    110.7000    313.8000
     47     49     61   1    110.7000    313.8000
     59     49     60   1    107.8000    276.1440
     59     49     61   1    107.8000    276.1440
     60     49     61   1    107.8000    276.1440
     47     50     62   1    110.7000    313.8000
     47     50     63   1    110.7000    313.8000
     47     50     64   1    110.7000    313.8000
     62     50     63   1    107.8000    276.1440
     62     50     64   1    107.8000    276.1440
     63     50     64   1    107.8000    276.1440
     45     65     66   1    112.7000    488.2728
     45     65     72   1    110.7000    313.8000
     45     65     73   1    110.7000    313.8000
     66     65     72   1    110.7000    313.8000
     66     65     73   1    110.7000    313.8000
     72     65     73   1    107.8000    276.1440
     65     66     67   1    112.7000    488.2728
     65     66     74   1    110.7000    313.8000
     65     66     86   1    112.7000    488.2728
     67     66     74   1    110.7000    313.8000
     67     66     86   1    112.7000    488.2728
     74     66     86   1    110.7000    313.8000
     66     67     68   1    112.7000    488.2728
     66     67     75   1    110.7000    313.8000
     66     67     76   1    110.7000    313.8000
     68     67     75   1    110.7000    313.8000
     68     67     76   1    110.7000    313.8000
     75     67     76   1    107.8000    276.1440
     67     68     69   1    112.7000    488.2728
     67     68     70   1    112.7000    488.2728
     67     68     71   1    112.7000    488.2728
     69     68     70   1    112.7000    488.2728
     69     68     71   1    112.7000    488.2728
     70     68     71   1    112.7000    488.2728
     68     69     77   1    110.7000    313.8000
     68     69     78   1    110.7000    313.8000
     68     69     79   1    110.7000    313.8000
     77     69     78   1    107.8000    276.1440
     77     69     79   1    107.8000    276.1440
     78     69     79   1    107.8000    276.1440
     68     70     80   1    110.7000    313.8000
     68     70     81   1    110.7000    313.8000
     68     70     82   1    110.7000    313.8000
     80     70     81   1    107.8000    276.1440
     80     70     82   1    107.8000    276.1440
     81     70     82   1    107.8000    276.1440
     68     71     83   1    110.7000    313.8000
     68     71     84   1    110.7000    313.8000
     68     71     85   1    110.7000    313.8000
     83     71     84   1    107.8000    276.1440
     83     71     85   1    107.8000    276.1440
     84     71     85   1    107.8000    276.1440
     66     86     87   1    112.7000    488.2728
     66     86     93   1    110.7000    313.8000
     66     86     94   1    110.7000    313.8000
     87     86     93   1    110.7000    313.8000
     87     86     94   1    110.7000    313.8000
     93     86     94   1    107.8000    276.1440
     86     87     88   1    112.7000    488.2728
     86     87     95   1    110.7000    313.8000
     86     87    107   1    112.7000    488.2728
     88     87     95   1    110.7000    313.8000
     88     87    107   1    112.7000    488.2728
     95     87    107   1    110.7000    313.8000
     87     88     89   1    112.7000    488.2728
     87     88     96   1    110.7000    313.8000
     87     88     97   1    110.7000    313.8000
     89     88     96   1    110.7000    313.8000
     89     88     97   1    110.7000    313.8000
     96     88     97   1    107.8000    276.1440
     88     89     90   1    112.7000    488.2728
     88     89     91   1    112.7000    488.2728
     88     89     92   1    112.7000    488.2728
     90     89     91   1    112.7000    488.2728
     90     89     92   1    112.7000    488.2728
     91     89     92   1    112.7000    488.2728
     89     90     98   1    110.7000    313.8000
     89     90     99   1    110.7000    313.8000
     89     90    100   1    110.7000    313.8000
     98     90     99   1    107.8000    276.1440
     98     90    100   1    107.8000    276.1440
     99     90    100   1    107.8000    276.1440
     89     91    101   1    110.7000    313.8000
     89     91    102   1    110.7000    313.8000
     89     91    103   1    110.7000    313.8000
    101     91    102   1    107.8000    276.1440
    101     91    103   1    107.8000    276.1440
    102     91    103   1    107.8000    276.1440
     89     92    104   1    110.7000    313.8000
     89     92    105   1    110.7000    313.8000
     89     92    106   1    110.7000    313.8000
    104     92    105   1    107.8000    276.1440
    104     92    106   1    107.8000    276.1440
    105     92    106   1    107.8000    276.1440
     87    107    108   1    112.7000    488.2728
     87    107    114   1    110.7000    313.8000
     87    107    115   1    110.7000    313.8000
    108    107    114   1    110.7000    313.8000
    108    107    115   1    110.7000    313.8000
    114    107    115   1    107.8000    276.1440
    107    108    109   1    112.7000    488.2728
    107    108    116   1    110.7000    313.8000
    107    108    128   1    112.7000    488.2728
    109    108    116   1    110.7000    313.8000
    109    108    128   1    112.7000    488.2728
    116    108    128   1    110.7000    313.8000
    108    109    110   1    112.7000    488.2728
    108    109    117   1    110.7000    313.8000
    108    109    118   1    110.7000    313.8000
    110    109    117   1    110.7000    313.8000
    110    109    118   1    110.7000    313.8000
    117    109    118   1    107.8000    276.1440
    109    110    111   1    112.7000    488.2728
    109    110    112   1    112.7000    488.2728
    109    110    113   1    112.7000    488.2728
    111    110    112   1    112.7000    488.2728
    111    110    113   1    112.7000    488.2728
    112    110    113   1    112.7000    488.2728
    110    111    119   1    110.7000    313.8000
    110    111    120   1    110.7000    313.8000
    110    111    121   1    110.7000    313.8000
    119    111    120   1    107.8000    276.1440
    119    111    121   1    107.8000    276.1440
    120    111    121   1    107.8000    276.1440
    110    112    122   1    110.7000    313.8000
    110    112    123   1    110.7000    313.8000
    110    112    124   1    110.7000    313.8000
    122    112    123   1    107.8000    276.1440
    122    112    124   1    107.8000    276.1440
    123    112    124   1    107.8000    276.1440
    110    113    125   1    110.7000    313.8000
    110    113    126   1    110.7000    313.8000
    110    113    127   1    110.7000    313.8000
    125    113    126   1    107.8000    276.1440
    125    113    127   1    107.8000    276.1440
    126    113    127   1    107.8000    276.1440
    108    128    129   1    112.7000    488.2728
    108    128    135   1    110.7000    313.8000
    108    128    136   1    110.7000    313.8000
    129    128    135   1    110.7000    313.8000
    129    128    136   1    110.7000    313.8000
    135    128    136   1    107.8000    276.1440
    128    129    130   1    112.7000    488.2728
    128    129    137   1    110.7000    313.8000
    128    129    149   1    112.7000    488.2728
    130    129    137   1    110.7000    313.8000
    130    129    149   1    112.7000    488.2728
    137    129    149   1    110.7000    313.8000
    129    130    131   1    112.7000    488.2728
    129    130    138   1    110.7000    313.8000
    129    130    139   1    110.7000    313.8000
    131    130    138   1    110.7000    313.8000
    131    130    139   1    110.7000    313.8000
    138    130    139   1    107.8000    276.1440
    130    131    132   1    112.7000    488.2728
    130    131    133   1    112.7000    488.2728
    130    131    134   1    112.7000    488.2728
    132    131    133   1    112.7000    488.2728
    132    131    134   1    112.7000    488.2728
    133    131    134   1    112.7000    488.2728
    131    132    140   1    110.7000    313.8000
    131    132    141   1    110.7000    313.8000
    131    132    142   1    110.7000    313.8000
    140    132    141   1    107.8000    276.1440
    140    132    142   1    107.8000    276.1440
    141    132    142   1    107.8000    276.1440
    131    133    143   1    110.7000    313.8000
    131    133    144   1    110.7000    313.8000
    131    133    145   1    110.7000    313.8000
    143    133    144   1    107.8000    276.1440
    143    133    145   1    107.8000    276.1440
    144    133    145   1    107.8000    276.1440
    131    134    146   1    110.7000    313.8000
    131    134    147   1    110.7000    313.8000
    131    134    148   1    110.7000    313.8000
    146    134    147   1    107.8000    276.1440
    146    134    148   1    107.8000    276.1440
    147    134    148   1    107.8000    276.1440
    129    149    150   1    112.7000    488.2728
    129    149    156   1    110.7000    313.8000
    129    149    157   1    110.7000    313.8000
    150    149    156   1    110.7000    313.8000
    150    149    157   1    110.7000    313.8000
    156    149    157   1    107.8000    276.1440
    149    150    151   1    112.7000    488.2728
    149    150    158   1    110.7000    313.8000
    149    150    170   1    112.7000    488.2728
    151    150    158   1    110.7000    313.8000
    151    150    170   1    112.7000    488.2728
    158    150    170   1    110.7000    313.8000
    150    151    152   1    112.7000    488.2728
    150    151    159   1    110.7000    313.8000
    150    151    160   1    110.7000    313.8000
    152    151    159   1    110.7000    313.8000
    152    151    160   1    110.7000    313.8000
    159    151    160   1    107.8000    276.1440
    151    152    153   1    112.7000    488.2728
    151    152    154   1    112.7000    488.2728
    151    152    155   1    112.7000    488.2728
    153    152    154   1    112.7000    488.2728
    153    152    155   1    112.7000    488.2728
    154    152    155   1    112.7000    488.2728
    152    153    161   1    110.7000    313.8000
    152    153    162   1    110.7000    313.8000
    152    153    163   1    110.7000    313.8000
    161    153    162   1    107.8000    276.1440
    161    153    163   1    107.8000    276.1440
    162    153    163   1    107.8000    276.1440
    152    154    164   1    110.7000    313.8000
    152    154    165   1    110.7000    313.8000
    152    154    166   1    110.7000    313.8000
    164    154    165   1    107.8000    276.1440
    164    154    166   1    107.8000    276.1440
    165    154    166   1    107.8000    276.1440
    152    155    167   1    110.7000    313.8000
    152    155    168   1    110.7000    313.8000
    152    155    169   1    110.7000    313.8000
    167    155    168   1    107.8000    276.1440
    167    155    169   1    107.8000    276.1440
    168    155    169   1    107.8000    276.1440
    150    170    171   1    112.7000    488.2728
    150    170    177   1    110.7000    313.8000
    150    170    178   1    110.7000    313.8000
    171    170    177   1    110.7000    313.8000
    171    170    178   1    110.7000    313.8000
    177    170    178   1    107.8000    276.1440
    170    171    172   1    112.7000    488.2728
    170    171    179   1    110.7000    313.8000
    170    171    191   1    112.7000    488.2728
    172    171    179   1    110.7000    313.8000
    172    171    191   1    112.7000    488.2728
    179    171    191   1    110.7000    313.8000
    171    172    173   1    112.7000    488.2728
    171    172    180   1    110.7000    313.8000
    171    172    181   1    110.7000    313.8000
    173    172    180   1    110.7000    313.8000
    173    172    181   1    110.7000    313.8000
    180    172    181   1    107.8000    276.1440
    172    173    174   1    112.7000    488.2728
    172    173    175   1    112.7000    488.2728
    172    173    176   1    112.7000    488.2728
    174    173    175   1    112.7000    488.2728
    174    173    176   1    112.7000    488.2728
    175    173    176   1    112.7000    488.2728
    173    174    182   1    110.7000    313.8000
    173    174    183   1    110.7000    313.8000
    173    174    184   1    110.7000    313.8000
    182    174    183   1    107.8000    276.1440
    182    174    184   1    107.8000    276.1440
    183    174    184   1    107.8000    276.1440
    173    175    185   1    110.7000    313.8000
    173    175    186   1    110.7000    313.8000
    173    175    187   1    110.7000    313.8000
    185    175    186   1    107.8000    276.1440
    185    175    187   1    107.8000    276.1440
    186    175    187   1    107.8000    276.1440
    173    176    188   1    110.7000    313.8000
    173    176    189   1    110.7000    313.8000
    173    176    190   1    110.7000    313.8000
    188    176    189   1    107.8000    276.1440
    188    176    190   1    107.8000    276.1440
    189    176    190   1    107.8000    276.1440
    171    191    192   1    112.7000    488.2728
    171    191    198   1    110.7000    313.8000
    171    191    199   1    110.7000    313.8000
    192    191    198   1    110.7000    313.8000
    192    191    199   1    110.7000    313.8000
    198    191    199   1    107.8000    276.1440
    191    192    193   1    112.7000    488.2728
    191    192    200   1    110.7000    313.8000
    191    192    212   1    112.7000    488.2728
    193    192    200   1    110.7000    313.8000
    193    192    212   1    112.7000    488.2728
    200    192    212   1    110.7000    313.8000
    192    193    194   1    112.7000    488.2728
    192    193    201   1    110.7000    313.8000
    192    193    202   1    110.7000    313.8000
    194    193    201   1    110.7000    313.8000
    194    193    202   1    110.7000    313.8000
    201    193    202   1    107.8000    276.1440
    193    194    195   1    112.7000    488.2728
    193    194    196   1    112.7000    488.2728
    193    194    197   1    112.7000    488.2728
    195    194    196   1    112.7000    488.2728
    195    194    197   1    112.7000    488.2728
    196    194    197   1    112.7000    488.2728
    194    195    203   1    110.7000    313.8000
    194    195    204   1    110.7000    313.8000
    194    195    205   1    110.7000    313.8000
    203    195    204   1    107.8000    276.1440
    203    195    205   1    107.8000    276.1440
    204    195    205   1    107.8000    276.1440
    194    196    206   1    110.7000    313.8000
    194    196    207   1    110.7000    313.8000
    194    196    208   1    110.7000    313.8000
    206    196    207   1    107.8000    276.1440
    206    196    208   1    107.8000    276.1440
    207    196    208   1    107.8000    276.1440
    194    197    209   1    110.7000    313.8000
    194    197    210   1    110.7000    313.8000
    194    197    211   1    110.7000    313.8000
    209    197    210   1    107.8000    276.1440
    209    197    211   1    107.8000    276.1440
    210    197    211   1    107.8000    276.1440
    192    212    213   1    112.7000    488.2728
    192    212    219   1    110.7000    313.8000
    192    212    220   1    110.7000    313.8000
    213    212    219   1    110.7000    313.8000
    213    212    220   1    110.7000    313.8000
    219    212    220   1    107.8000    276.1440
    212    213    214   1    112.7000    488.2728
    212    213    221   1    110.7000    313.8000
    212    213    233   1    112.7000    488.2728
    214    213    221   1    110.7000    313.8000
    214    213    233   1    112.7000    488.2728
    221    213    233   1    110.7000    313.8000
    213    214    215   1    112.7000    488.2728
    213    214    222   1    110.7000    313.8000
    213    214    223   1    110.7000    313.8000
    215    214    222   1    110.7000    313.8000
    215    214    223   1    110.7000    313.8000
    222    214    223   1    107.8000    276.1440
    214    215    216   1    112.7000    488.2728
    214    215    217   1    112.7000    488.2728
    214    215    218   1    112.7000    488.2728
    216    215    217   1    112.7000    488.2728
    216    215    218   1    112.7000    488.2728
    217    215    218   1    112.7000    488.2728
    215    216    224   1    110.7000    313.8000
    215    216    225   1    110.7000    313.8000
    215    216    226   1    110.7000    313.8000
    224    216    225   1    107.8000    276.1440
    224    216    226   1    107.8000    276.1440
    225    216    226   1    107.8000    276.1440
    215    217    227   1    110.7000    313.8000
    215    217    228   1    110.7000    313.8000
    215    217    229   1    110.7000    313.8000
    227    217    228   1    107.8000    276.1440
    227    217    229   1    107.8000    276.1440
    228    217    229   1    107.8000    276.1440
    215    218    230   1    110.7000    313.8000
    215    218    231   1    110.7000    313.8000
    215    218    232   1    110.7000    313.8000
    230    218    231   1    107.8000    276.1440
    230    218    232   1    107.8000    276.1440
    231    218    232   1    107.8000    276.1440
    213    233    234   1    112.7000    488.2728
    213    233    240   1    110.7000    313.8000
    213    233    241   1    110.7000    313.8000
    234    233    240   1    110.7000    313.8000
    234    233    241   1    110.7000    313.8000
    240    233    241   1    107.8000    276.1440
    233    234    235   1    112.7000    488.2728
    233    234    242   1    110.7000    313.8000
    233    234    254   1    112.7000    488.2728
    235    234    242   1    110.7000    313.8000
    235    234    254   1    112.7000    488.2728
    242    234    254   1    110.7000    313.8000
    234    235    236   1    112.7000    488.2728
    234    235    243   1    110.7000    313.8000
    234    235    244   1    110.7000    313.8000
    236    235    243   1    110.7000    313.8000
    236    235    244   1    110.7000    313.8000
    243    235    244   1    107.8000    276.1440
    235    236    237   1    112.7000    488.2728
    235    236    238   1    112.7000    488.2728
    235    236    239   1    112.7000    488.2728
    237    236    238   1    112.7000    488.2728
    237    236    239   1    112.7000    488.2728
    238    236    239   1    112.7000    488.2728
    236    237    245   1    110.7000    313.8000
    236    237    246   1    110.7000    313.8000
    236    237    247   1    110.7000    313.8000
    245    237    246   1    107.8000    276.1440
    245    237    247   1    107.8000    276.1440
    246    237    247   1    107.8000    276.1440
    236    238    248   1    110.7000    313.8000
    236    238    249   1    110.7000    313.8000
    236    238    250   1    110.7000    313.8000
    248    238    249   1    107.8000    276.1440
    248    238    250   1    107.8000    276.1440
    249    238    250   1    107.8000    276.1440
    236    239    251   1    110.7000    313.8000
    236    239    252   1    110.7000    313.8000
    236    239    253   1    110.7000    313.8000
    251    239    252   1    107.8000    276.1440
    251    239    253   1    107.8000    276.1440
    252    239    253   1    107.8000    276.1440
    234    254    255   1    112.7000    488.2728
    234    254    261   1    110.7000    313.8000
    234    254    262   1    110.7000    313.8000
    255    254    261   1    110.7000    313.8000
    255    254    262   1    110.7000    313.8000
    261    254    262   1    107.8000    276.1440
    254    255    256   1    112.7000    488.2728
    254    255    263   1    110.7000    313.8000
    254    255    275   1    112.7000    488.2728
    256    255    263   1    110.7000    313.8000
    256    255    275   1    112.7000    488.2728
    263    255    275   1    110.7000    313.8000
    255    256    257   1    112.7000    488.2728
    255    256    264   1    110.7000    313.8000
    255    256    265   1    110.7000    313.8000
    257    256    264   1    110.7000    313.8000
    257    256    265   1    110.7000    313.8000
    264    256    265   1    107.8000    276.1440
    256    257    258   1    112.7000    488.2728
    256    257    259   1    112.7000    488.2728
    256    257    260   1    112.7000    488.2728
    258    257    259   1    112.7000    488.2728
    258    257    260   1    112.7000    488.2728
    259    257    260   1    112.7000    488.2728
    257    258    266   1    110.7000    313.8000
    257    258    267   1    110.7000    313.8000
    257    258    268   1    110.7000    313.8000
    266    258    267   1    107.8000    276.1440
    266    258    268   1    107.8000    276.1440
    267    258    268   1    107.8000    276.1440
    257    259    269   1    110.7000    313.8000
    257    259    270   1    110.7000    313.8000
    257    259    271   1    110.7000    313.8000
    269    259    270   1    107.8000    276.1440
    269    259    271   1    107.8000    276.1440
    270    259    271   1    107.8000    276.1440
    257    260    272   1    110.7000    313.8000
    257    260    273   1    110.7000    313.8000
    257    260    274   1    110.7000    313.8000
    272    260    273   1    107.8000    276.1440
    272    260    274   1    107.8000    276.1440
    273    260    274   1    107.8000    276.1440
    255    275    276   1    112.7000    488.2728
    255    275    282   1    110.7000    313.8000
    255    275    283   1    110.7000    313.8000
    276    275    282   1    110.7000    313.8000
    276    275    283   1    110.7000    313.8000
    282    275    283   1    107.8000    276.1440
    275    276    277   1    112.7000    488.2728
    275    276    284   1    110.7000    313.8000
    275    276    296   1    112.7000    488.2728
    277    276    284   1    110.7000    313.8000
    277    276    296   1    112.7000    488.2728
    284    276    296   1    110.7000    313.8000
    276    277    278   1    112.7000    488.2728
    276    277    285   1    110.7000    313.8000
    276    277    286   1    110.7000    313.8000
    278    277    285   1    110.7000    313.8000
    278    277    286   1    110.7000    313.8000
    285    277    286   1    107.8000    276.1440
    277    278    279   1    112.7000    488.2728
    277    278    280   1    112.7000    488.2728
    277    278    281   1    112.7000    488.2728
    279    278    280   1    112.7000    488.2728
    279    278    281   1    112.7000    488.2728
    280    278    281   1    112.7000    488.2728
    278    279    287   1    110.7000    313.8000
    278    279    288   1    110.7000    313.8000
    278    279    289   1    110.7000    313.8000
    287    279    288   1    107.8000    276.1440
    287    279    289   1    107.8000    276.1440
    288    279    289   1    107.8000    276.1440
    278    280    290   1    110.7000    313.8000
    278    280    291   1    110.7000    313.8000
    278    280    292   1    110.7000    313.8000
    290    280    291   1    107.8000    276.1440
    290    280    292   1    107.8000    276.1440
    291    280    292   1    107.8000    276.1440
    278    281    293   1    110.7000    313.8000
    278    281    294   1    110.7000    313.8000
    278    281    295   1    110.7000    313.8000
    293    281    294   1    107.8000    276.1440
    293    281    295   1    107.8000    276.1440
    294    281    295   1    107.8000    276.1440
    276    296    297   1    112.7000    488.2728
    276    296    303   1    110.7000    313.8000
    276    296    304   1    110.7000    313.8000
    297    296    303   1    110.7000    313.8000
    297    296    304   1    110.7000    313.8000
    303    296    304   1    107.8000    276.1440
    296    297    298   1    112.7000    488.2728
    296    297    305   1    110.7000    313.8000
    296    297    317   1    112.7000    488.2728
    298    297    305   1    110.7000    313.8000
    298    297    317   1    112.7000    488.2728
    305    297    317   1    110.7000    313.8000
    297    298    299   1    112.7000    488.2728
    297    298    306   1    110.7000    313.8000
    297    298    307   1    110.7000    313.8000
    299    298    306   1    110.7000    313.8000
    299    298    307   1    110.7000    313.8000
    306    298    307   1    107.8000    276.1440
    298    299    300   1    112.7000    488.2728
    298    299    301   1    112.7000    488.2728
    298    299    302   1    112.7000    488.2728
    300    299    301   1    112.7000    488.2728
    300    299    302   1    112.7000    488.2728
    301    299    302   1    112.7000    488.2728
    299    300    308   1    110.7000    313.8000
    299    300    309   1    110.7000    313.8000
    299    300    310   1    110.7000    313.8000
    308    300    309   1    107.8000    276.1440
    308    300    310   1    107.8000    276.1440
    309    300    310   1    107.8000    276.1440
    299    301    311   1    110.7000    313.8000
    299    301    312   1    110.7000    313.8000
    299    301    313   1    110.7000    313.8000
    311    301    312   1    107.8000    276.1440
    311    301    313   1    107.8000    276.1440
    312    301    313   1    107.8000    276.1440
    299    302    314   1    110.7000    313.8000
    299    302    315   1    110.7000    313.8000
    299    302    316   1    110.7000    313.8000
    314    302    315   1    107.8000    276.1440
    314    302    316   1    107.8000    276.1440
    315    302    316   1    107.8000    276.1440
    297    317    318   1    112.7000    488.2728
    297    317    324   1    110.7000    313.8000
    297    317    325   1    110.7000    313.8000
    318    317    324   1    110.7000    313.8000
    318    317    325   1    110.7000    313.8000
    324    317    325   1    107.8000    276.1440
    317    318    319   1    112.7000    488.2728
    317    318    326   1    110.7000    313.8000
    317    318    338   1    112.7000    488.2728
    319    318    326   1    110.7000    313.8000
    319    318    338   1    112.7000    488.2728
    326    318    338   1    110.7000    313.8000
    318    319    320   1    112.7000    488.2728
    318    319    327   1    110.7000    313.8000
    318    319    328   1    110.7000    313.8000
    320    319    327   1    110.7000    313.8000
    320    319    328   1    110.7000    313.8000
    327    319    328   1    107.8000    276.1440
    319    320    321   1    112.7000    488.2728
    319    320    322   1    112.7000    488.2728
    319    320    323   1    112.7000    488.2728
    321    320    322   1    112.7000    488.2728
    321    320    323   1    112.7000    488.2728
    322    320    323   1    112.7000    488.2728
    320    321    329   1    110.7000    313.8000
    320    321    330   1    110.7000    313.8000
    320    321    331   1    110.7000    313.8000
    329    321    330   1    107.8000    276.1440
    329    321    331   1    107.8000    276.1440
    330    321    331   1    107.8000    276.1440
    320    322    332   1    110.7000    313.8000
    320    322    333   1    110.7000    313.8000
    320    322    334   1    110.7000    313.8000
    332    322    333   1    107.8000    276.1440
    332    322    334   1    107.8000    276.1440
    333    322    334   1    107.8000    276.1440
    320    323    335   1    110.7000    313.8000
    320    323    336   1    110.7000    313.8000
    320    323    337   1    110.7000    313.8000
    335    323    336   1    107.8000    276.1440
    335    323    337   1    107.8000    276.1440
    336    323    337   1    107.8000    276.1440
    318    338    339   1    112.7000    488.2728
    318    338    345   1    110.7000    313.8000
    318    338    346   1    110.7000    313.8000
    339    338    345   1    110.7000    313.8000
    339    338    346   1    110.7000    313.8000
    345    338    346   1    107.8000    276.1440
    338    339    340   1    112.7000    488.2728
    338    339    347   1    110.7000    313.8000
    338    339    359   1    112.7000    488.2728
    340    339    347   1    110.7000    313.8000
    340    339    359   1    112.7000    488.2728
    347    339    359   1    110.7000    313.8000
    339    340    341   1    112.7000    488.2728
    339    340    348   1    110.7000    313.8000
    339    340    349   1    110.7000    313.8000
    341    340    348   1    110.7000    313.8000
    341    340    349   1    110.7000    313.8000
    348    340    349   1    107.8000    276.1440
    340    341    342   1    112.7000    488.2728
    340    341    343   1    112.7000    488.2728
    340    341    344   1    112.7000    488.2728
    342    341    343   1    112.7000    488.2728
    342    341    344   1    112.7000    488.2728
    343    341    344   1    112.7000    488.2728
    341    342    350   1    110.7000    313.8000
    341    342    351   1    110.7000    313.8000
    341    342    352   1    110.7000    313.8000
    350    342    351   1    107.8000    276.1440
    350    342    352   1    107.8000    276.1440
    351    342    352   1    107.8000    276.1440
    341    343    353   1    110.7000    313.8000
    341    343    354   1    110.7000    313.8000
    341    343    355   1    110.7000    313.8000
    353    343    354   1    107.8000    276.1440
    353    343    355   1    107.8000    276.1440
    354    343    355   1    107.8000    276.1440
    341    344    356   1    110.7000    313.8000
    341    344    357   1    110.7000    313.8000
    341    344    358   1    110.7000    313.8000
    356    344    357   1    107.8000    276.1440
    356    344    358   1    107.8000    276.1440
    357    344    358   1    107.8000    276.1440
    339    359    360   1    112.7000    488.2728
    339    359    366   1    110.7000    313.8000
    339    359    367   1    110.7000    313.8000
    360    359    366   1    110.7000    313.8000
    360    359    367   1    110.7000    313.8000
    366    359    367   1    107.8000    276.1440
    359    360    361   1    112.7000    488.2728
    359    360    368   1    110.7000    313.8000
    359    360    380   1    112.7000    488.2728
    361    360    368   1    110.7000    313.8000
    361    360    380   1    112.7000    488.2728
    368    360    380   1    110.7000    313.8000
    360    361    362   1    112.7000    488.2728
    360    361    369   1    110.7000    313.8000
    360    361    370   1    110.7000    313.8000
    362    361    369   1    110.7000    313.8000
    362    361    370   1    110.7000    313.8000
    369    361    370   1    107.8000    276.1440
    361    362    363   1    112.7000    488.2728
    361    362    364   1    112.7000    488.2728
    361    362    365   1    112.7000    488.2728
    363    362    364   1    112.7000    488.2728
    363    362    365   1    112.7000    488.2728
    364    362    365   1    112.7000    488.2728
    362    363    371   1    110.7000    313.8000
    362    363    372   1    110.7000    313.8000
    362    363    373   1    110.7000    313.8000
    371    363    372   1    107.8000    276.1440
    371    363    373   1    107.8000    276.1440
    372    363    373   1    107.8000    276.1440
    362    364    374   1    110.7000    313.8000
    362    364    375   1    110.7000    313.8000
    362    364    376   1    110.7000    313.8000
    374    364    375   1    107.8000    276.1440
    374    364    376   1    107.8000    276.1440
    375    364    376   1    107.8000    276.1440
    362    365    377   1    110.7000    313.8000
    362    365    378   1    110.7000    313.8000
    362    365    379   1    110.7000    313.8000
    377    365    378   1    107.8000    276.1440
    377    365    379   1    107.8000    276.1440
    378    365    379   1    107.8000    276.1440
    360    380    381   1    112.7000    488.2728
    360    380    387   1    110.7000    313.8000
    360    380    388   1    110.7000    313.8000
    381    380    387   1    110.7000    313.8000
    381    380    388   1    110.7000    313.8000
    387    380    388   1    107.8000    276.1440
    380    381    382   1    112.7000    488.2728
    380    381    389   1    110.7000    313.8000
    380    381    401   1    112.7000    488.2728
    382    381    389   1    110.7000    313.8000
    382    381    401   1    112.7000    488.2728
    389    381    401   1    110.7000    313.8000
    381    382    383   1    112.7000    488.2728
    381    382    390   1    110.7000    313.8000
    381    382    391   1    110.7000    313.8000
    383    382    390   1    110.7000    313.8000
    383    382    391   1    110.7000    313.8000
    390    382    391   1    107.8000    276.1440
    382    383    384   1    112.7000    488.2728
    382    383    385   1    112.7000    488.2728
    382    383    386   1    112.7000    488.2728
    384    383    385   1    112.7000    488.2728
    384    383    386   1    112.7000    488.2728
    385    383    386   1    112.7000    488.2728
    383    384    392   1    110.7000    313.8000
    383    384    393   1    110.7000    313.8000
    383    384    394   1    110.7000    313.8000
    392    384    393   1    107.8000    276.1440
    392    384    394   1    107.8000    276.1440
    393    384    394   1    107.8000    276.1440
    383    385    395   1    110.7000    313.8000
    383    385    396   1    110.7000    313.8000
    383    385    397   1    110.7000    313.8000
    395    385    396   1    107.8000    276.1440
    395    385    397   1    107.8000    276.1440
    396    385    397   1    107.8000    276.1440
    383    386    398   1    110.7000    313.8000
    383    386    399   1    110.7000    313.8000
    383    386    400   1    110.7000    313.8000
    398    386    399   1    107.8000    276.1440
    398    386    400   1    107.8000    276.1440
    399    386    400   1    107.8000    276.1440
    381    401    402   1    112.7000    488.2728
    381    401    408   1    110.7000    313.8000
    381    401    409   1    110.7000    313.8000
    402    401    408   1    110.7000    313.8000
    402    401    409   1    110.7000    313.8000
    408    401    409   1    107.8000    276.1440
    401    402    403   1    112.7000    488.2728
    401    402    410   1    110.7000    313.8000
    401    402    422   1    110.7000    313.8000
    403    402    410   1    110.7000    313.8000
    403    402    422   1    110.7000    313.8000
    410    402    422   1    107.8000    276.1440
    402    403    404   1    112.7000    488.2728
    402    403    411   1    110.7000    313.8000
    402    403    412   1    110.7000    313.8000
    404    403    411   1    110.7000    313.8000
    404    403    412   1    110.7000    313.8000
    411    403    412   1    107.8000    276.1440
    403    404    405   1    112.7000    488.2728
    403    404    406   1    112.7000    488.2728
    403    404    407   1    112.7000    488.2728
    405    404    406   1    112.7000    488.2728
    405    404    407   1    112.7000    488.2728
    406    404    407   1    112.7000    488.2728
    404    405    413   1    110.7000    313.8000
    404    405    414   1    110.7000    313.8000
    404    405    415   1    110.7000    313.8000
    413    405    414   1    107.8000    276.1440
    413    405    415   1    107.8000    276.1440
    414    405    415   1    107.8000    276.1440
    404    406    416   1    110.7000    313.8000
    404    406    417   1    110.7000    313.8000
    404    406    418   1    110.7000    313.8000
    416    406    417   1    107.8000    276.1440
    416    406    418   1    107.8000    276.1440
    417    406    418   1    107.8000    276.1440
    404    407    419   1    110.7000    313.8000
    404    407    420   1    110.7000    313.8000
    404    407    421   1    110.7000    313.8000
    419    407    420   1    107.8000    276.1440
    419    407    421   1    107.8000    276.1440
    420    407    421   1    107.8000    276.1440

[ dihedrals ]
; Proper dihedrals
      8      1      2      3   5     0.00000     0.00000     1.25520  0.0
      8      1      2     10   5     0.00000     0.00000     1.25520  0.0
      8      1      2     23   5     0.00000     0.00000     1.25520  0.0
      9      1      2      3   5     0.00000     0.00000     1.25520  0.0
      9      1      2     10   5     0.00000     0.00000     1.25520  0.0
      9      1      2     23   5     0.00000     0.00000     1.25520  0.0
     22      1      2      3   5     0.00000     0.00000     1.25520  0.0
     22      1      2     10   5     0.00000     0.00000     1.25520  0.0
     22      1      2     23   5     0.00000     0.00000     1.25520  0.0
      1      2      3      4   5     4.74884    -0.63178     1.67360  0.0
      1      2      3     11   5     0.00000     0.00000     1.25520  0.0
      1      2      3     12   5     0.00000     0.00000     1.25520  0.0
     10      2      3      4   5     0.00000     0.00000     1.25520  0.0
     10      2      3     11   5     0.00000     0.00000     1.25520  0.0
     10      2      3     12   5     0.00000     0.00000     1.25520  0.0
     23      2      3      4   5     4.74884    -0.63178     1.67360  0.0
     23      2      3     11   5     0.00000     0.00000     1.25520  0.0
     23      2      3     12   5     0.00000     0.00000     1.25520  0.0
      1      2     23     24   5     4.74884    -0.63178     1.67360  0.0
      1      2     23     30   5     0.00000     0.00000     1.25520  0.0
      1      2     23     31   5     0.00000     0.00000     1.25520  0.0
      3      2     23     24   5     4.74884    -0.63178     1.67360  0.0
      3      2     23     30   5     0.00000     0.00000     1.25520  0.0
      3      2     23     31   5     0.00000     0.00000     1.25520  0.0
     10      2     23     24   5     0.00000     0.00000     1.25520  0.0
     10      2     23     30   5     0.00000     0.00000     1.25520  0.0
     10      2     23     31   5     0.00000     0.00000     1.25520  0.0
      2      3      4      5   5     4.74884    -0.63178     1.67360  0.0
      2      3      4      6   5     4.74884    -0.63178     1.67360  0.0
      2      3      4      7   5     4.74884    -0.63178     1.67360  0.0
     11      3      4      5   5     0.00000     0.00000     1.25520  0.0
     11      3      4      6   5     0.00000     0.00000     1.25520  0.0
     11      3      4      7   5     0.00000     0.00000     1.25520  0.0
     12      3      4      5   5     0.00000     0.00000     1.25520  0.0
     12      3      4      6   5     0.00000     0.00000     1.25520  0.0
     12      3      4      7   5     0.00000     0.00000     1.25520  0.0
      3      4      5     13   5     0.00000     0.00000     1.25520  0.0
      3      4      5     14   5     0.00000     0.00000     1.25520  0.0
      3      4      5     15   5     0.00000     0.00000     1.25520  0.0
      6      4      5     13   5     0.00000     0.00000     1.25520  0.0
      6      4      5     14   5     0.00000     0.00000     1.25520  0.0
      6      4      5     15   5     0.00000     0.00000     1.25520  0.0
      7      4      5     13   5     0.00000     0.00000     1.25520  0.0
      7      4      5     14   5     0.00000     0.00000     1.25520  0.0
      7      4      5     15   5     0.00000     0.00000     1.25520  0.0
      3      4      6     16   5     0.00000     0.00000     1.25520  0.0
      3      4      6     17   5     0.00000     0.00000     1.25520  0.0
      3      4      6     18   5     0.00000     0.00000     1.25520  0.0
      5      4      6     16   5     0.00000     0.00000     1.25520  0.0
      5      4      6     17   5     0.00000     0.00000     1.25520  0.0
      5      4      6     18   5     0.00000     0.00000     1.25520  0.0
      7      4      6     16   5     0.00000     0.00000     1.25520  0.0
      7      4      6     17   5     0.00000     0.00000     1.25520  0.0
      7      4      6     18   5     0.00000     0.00000     1.25520  0.0
      3      4      7     19   5     0.00000     0.00000     1.25520  0.0
      3      4      7     20   5     0.00000     0.00000     1.25520  0.0
      3      4      7     21   5     0.00000     0.00000     1.25520  0.0
      5      4      7     19   5     0.00000     0.00000     1.25520  0.0
      5      4      7     20   5     0.00000     0.00000     1.25520  0.0
      5      4      7     21   5     0.00000     0.00000     1.25520  0.0
      6      4      7     19   5     0.00000     0.00000     1.25520  0.0
      6      4      7     20   5     0.00000     0.00000     1.25520  0.0
      6      4      7     21   5     0.00000     0.00000     1.25520  0.0
      2     23     24     25   5     4.74884    -0.63178     1.67360  0.0
      2     23     24     32   5     0.00000     0.00000     1.25520  0.0
      2     23     24     44   5     4.74884    -0.63178     1.67360  0.0
     30     23     24     25   5     0.00000     0.00000     1.25520  0.0
     30     23     24     32   5     0.00000     0.00000     1.25520  0.0
     30     23     24     44   5     0.00000     0.00000     1.25520  0.0
     31     23     24     25   5     0.00000     0.00000     1.25520  0.0
     31     23     24     32   5     0.00000     0.00000     1.25520  0.0
     31     23     24     44   5     0.00000     0.00000     1.25520  0.0
     23     24     25     26   5     4.74884    -0.63178     1.67360  0.0
     23     24     25     33   5     0.00000     0.00000     1.25520  0.0
     23     24     25     34   5     0.00000     0.00000     1.25520  0.0
     32     24     25     26   5     0.00000     0.00000     1.25520  0.0
     32     24     25     33   5     0.00000     0.00000     1.25520  0.0
     32     24     25     34   5     0.00000     0.00000     1.25520  0.0
     44     24     25     26   5     4.74884    -0.63178     1.67360  0.0
     44     24     25     33   5     0.00000     0.00000     1.25520  0.0
     44     24     25     34   5     0.00000     0.00000     1.25520  0.0
     23     24     44     45   5     4.74884    -0.63178     1.67360  0.0
     23     24     44     51   5     0.00000     0.00000     1.25520  0.0
     23     24     44     52   5     0.00000     0.00000     1.25520  0.0
     25     24     44     45   5     4.74884    -0.63178     1.67360  0.0
     25     24     44     51   5     0.00000     0.00000     1.25520  0.0
     25     24     44     52   5     0.00000     0.00000     1.25520  0.0
     32     24     44     45   5     0.00000     0.00000     1.25520  0.0
     32     24     44     51   5     0.00000     0.00000     1.25520  0.0
     32     24     44     52   5     0.00000     0.00000     1.25520  0.0
     24     25     26     27   5     4.74884    -0.63178     1.67360  0.0
     24     25     26     28   5     4.74884    -0.63178     1.67360  0.0
     24     25     26     29   5     4.74884    -0.63178     1.67360  0.0
     33     25     26     27   5     0.00000     0.00000     1.25520  0.0
     33     25     26     28   5     0.00000     0.00000     1.25520  0.0
     33     25     26     29   5     0.00000     0.00000     1.25520  0.0
     34     25     26     27   5     0.00000     0.00000     1.25520  0.0
     34     25     26     28   5     0.00000     0.00000     1.25520  0.0
     34     25     26     29   5     0.00000     0.00000     1.25520  0.0
     25     26     27     35   5     0.00000     0.00000     1.25520  0.0
     25     26     27     36   5     0.00000     0.00000     1.25520  0.0
     25     26     27     37   5     0.00000     0.00000     1.25520  0.0
     28     26     27     35   5     0.00000     0.00000     1.25520  0.0
     28     26     27     36   5     0.00000     0.00000     1.25520  0.0
     28     26     27     37   5     0.00000     0.00000     1.25520  0.0
     29     26     27     35   5     0.00000     0.00000     1.25520  0.0
     29     26     27     36   5     0.00000     0.00000     1.25520  0.0
     29     26     27     37   5     0.00000     0.00000     1.25520  0.0
     25     26     28     38   5     0.00000     0.00000     1.25520  0.0
     25     26     28     39   5     0.00000     0.00000     1.25520  0.0
     25     26     28     40   5     0.00000     0.00000     1.25520  0.0
     27     26     28     38   5     0.00000     0.00000     1.25520  0.0
     27     26     28     39   5     0.00000     0.00000     1.25520  0.0
     27     26     28     40   5     0.00000     0.00000     1.25520  0.0
     29     26     28     38   5     0.00000     0.00000     1.25520  0.0
     29     26     28     39   5     0.00000     0.00000     1.25520  0.0
     29     26     28     40   5     0.00000     0.00000     1.25520  0.0
     25     26     29     41   5     0.00000     0.00000     1.25520  0.0
     25     26     29     42   5     0.00000     0.00000     1.25520  0.0
     25     26     29     43   5     0.00000     0.00000     1.25520  0.0
     27     26     29     41   5     0.00000     0.00000     1.25520  0.0
     27     26     29     42   5     0.00000     0.00000     1.25520  0.0
     27     26     29     43   5     0.00000     0.00000     1.25520  0.0
     28     26     29     41   5     0.00000     0.00000     1.25520  0.0
     28     26     29     42   5     0.00000     0.00000     1.25520  0.0
     28     26     29     43   5     0.00000     0.00000     1.25520  0.0
     24     44     45     46   5     4.74884    -0.63178     1.67360  0.0
     24     44     45     53   5     0.00000     0.00000     1.25520  0.0
     24     44     45     65   5     4.74884    -0.63178     1.67360  0.0
     51     44     45     46   5     0.00000     0.00000     1.25520  0.0
     51     44     45     53   5     0.00000     0.00000     1.25520  0.0
     51     44     45     65   5     0.00000     0.00000     1.25520  0.0
     52     44     45     46   5     0.00000     0.00000     1.25520  0.0
     52     44     45     53   5     0.00000     0.00000     1.25520  0.0
     52     44     45     65   5     0.00000     0.00000     1.25520  0.0
     44     45     46     47   5     4.74884    -0.63178     1.67360  0.0
     44     45     46     54   5     0.00000     0.00000     1.25520  0.0
     44     45     46     55   5     0.00000     0.00000     1.25520  0.0
     53     45     46     47   5     0.00000     0.00000     1.25520  0.0
     53     45     46     54   5     0.00000     0.00000     1.25520  0.0
     53     45     46     55   5     0.00000     0.00000     1.25520  0.0
     65     45     46     47   5     4.74884    -0.63178     1.67360  0.0
     65     45     46     54   5     0.00000     0.00000     1.25520  0.0
     65     45     46     55   5     0.00000     0.00000     1.25520  0.0
     44     45     65     66   5     4.74884    -0.63178     1.67360  0.0
     44     45     65     72   5     0.00000     0.00000     1.25520  0.0
     44     45     65     73   5     0.00000     0.00000     1.25520  0.0
     46     45     65     66   5     4.74884    -0.63178     1.67360  0.0
     46     45     65     72   5     0.00000     0.00000     1.25520  0.0
     46     45     65     73   5     0.00000     0.00000     1.25520  0.0
     53     45     65     66   5     0.00000     0.00000     1.25520  0.0
     53     45     65     72   5     0.00000     0.00000     1.25520  0.0
     53     45     65     73   5     0.00000     0.00000     1.25520  0.0
     45     46     47     48   5     4.74884    -0.63178     1.67360  0.0
     45     46     47     49   5     4.74884    -0.63178     1.67360  0.0
     45     46     47     50   5     4.74884    -0.63178     1.67360  0.0
     54     46     47     48   5     0.00000     0.00000     1.25520  0.0
     54     46     47     49   5     0.00000     0.00000     1.25520  0.0
     54     46     47     50   5     0.00000     0.00000     1.25520  0.0
     55     46     47     48   5     0.00000     0.00000     1.25520  0.0
     55     46     47     49   5     0.00000     0.00000     1.25520  0.0
     55     46     47     50   5     0.00000     0.00000     1.25520  0.0
     46     47     48     56   5     0.00000     0.00000     1.25520  0.0
     46     47     48     57   5     0.00000     0.00000     1.25520  0.0
     46     47     48     58   5     0.00000     0.00000     1.25520  0.0
     49     47     48     56   5     0.00000     0.00000     1.25520  0.0
     49     47     48     57   5     0.00000     0.00000     1.25520  0.0
     49     47     48     58   5     0.00000     0.00000     1.25520  0.0
     50     47     48     56   5     0.00000     0.00000     1.25520  0.0
     50     47     48     57   5     0.00000     0.00000     1.25520  0.0
     50     47     48     58   5     0.00000     0.00000     1.25520  0.0
     46     47     49     59   5     0.00000     0.00000     1.25520  0.0
     46     47     49     60   5     0.00000     0.00000     1.25520  0.0
     46     47     49     61   5     0.00000     0.00000     1.25520  0.0
     48     47     49     59   5     0.00000     0.00000     1.25520  0.0
     48     47     49     60   5     0.00000     0.00000     1.25520  0.0
     48     47     49     61   5     0.00000     0.00000     1.25520  0.0
     50     47     49     59   5     0.00000     0.00000     1.25520  0.0
     50     47     49     60   5     0.00000     0.00000     1.25520  0.0
     50     47     49     61   5     0.00000     0.00000     1.25520  0.0
     46     47     50     62   5     0.00000     0.00000     1.25520  0.0
     46     47     50     63   5     0.00000     0.00000     1.25520  0.0
     46     47     50     64   5     0.00000     0.00000     1.25520  0.0
     48     47     50     62   5     0.00000     0.00000     1.25520  0.0
     48     47     50     63   5     0.00000     0.00000     1.25520  0.0
     48     47     50     64   5     0.00000     0.00000     1.25520  0.0
     49     47     50     62   5     0.00000     0.00000     1.25520  0.0
     49     47     50     63   5     0.00000     0.00000     1.25520  0.0
     49     47     50     64   5     0.00000     0.00000     1.25520  0.0
     45     65     66     67   5     4.74884    -0.63178     1.67360  0.0
     45     65     66     74   5     0.00000     0.00000     1.25520  0.0
     45     65     66     86   5     4.74884    -0.63178     1.67360  0.0
     72     65     66     67   5     0.00000     0.00000     1.25520  0.0
     72     65     66     74   5     0.00000     0.00000     1.25520  0.0
     72     65     66     86   5     0.00000     0.00000     1.25520  0.0
     73     65     66     67   5     0.00000     0.00000     1.25520  0.0
     73     65     66     74   5     0.00000     0.00000     1.25520  0.0
     73     65     66     86   5     0.00000     0.00000     1.25520  0.0
     65     66     67     68   5     4.74884    -0.63178     1.67360  0.0
     65     66     67     75   5     0.00000     0.00000     1.25520  0.0
     65     66     67     76   5     0.00000     0.00000     1.25520  0.0
     74     66     67     68   5     0.00000     0.00000     1.25520  0.0
     74     66     67     75   5     0.00000     0.00000     1.25520  0.0
     74     66     67     76   5     0.00000     0.00000     1.25520  0.0
     86     66     67     68   5     4.74884    -0.63178     1.67360  0.0
     86     66     67     75   5     0.00000     0.00000     1.25520  0.0
     86     66     67     76   5     0.00000     0.00000     1.25520  0.0
     65     66     86     87   5     4.74884    -0.63178     1.67360  0.0
     65     66     86     93   5     0.00000     0.00000     1.25520  0.0
     65     66     86     94   5     0.00000     0.00000     1.25520  0.0
     67     66     86     87   5     4.74884    -0.63178     1.67360  0.0
     67     66     86     93   5     0.00000     0.00000     1.25520  0.0
     67     66     86     94   5     0.00000     0.00000     1.25520  0.0
     74     66     86     87   5     0.00000     0.00000     1.25520  0.0
     74     66     86     93   5     0.00000     0.00000     1.25520  0.0
     74     66     86     94   5     0.00000     0.00000     1.25520  0.0
     66     67     68     69   5     4.74884    -0.63178     1.67360  0.0
     66     67     68     70   5     4.74884    -0.63178     1.67360  0.0
     66     67     68     71   5     4.74884    -0.63178     1.67360  0.0
     75     67     68     69   5     0.00000     0.00000     1.25520  0.0
     75     67     68     70   5     0.00000     0.00000     1.25520  0.0
     75     67     68     71   5     0.00000     0.00000     1.25520  0.0
     76     67     68     69   5     0.00000     0.00000     1.25520  0.0
     76     67     68     70   5     0.00000     0.00000     1.25520  0.0
     76     67     68     71   5     0.00000     0.00000     1.25520  0.0
     67     68     69     77   5     0.00000     0.00000     1.25520  0.0
     67     68     69     78   5     0.00000     0.00000     1.25520  0.0
     67     68     69     79   5     0.00000     0.00000     1.25520  0.0
     70     68     69     77   5     0.00000     0.00000     1.25520  0.0
     70     68     69     78   5     0.00000     0.00000     1.25520  0.0
     70     68     69     79   5     0.00000     0.00000     1.25520  0.0
     71     68     69     77   5     0.00000     0.00000     1.25520  0.0
     71     68     69     78   5     0.00000     0.00000     1.25520  0.0
     71     68     69     79   5     0.00000     0.00000     1.25520  0.0
     67     68     70     80   5     0.00000     0.00000     1.25520  0.0
     67     68     70     81   5     0.00000     0.00000     1.25520  0.0
     67     68     70     82   5     0.00000     0.00000     1.25520  0.0
     69     68     70     80   5     0.00000     0.00000     1.25520  0.0
     69     68     70     81   5     0.00000     0.00000     1.25520  0.0
     69     68     70     82   5     0.00000     0.00000     1.25520  0.0
     71     68     70     80   5     0.00000     0.00000     1.25520  0.0
     71     68     70     81   5     0.00000     0.00000     1.25520  0.0
     71     68     70     82   5     0.00000     0.00000     1.25520  0.0
     67     68     71     83   5     0.00000     0.00000     1.25520  0.0
     67     68     71     84   5     0.00000     0.00000     1.25520  0.0
     67     68     71     85   5     0.00000     0.00000     1.25520  0.0
     69     68     71     83   5     0.00000     0.00000     1.25520  0.0
     69     68     71     84   5     0.00000     0.00000     1.25520  0.0
     69     68     71     85   5     0.00000     0.00000     1.25520  0.0
     70     68     71     83   5     0.00000     0.00000     1.25520  0.0
     70     68     71     84   5     0.00000     0.00000     1.25520  0.0
     70     68     71     85   5     0.00000     0.00000     1.25520  0.0
     66     86     87     88   5     4.74884    -0.63178     1.67360  0.0
     66     86     87     95   5     0.00000     0.00000     1.25520  0.0
     66     86     87    107   5     4.74884    -0.63178     1.67360  0.0
     93     86     87     88   5     0.00000     0.00000     1.25520  0.0
     93     86     87     95   5     0.00000     0.00000     1.25520  0.0
     93     86     87    107   5     0.00000     0.00000     1.25520  0.0
     94     86     87     88   5     0.00000     0.00000     1.25520  0.0
     94     86     87     95   5     0.00000     0.00000     1.25520  0.0
     94     86     87    107   5     0.00000     0.00000     1.25520  0.0
     86     87     88     89   5     4.74884    -0.63178     1.67360  0.0
     86     87     88     96   5     0.00000     0.00000     1.25520  0.0
     86     87     88     97   5     0.00000     0.00000     1.25520  0.0
     95     87     88     89   5     0.00000     0.00000     1.25520  0.0
     95     87     88     96   5     0.00000     0.00000     1.25520  0.0
     95     87     88     97   5     0.00000     0.00000     1.25520  0.0
    107     87     88     89   5     4.74884    -0.63178     1.67360  0.0
    107     87     88     96   5     0.00000     0.00000     1.25520  0.0
    107     87     88     97   5     0.00000     0.00000     1.25520  0.0
     86     87    107    108   5     4.74884    -0.63178     1.67360  0.0
     86     87    107    114   5     0.00000     0.00000     1.25520  0.0
     86     87    107    115   5     0.00000     0.00000     1.25520  0.0
     88     87    107    108   5     4.74884    -0.63178     1.67360  0.0
     88     87    107    114   5     0.00000     0.00000     1.25520  0.0
     88     87    107    115   5     0.00000     0.00000     1.25520  0.0
     95     87    107    108   5     0.00000     0.00000     1.25520  0.0
     95     87    107    114   5     0.00000     0.00000     1.25520  0.0
     95     87    107    115   5     0.00000     0.00000     1.25520  0.0
     87     88     89     90   5     4.74884    -0.63178     1.67360  0.0
     87     88     89     91   5     4.74884    -0.63178     1.67360  0.0
     87     88     89     92   5     4.74884    -0.63178     1.67360  0.0
     96     88     89     90   5     0.00000     0.00000     1.25520  0.0
     96     88     89     91   5     0.00000     0.00000     1.25520  0.0
     96     88     89     92   5     0.00000     0.00000     1.25520  0.0
     97     88     89     90   5     0.00000     0.00000     1.25520  0.0
     97     88     89     91   5     0.00000     0.00000     1.25520  0.0
     97     88     89     92   5     0.00000     0.00000     1.25520  0.0
     88     89     90     98   5     0.00000     0.00000     1.25520  0.0
     88     89     90     99   5     0.00000     0.00000     1.25520  0.0
     88     89     90    100   5     0.00000     0.00000     1.25520  0.0
     91     89     90     98   5     0.00000     0.00000     1.25520  0.0
     91     89     90     99   5     0.00000     0.00000     1.25520  0.0
     91     89     90    100   5     0.00000     0.00000     1.25520  0.0
     92     89     90     98   5     0.00000     0.00000     1.25520  0.0
     92     89     90     99   5     0.00000     0.00000     1.25520  0.0
     92     89     90    100   5     0.00000     0.00000     1.25520  0.0
     88     89     91    101   5     0.00000     0.00000     1.25520  0.0
     88     89     91    102   5     0.00000     0.00000     1.25520  0.0
     88     89     91    103   5     0.00000     0.00000     1.25520  0.0
     90     89     91    101   5     0.00000     0.00000     1.25520  0.0
     90     89     91    102   5     0.00000     0.00000     1.25520  0.0
     90     89     91    103   5     0.00000     0.00000     1.25520  0.0
     92     89     91    101   5     0.00000     0.00000     1.25520  0.0
     92     89     91    102   5     0.00000     0.00000     1.25520  0.0
     92     89     91    103   5     0.00000     0.00000     1.25520  0.0
     88     89     92    104   5     0.00000     0.00000     1.25520  0.0
     88     89     92    105   5     0.00000     0.00000     1.25520  0.0
     88     89     92    106   5     0.00000     0.00000     1.25520  0.0
     90     89     92    104   5     0.00000     0.00000     1.25520  0.0
     90     89     92    105   5     0.00000     0.00000     1.25520  0.0
     90     89     92    106   5     0.00000     0.00000     1.25520  0.0
     91     89     92    104   5     0.00000     0.00000     1.25520  0.0
     91     89     92    105   5     0.00000     0.00000     1.25520  0.0
     91     89     92    106   5     0.00000     0.00000     1.25520  0.0
     87    107    108    109   5     4.74884    -0.63178     1.67360  0.0
     87    107    108    116   5     0.00000     0.00000     1.25520  0.0
     87    107    108    128   5     4.74884    -0.63178     1.67360  0.0
    114    107    108    109   5     0.00000     0.00000     1.25520  0.0
    114    107    108    116   5     0.00000     0.00000     1.25520  0.0
    114    107    108    128   5     0.00000     0.00000     1.25520  0.0
    115    107    108    109   5     0.00000     0.00000     1.25520  0.0
    115    107    108    116   5     0.00000     0.00000     1.25520  0.0
    115    107    108    128   5     0.00000     0.00000     1.25520  0.0
    107    108    109    110   5     4.74884    -0.63178     1.67360  0.0
    107    108    109    117   5     0.00000     0.00000     1.25520  0.0
    107    108    109    118   5     0.00000     0.00000     1.25520  0.0
    116    108    109    110   5     0.00000     0.00000     1.25520  0.0
    116    108    109    117   5     0.00000     0.00000     1.25520  0.0
    116    108    109    118   5     0.00000     0.00000     1.25520  0.0
    128    108    109    110   5     4.74884    -0.63178     1.67360  0.0
    128    108    109    117   5     0.00000     0.00000     1.25520  0.0
    128    108    109    118   5     0.00000     0.00000     1.25520  0.0
    107    108    128    129   5     4.74884    -0.63178     1.67360  0.0
    107    108    128    135   5     0.00000     0.00000     1.25520  0.0
    107    108    128    136   5     0.00000     0.00000     1.25520  0.0
    109    108    128    129   5     4.74884    -0.63178     1.67360  0.0
    109    108    128    135   5     0.00000     0.00000     1.25520  0.0
    109    108    128    136   5     0.00000     0.00000     1.25520  0.0
    116    108    128    129   5     0.00000     0.00000     1.25520  0.0
    116    108    128    135   5     0.00000     0.00000     1.25520  0.0
    116    108    128    136   5     0.00000     0.00000     1.25520  0.0
    108    109    110    111   5     4.74884    -0.63178     1.67360  0.0
    108    109    110    112   5     4.74884    -0.63178     1.67360  0.0
    108    109    110    113   5     4.74884    -0.63178     1.67360  0.0
    117    109    110    111   5     0.00000     0.00000     1.25520  0.0
    117    109    110    112   5     0.00000     0.00000     1.25520  0.0
    117    109    110    113   5     0.00000     0.00000     1.25520  0.0
    118    109    110    111   5     0.00000     0.00000     1.25520  0.0
    118    109    110    112   5     0.00000     0.00000     1.25520  0.0
    118    109    110    113   5     0.00000     0.00000     1.25520  0.0
    109    110    111    119   5     0.00000     0.00000     1.25520  0.0
    109    110    111    120   5     0.00000     0.00000     1.25520  0.0
    109    110    111    121   5     0.00000     0.00000     1.25520  0.0
    112    110    111    119   5     0.00000     0.00000     1.25520  0.0
    112    110    111    120   5     0.00000     0.00000     1.25520  0.0
    112    110    111    121   5     0.00000     0.00000     1.25520  0.0
    113    110    111    119   5     0.00000     0.00000     1.25520  0.0
    113    110    111    120   5     0.00000     0.00000     1.25520  0.0
    113    110    111    121   5     0.00000     0.00000     1.25520  0.0
    109    110    112    122   5     0.00000     0.00000     1.25520  0.0
    109    110    112    123   5     0.00000     0.00000     1.25520  0.0
    109    110    112    124   5     0.00000     0.00000     1.25520  0.0
    111    110    112    122   5     0.00000     0.00000     1.25520  0.0
    111    110    112    123   5     0.00000     0.00000     1.25520  0.0
    111    110    112    124   5     0.00000     0.00000     1.25520  0.0
    113    110    112    122   5     0.00000     0.00000     1.25520  0.0
    113    110    112    123   5     0.00000     0.00000     1.25520  0.0
    113    110    112    124   5     0.00000     0.00000     1.25520  0.0
    109    110    113    125   5     0.00000     0.00000     1.25520  0.0
    109    110    113    126   5     0.00000     0.00000     1.25520  0.0
    109    110    113    127   5     0.00000     0.00000     1.25520  0.0
    111    110    113    125   5     0.00000     0.00000     1.25520  0.0
    111    110    113    126   5     0.00000     0.00000     1.25520  0.0
    111    110    113    127   5     0.00000     0.00000     1.25520  0.0
    112    110    113    125   5     0.00000     0.00000     1.25520  0.0
    112    110    113    126   5     0.00000     0.00000     1.25520  0.0
    112    110    113    127   5     0.00000     0.00000     1.25520  0.0
    108    128    129    130   5     4.74884    -0.63178     1.67360  0.0
    108    128    129    137   5     0.00000     0.00000     1.25520  0.0
    108    128    129    149   5     4.74884    -0.63178     1.67360  0.0
    135    128    129    130   5     0.00000     0.00000     1.25520  0.0
    135    128    129    137   5     0.00000     0.00000     1.25520  0.0
    135    128    129    149   5     0.00000     0.00000     1.25520  0.0
    136    128    129    130   5     0.00000     0.00000     1.25520  0.0
    136    128    129    137   5     0.00000     0.00000     1.25520  0.0
    136    128    129    149   5     0.00000     0.00000     1.25520  0.0
    128    129    130    131   5     4.74884    -0.63178     1.67360  0.0
    128    129    130    138   5     0.00000     0.00000     1.25520  0.0
    128    129    130    139   5     0.00000     0.00000     1.25520  0.0
    137    129    130    131   5     0.00000     0.00000     1.25520  0.0
    137    129    130    138   5     0.00000     0.00000     1.25520  0.0
    137    129    130    139   5     0.00000     0.00000     1.25520  0.0
    149    129    130    131   5     4.74884    -0.63178     1.67360  0.0
    149    129    130    138   5     0.00000     0.00000     1.25520  0.0
    149    129    130    139   5     0.00000     0.00000     1.25520  0.0
    128    129    149    150   5     4.74884    -0.63178     1.67360  0.0
    128    129    149    156   5     0.00000     0.00000     1.25520  0.0
    128    129    149    157   5     0.00000     0.00000     1.25520  0.0
    130    129    149    150   5     4.74884    -0.63178     1.67360  0.0
    130    129    149    156   5     0.00000     0.00000     1.25520  0.0
    130    129    149    157   5     0.00000     0.00000     1.25520  0.0
    137    129    149    150   5     0.00000     0.00000     1.25520  0.0
    137    129    149    156   5     0.00000     0.00000     1.25520  0.0
    137    129    149    157   5     0.00000     0.00000     1.25520  0.0
    129    130    131    132   5     4.74884    -0.63178     1.67360  0.0
    129    130    131    133   5     4.74884    -0.63178     1.67360  0.0
    129    130    131    134   5     4.74884    -0.63178     1.67360  0.0
    138    130    131    132   5     0.00000     0.00000     1.25520  0.0
    138    130    131    133   5     0.00000     0.00000     1.25520  0.0
    138    130    131    134   5     0.00000     0.00000     1.25520  0.0
    139    130    131    132   5     0.00000     0.00000     1.25520  0.0
    139    130    131    133   5     0.00000     0.00000     1.25520  0.0
    139    130    131    134   5     0.00000     0.00000     1.25520  0.0
    130    131    132    140   5     0.00000     0.00000     1.25520  0.0
    130    131    132    141   5     0.00000     0.00000     1.25520  0.0
    130    131    132    142   5     0.00000     0.00000     1.25520  0.0
    133    131    132    140   5     0.00000     0.00000     1.25520  0.0
    133    131    132    141   5     0.00000     0.00000     1.25520  0.0
    133    131    132    142   5     0.00000     0.00000     1.25520  0.0
    134    131    132    140   5     0.00000     0.00000     1.25520  0.0
    134    131    132    141   5     0.00000     0.00000     1.25520  0.0
    134    131    132    142   5     0.00000     0.00000     1.25520  0.0
    130    131    133    143   5     0.00000     0.00000     1.25520  0.0
    130    131    133    144   5     0.00000     0.00000     1.25520  0.0
    130    131    133    145   5     0.00000     0.00000     1.25520  0.0
    132    131    133    143   5     0.00000     0.00000     1.25520  0.0
    132    131    133    144   5     0.00000     0.00000     1.25520  0.0
    132    131    133    145   5     0.00000     0.00000     1.25520  0.0
    134    131    133    143   5     0.00000     0.00000     1.25520  0.0
    134    131    133    144   5     0.00000     0.00000     1.25520  0.0
    134    131    133    145   5     0.00000     0.00000     1.25520  0.0
    130    131    134    146   5     0.00000     0.00000     1.25520  0.0
    130    131    134    147   5     0.00000     0.00000     1.25520  0.0
    130    131    134    148   5     0.00000     0.00000     1.25520  0.0
    132    131    134    146   5     0.00000     0.00000     1.25520  0.0
    132    131    134    147   5     0.00000     0.00000     1.25520  0.0
    132    131    134    148   5     0.00000     0.00000     1.25520  0.0
    133    131    134    146   5     0.00000     0.00000     1.25520  0.0
    133    131    134    147   5     0.00000     0.00000     1.25520  0.0
    133    131    134    148   5     0.00000     0.00000     1.25520  0.0
    129    149    150    151   5     4.74884    -0.63178     1.67360  0.0
    129    149    150    158   5     0.00000     0.00000     1.25520  0.0
    129    149    150    170   5     4.74884    -0.63178     1.67360  0.0
    156    149    150    151   5     0.00000     0.00000     1.25520  0.0
    156    149    150    158   5     0.00000     0.00000     1.25520  0.0
    156    149    150    170   5     0.00000     0.00000     1.25520  0.0
    157    149    150    151   5     0.00000     0.00000     1.25520  0.0
    157    149    150    158   5     0.00000     0.00000     1.25520  0.0
    157    149    150    170   5     0.00000     0.00000     1.25520  0.0
    149    150    151    152   5     4.74884    -0.63178     1.67360  0.0
    149    150    151    159   5     0.00000     0.00000     1.25520  0.0
    149    150    151    160   5     0.00000     0.00000     1.25520  0.0
    158    150    151    152   5     0.00000     0.00000     1.25520  0.0
    158    150    151    159   5     0.00000     0.00000     1.25520  0.0
    158    150    151    160   5     0.00000     0.00000     1.25520  0.0
    170    150    151    152   5     4.74884    -0.63178     1.67360  0.0
    170    150    151    159   5     0.00000     0.00000     1.25520  0.0
    170    150    151    160   5     0.00000     0.00000     1.25520  0.0
    149    150    170    171   5     4.74884    -0.63178     1.67360  0.0
    149    150    170    177   5     0.00000     0.00000     1.25520  0.0
    149    150    170    178   5     0.00000     0.00000     1.25520  0.0
    151    150    170    171   5     4.74884    -0.63178     1.67360  0.0
    151    150    170    177   5     0.00000     0.00000     1.25520  0.0
    151    150    170    178   5     0.00000     0.00000     1.25520  0.0
    158    150    170    171   5     0.00000     0.00000     1.25520  0.0
    158    150    170    177   5     0.00000     0.00000     1.25520  0.0
    158    150    170    178   5     0.00000     0.00000     1.25520  0.0
    150    151    152    153   5     4.74884    -0.63178     1.67360  0.0
    150    151    152    154   5     4.74884    -0.63178     1.67360  0.0
    150    151    152    155   5     4.74884    -0.63178     1.67360  0.0
    159    151    152    153   5     0.00000     0.00000     1.25520  0.0
    159    151    152    154   5     0.00000     0.00000     1.25520  0.0
    159    151    152    155   5     0.00000     0.00000     1.25520  0.0
    160    151    152    153   5     0.00000     0.00000     1.25520  0.0
    160    151    152    154   5     0.00000     0.00000     1.25520  0.0
    160    151    152    155   5     0.00000     0.00000     1.25520  0.0
    151    152    153    161   5     0.00000     0.00000     1.25520  0.0
    151    152    153    162   5     0.00000     0.00000     1.25520  0.0
    151    152    153    163   5     0.00000     0.00000     1.25520  0.0
    154    152    153    161   5     0.00000     0.00000     1.25520  0.0
    154    152    153    162   5     0.00000     0.00000     1.25520  0.0
    154    152    153    163   5     0.00000     0.00000     1.25520  0.0
    155    152    153    161   5     0.00000     0.00000     1.25520  0.0
    155    152    153    162   5     0.00000     0.00000     1.25520  0.0
    155    152    153    163   5     0.00000     0.00000     1.25520  0.0
    151    152    154    164   5     0.00000     0.00000     1.25520  0.0
    151    152    154    165   5     0.00000     0.00000     1.25520  0.0
    151    152    154    166   5     0.00000     0.00000     1.25520  0.0
    153    152    154    164   5     0.00000     0.00000     1.25520  0.0
    153    152    154    165   5     0.00000     0.00000     1.25520  0.0
    153    152    154    166   5     0.00000     0.00000     1.25520  0.0
    155    152    154    164   5     0.00000     0.00000     1.25520  0.0
    155    152    154    165   5     0.00000     0.00000     1.25520  0.0
    155    152    154    166   5     0.00000     0.00000     1.25520  0.0
    151    152    155    167   5     0.00000     0.00000     1.25520  0.0
    151    152    155    168   5     0.00000     0.00000     1.25520  0.0
    151    152    155    169   5     0.00000     0.00000     1.25520  0.0
    153    152    155    167   5     0.00000     0.00000     1.25520  0.0
    153    152    155    168   5     0.00000     0.00000     1.25520  0.0
    153    152    155    169   5     0.00000     0.00000     1.25520  0.0
    154    152    155    167   5     0.00000     0.00000     1.25520  0.0
    154    152    155    168   5     0.00000     0.00000     1.25520  0.0
    154    152    155    169   5     0.00000     0.00000     1.25520  0.0
    150    170    171    172   5     4.74884    -0.63178     1.67360  0.0
    150    170    171    179   5     0.00000     0.00000     1.25520  0.0
    150    170    171    191   5     4.74884    -0.63178     1.67360  0.0
    177    170    171    172   5     0.00000     0.00000     1.25520  0.0
    177    170    171    179   5     0.00000     0.00000     1.25520  0.0
    177    170    171    191   5     0.00000     0.00000     1.25520  0.0
    178    170    171    172   5     0.00000     0.00000     1.25520  0.0
    178    170    171    179   5     0.00000     0.00000     1.25520  0.0
    178    170    171    191   5     0.00000     0.00000     1.25520  0.0
    170    171    172    173   5     4.74884    -0.63178     1.67360  0.0
    170    171    172    180   5     0.00000     0.00000     1.25520  0.0
    170    171    172    181   5     0.00000     0.00000     1.25520  0.0
    179    171    172    173   5     0.00000     0.00000     1.25520  0.0
    179    171    172    180   5     0.00000     0.00000     1.25520  0.0
    179    171    172    181   5     0.00000     0.00000     1.25520  0.0
    191    171    172    173   5     4.74884    -0.63178     1.67360  0.0
    191    171    172    180   5     0.00000     0.00000     1.25520  0.0
    191    171    172    181   5     0.00000     0.00000     1.25520  0.0
    170    171    191    192   5     4.74884    -0.63178     1.67360  0.0
    170    171    191    198   5     0.00000     0.00000     1.25520  0.0
    170    171    191    199   5     0.00000     0.00000     1.25520  0.0
    172    171    191    192   5     4.74884    -0.63178     1.67360  0.0
    172    171    191    198   5     0.00000     0.00000     1.25520  0.0
    172    171    191    199   5     0.00000     0.00000     1.25520  0.0
    179    171    191    192   5     0.00000     0.00000     1.25520  0.0
    179    171    191    198   5     0.00000     0.00000     1.25520  0.0
    179    171    191    199   5     0.00000     0.00000     1.25520  0.0
    171    172    173    174   5     4.74884    -0.63178     1.67360  0.0
    171    172    173    175   5     4.74884    -0.63178     1.67360  0.0
    171    172    173    176   5     4.74884    -0.63178     1.67360  0.0
    180    172    173    174   5     0.00000     0.00000     1.25520  0.0
    180    172    173    175   5     0.00000     0.00000     1.25520  0.0
    180    172    173    176   5     0.00000     0.00000     1.25520  0.0
    181    172    173    174   5     0.00000     0.00000     1.25520  0.0
    181    172    173    175   5     0.00000     0.00000     1.25520  0.0
    181    172    173    176   5     0.00000     0.00000     1.25520  0.0
    172    173    174    182   5     0.00000     0.00000     1.25520  0.0
    172    173    174    183   5     0.00000     0.00000     1.25520  0.0
    172    173    174    184   5     0.00000     0.00000     1.25520  0.0
    175    173    174    182   5     0.00000     0.00000     1.25520  0.0
    175    173    174    183   5     0.00000     0.00000     1.25520  0.0
    175    173    174    184   5     0.00000     0.00000     1.25520  0.0
    176    173    174    182   5     0.00000     0.00000     1.25520  0.0
    176    173    174    183   5     0.00000     0.00000     1.25520  0.0
    176    173    174    184   5     0.00000     0.00000     1.25520  0.0
    172    173    175    185   5     0.00000     0.00000     1.25520  0.0
    172    173    175    186   5     0.00000     0.00000     1.25520  0.0
    172    173    175    187   5     0.00000     0.00000     1.25520  0.0
    174    173    175    185   5     0.00000     0.00000     1.25520  0.0
    174    173    175    186   5     0.00000     0.00000     1.25520  0.0
    174    173    175    187   5     0.00000     0.00000     1.25520  0.0
    176    173    175    185   5     0.00000     0.00000     1.25520  0.0
    176    173    175    186   5     0.00000     0.00000     1.25520  0.0
    176    173    175    187   5     0.00000     0.00000     1.25520  0.0
    172    173    176    188   5     0.00000     0.00000     1.25520  0.0
    172    173    176    189   5     0.00000     0.00000     1.25520  0.0
    172    173    176    190   5     0.00000     0.00000     1.25520  0.0
    174    173    176    188   5     0.00000     0.00000     1.25520  0.0
    174    173    176    189   5     0.00000     0.00000     1.25520  0.0
    174    173    176    190   5     0.00000     0.00000     1.25520  0.0
    175    173    176    188   5     0.00000     0.00000     1.25520  0.0
    175    173    176    189   5     0.00000     0.00000     1.25520  0.0
    175    173    176    190   5     0.00000     0.00000     1.25520  0.0
    171    191    192    193   5     4.74884    -0.63178     1.67360  0.0
    171    191    192    200   5     0.00000     0.00000     1.25520  0.0
    171    191    192    212   5     4.74884    -0.63178     1.67360  0.0
    198    191    192    193   5     0.00000     0.00000     1.25520  0.0
    198    191    192    200   5     0.00000     0.00000     1.25520  0.0
    198    191    192    212   5     0.00000     0.00000     1.25520  0.0
    199    191    192    193   5     0.00000     0.00000     1.25520  0.0
    199    191    192    200   5     0.00000     0.00000     1.25520  0.0
    199    191    192    212   5     0.00000     0.00000     1.25520  0.0
    191    192    193    194   5     4.74884    -0.63178     1.67360  0.0
    191    192    193    201   5     0.00000     0.00000     1.25520  0.0
    191    192    193    202   5     0.00000     0.00000     1.25520  0.0
    200    192    193    194   5     0.00000     0.00000     1.25520  0.0
    200    192    193    201   5     0.00000     0.00000     1.25520  0.0
    200    192    193    202   5     0.00000     0.00000     1.25520  0.0
    212    192    193    194   5     4.74884    -0.63178     1.67360  0.0
    212    192    193    201   5     0.00000     0.00000     1.25520  0.0
    212    192    193    202   5     0.00000     0.00000     1.25520  0.0
    191    192    212    213   5     4.74884    -0.63178     1.67360  0.0
    191    192    212    219   5     0.00000     0.00000     1.25520  0.0
    191    192    212    220   5     0.00000     0.00000     1.25520  0.0
    193    192    212    213   5     4.74884    -0.63178     1.67360  0.0
    193    192    212    219   5     0.00000     0.00000     1.25520  0.0
    193    192    212    220   5     0.00000     0.00000     1.25520  0.0
    200    192    212    213   5     0.00000     0.00000     1.25520  0.0
    200    192    212    219   5     0.00000     0.00000     1.25520  0.0
    200    192    212    220   5     0.00000     0.00000     1.25520  0.0
    192    193    194    195   5     4.74884    -0.63178     1.67360  0.0
    192    193    194    196   5     4.74884    -0.63178     1.67360  0.0
    192    193    194    197   5     4.74884    -0.63178     1.67360  0.0
    201    193    194    195   5     0.00000     0.00000     1.25520  0.0
    201    193    194    196   5     0.00000     0.00000     1.25520  0.0
    201    193    194    197   5     0.00000     0.00000     1.25520  0.0
    202    193    194    195   5     0.00000     0.00000     1.25520  0.0
    202    193    194    196   5     0.00000     0.00000     1.25520  0.0
    202    193    194    197   5     0.00000     0.00000     1.25520  0.0
    193    194    195    203   5     0.00000     0.00000     1.25520  0.0
    193    194    195    204   5     0.00000     0.00000     1.25520  0.0
    193    194    195    205   5     0.00000     0.00000     1.25520  0.0
    196    194    195    203   5     0.00000     0.00000     1.25520  0.0
    196    194    195    204   5     0.00000     0.00000     1.25520  0.0
    196    194    195    205   5     0.00000     0.00000     1.25520  0.0
    197    194    195    203   5     0.00000     0.00000     1.25520  0.0
    197    194    195    204   5     0.00000     0.00000     1.25520  0.0
    197    194    195    205   5     0.00000     0.00000     1.25520  0.0
    193    194    196    206   5     0.00000     0.00000     1.25520  0.0
    193    194    196    207   5     0.00000     0.00000     1.25520  0.0
    193    194    196    208   5     0.00000     0.00000     1.25520  0.0
    195    194    196    206   5     0.00000     0.00000     1.25520  0.0
    195    194    196    207   5     0.00000     0.00000     1.25520  0.0
    195    194    196    208   5     0.00000     0.00000     1.25520  0.0
    197    194    196    206   5     0.00000     0.00000     1.25520  0.0
    197    194    196    207   5     0.00000     0.00000     1.25520  0.0
    197    194    196    208   5     0.00000     0.00000     1.25520  0.0
    193    194    197    209   5     0.00000     0.00000     1.25520  0.0
    193    194    197    210   5     0.00000     0.00000     1.25520  0.0
    193    194    197    211   5     0.00000     0.00000     1.25520  0.0
    195    194    197    209   5     0.00000     0.00000     1.25520  0.0
    195    194    197    210   5     0.00000     0.00000     1.25520  0.0
    195    194    197    211   5     0.00000     0.00000     1.25520  0.0
    196    194    197    209   5     0.00000     0.00000     1.25520  0.0
    196    194    197    210   5     0.00000     0.00000     1.25520  0.0
    196    194    197    211   5     0.00000     0.00000     1.25520  0.0
    192    212    213    214   5     4.74884    -0.63178     1.67360  0.0
    192    212    213    221   5     0.00000     0.00000     1.25520  0.0
    192    212    213    233   5     4.74884    -0.63178     1.67360  0.0
    219    212    213    214   5     0.00000     0.00000     1.25520  0.0
    219    212    213    221   5     0.00000     0.00000     1.25520  0.0
    219    212    213    233   5     0.00000     0.00000     1.25520  0.0
    220    212    213    214   5     0.00000     0.00000     1.25520  0.0
    220    212    213    221   5     0.00000     0.00000     1.25520  0.0
    220    212    213    233   5     0.00000     0.00000     1.25520  0.0
    212    213    214    215   5     4.74884    -0.63178     1.67360  0.0
    212    213    214    222   5     0.00000     0.00000     1.25520  0.0
    212    213    214    223   5     0.00000     0.00000     1.25520  0.0
    221    213    214    215   5     0.00000     0.00000     1.25520  0.0
    221    213    214    222   5     0.00000     0.00000     1.25520  0.0
    221    213    214    223   5     0.00000     0.00000     1.25520  0.0
    233    213    214    215   5     4.74884    -0.63178     1.67360  0.0
    233    213    214    222   5     0.00000     0.00000     1.25520  0.0
    233    213    214    223   5     0.00000     0.00000     1.25520  0.0
    212    213    233    234   5     4.74884    -0.63178     1.67360  0.0
    212    213    233    240   5     0.00000     0.00000     1.25520  0.0
    212    213    233    241   5     0.00000     0.00000     1.25520  0.0
    214    213    233    234   5     4.74884    -0.63178     1.67360  0.0
    214    213    233    240   5     0.00000     0.00000     1.25520  0.0
    214    213    233    241   5     0.00000     0.00000     1.25520  0.0
    221    213    233    234   5     0.00000     0.00000     1.25520  0.0
    221    213    233    240   5     0.00000     0.00000     1.25520  0.0
    221    213    233    241   5     0.00000     0.00000     1.25520  0.0
    213    214    215    216   5     4.74884    -0.63178     1.67360  0.0
    213    214    215    217   5     4.74884    -0.63178     1.67360  0.0
    213    214    215    218   5     4.74884    -0.63178     1.67360  0.0
    222    214    215    216   5     0.00000     0.00000     1.25520  0.0
    222    214    215    217   5     0.00000     0.00000     1.25520  0.0
    222    214    215    218   5     0.00000     0.00000     1.25520  0.0
    223    214    215    216   5     0.00000     0.00000     1.25520  0.0
    223    214    215    217   5     0.00000     0.00000     1.25520  0.0
    223    214    215    218   5     0.00000     0.00000     1.25520  0.0
    214    215    216    224   5     0.00000     0.00000     1.25520  0.0
    214    215    216    225   5     0.00000     0.00000     1.25520  0.0
    214    215    216    226   5     0.00000     0.00000     1.25520  0.0
    217    215    216    224   5     0.00000     0.00000     1.25520  0.0
    217    215    216    225   5     0.00000     0.00000     1.25520  0.0
    217    215    216    226   5     0.00000     0.00000     1.25520  0.0
    218    215    216    224   5     0.00000     0.00000     1.25520  0.0
    218    215    216    225   5     0.00000     0.00000     1.25520  0.0
    218    215    216    226   5     0.00000     0.00000     1.25520  0.0
    214    215    217    227   5     0.00000     0.00000     1.25520  0.0
    214    215    217    228   5     0.00000     0.00000     1.25520  0.0
    214    215    217    229   5     0.00000     0.00000     1.25520  0.0
    216    215    217    227   5     0.00000     0.00000     1.25520  0.0
    216    215    217    228   5     0.00000     0.00000     1.25520  0.0
    216    215    217    229   5     0.00000     0.00000     1.25520  0.0
    218    215    217    227   5     0.00000     0.00000     1.25520  0.0
    218    215    217    228   5     0.00000     0.00000     1.25520  0.0
    218    215    217    229   5     0.00000     0.00000     1.25520  0.0
    214    215    218    230   5     0.00000     0.00000     1.25520  0.0
    214    215    218    231   5     0.00000     0.00000     1.25520  0.0
    214    215    218    232   5     0.00000     0.00000     1.25520  0.0
    216    215    218    230   5     0.00000     0.00000     1.25520  0.0
    216    215    218    231   5     0.00000     0.00000     1.25520  0.0
    216    215    218    232   5     0.00000     0.00000     1.25520  0.0
    217    215    218    230   5     0.00000     0.00000     1.25520  0.0
    217    215    218    231   5     0.00000     0.00000     1.25520  0.0
    217    215    218    232   5     0.00000     0.00000     1.25520  0.0
    213    233    234    235   5     4.74884    -0.63178     1.67360  0.0
    213    233    234    242   5     0.00000     0.00000     1.25520  0.0
    213    233    234    254   5     4.74884    -0.63178     1.67360  0.0
    240    233    234    235   5     0.00000     0.00000     1.25520  0.0
    240    233    234    242   5     0.00000     0.00000     1.25520  0.0
    240    233    234    254   5     0.00000     0.00000     1.25520  0.0
    241    233    234    235   5     0.00000     0.00000     1.25520  0.0
    241    233    234    242   5     0.00000     0.00000     1.25520  0.0
    241    233    234    254   5     0.00000     0.00000     1.25520  0.0
    233    234    235    236   5     4.74884    -0.63178     1.67360  0.0
    233    234    235    243   5     0.00000     0.00000     1.25520  0.0
    233    234    235    244   5     0.00000     0.00000     1.25520  0.0
    242    234    235    236   5     0.00000     0.00000     1.25520  0.0
    242    234    235    243   5     0.00000     0.00000     1.25520  0.0
    242    234    235    244   5     0.00000     0.00000     1.25520  0.0
    254    234    235    236   5     4.74884    -0.63178     1.67360  0.0
    254    234    235    243   5     0.00000     0.00000     1.25520  0.0
    254    234    235    244   5     0.00000     0.00000     1.25520  0.0
    233    234    254    255   5     4.74884    -0.63178     1.67360  0.0
    233    234    254    261   5     0.00000     0.00000     1.25520  0.0
    233    234    254    262   5     0.00000     0.00000     1.25520  0.0
    235    234    254    255   5     4.74884    -0.63178     1.67360  0.0
    235    234    254    261   5     0.00000     0.00000     1.25520  0.0
    235    234    254    262   5     0.00000     0.00000     1.25520  0.0
    242    234    254    255   5     0.00000     0.00000     1.25520  0.0
    242    234    254    261   5     0.00000     0.00000     1.25520  0.0
    242    234    254    262   5     0.00000     0.00000     1.25520  0.0
    234    235    236    237   5     4.74884    -0.63178     1.67360  0.0
    234    235    236    238   5     4.74884    -0.63178     1.67360  0.0
    234    235    236    239   5     4.74884    -0.63178     1.67360  0.0
    243    235    236    237   5     0.00000     0.00000     1.25520  0.0
    243    235    236    238   5     0.00000     0.00000     1.25520  0.0
    243    235    236    239   5     0.00000     0.00000     1.25520  0.0
    244    235    236    237   5     0.00000     0.00000     1.25520  0.0
    244    235    236    238   5     0.00000     0.00000     1.25520  0.0
    244    235    236    239   5     0.00000     0.00000     1.25520  0.0
    235    236    237    245   5     0.00000     0.00000     1.25520  0.0
    235    236    237    246   5     0.00000     0.00000     1.25520  0.0
    235    236    237    247   5     0.00000     0.00000     1.25520  0.0
    238    236    237    245   5     0.00000     0.00000     1.25520  0.0
    238    236    237    246   5     0.00000     0.00000     1.25520  0.0
    238    236    237    247   5     0.00000     0.00000     1.25520  0.0
    239    236    237    245   5     0.00000     0.00000     1.25520  0.0
    239    236    237    246   5     0.00000     0.00000     1.25520  0.0
    239    236    237    247   5     0.00000     0.00000     1.25520  0.0
    235    236    238    248   5     0.00000     0.00000     1.25520  0.0
    235    236    238    249   5     0.00000     0.00000     1.25520  0.0
    235    236    238    250   5     0.00000     0.00000     1.25520  0.0
    237    236    238    248   5     0.00000     0.00000     1.25520  0.0
    237    236    238    249   5     0.00000     0.00000     1.25520  0.0
    237    236    238    250   5     0.00000     0.00000     1.25520  0.0
    239    236    238    248   5     0.00000     0.00000     1.25520  0.0
    239    236    238    249   5     0.00000     0.00000     1.25520  0.0
    239    236    238    250   5     0.00000     0.00000     1.25520  0.0
    235    236    239    251   5     0.00000     0.00000     1.25520  0.0
    235    236    239    252   5     0.00000     0.00000     1.25520  0.0
    235    236    239    253   5     0.00000     0.00000     1.25520  0.0
    237    236    239    251   5     0.00000     0.00000     1.25520  0.0
    237    236    239    252   5     0.00000     0.00000     1.25520  0.0
    237    236    239    253   5     0.00000     0.00000     1.25520  0.0
    238    236    239    251   5     0.00000     0.00000     1.25520  0.0
    238    236    239    252   5     0.00000     0.00000     1.25520  0.0
    238    236    239    253   5     0.00000     0.00000     1.25520  0.0
    234    254    255    256   5     4.74884    -0.63178     1.67360  0.0
    234    254    255    263   5     0.00000     0.00000     1.25520  0.0
    234    254    255    275   5     4.74884    -0.63178     1.67360  0.0
    261    254    255    256   5     0.00000     0.00000     1.25520  0.0
    261    254    255    263   5     0.00000     0.00000     1.25520  0.0
    261    254    255    275   5     0.00000     0.00000     1.25520  0.0
    262    254    255    256   5     0.00000     0.00000     1.25520  0.0
    262    254    255    263   5     0.00000     0.00000     1.25520  0.0
    262    254    255    275   5     0.00000     0.00000     1.25520  0.0
    254    255    256    257   5     4.74884    -0.63178     1.67360  0.0
    254    255    256    264   5     0.00000     0.00000     1.25520  0.0
    254    255    256    265   5     0.00000     0.00000     1.25520  0.0
    263    255    256    257   5     0.00000     0.00000     1.25520  0.0
    263    255    256    264   5     0.00000     0.00000     1.25520  0.0
    263    255    256    265   5     0.00000     0.00000     1.25520  0.0
    275    255    256    257   5     4.74884    -0.63178     1.67360  0.0
    275    255    256    264   5     0.00000     0.00000     1.25520  0.0
    275    255    256    265   5     0.00000     0.00000     1.25520  0.0
    254    255    275    276   5     4.74884    -0.63178     1.67360  0.0
    254    255    275    282   5     0.00000     0.00000     1.25520  0.0
    254    255    275    283   5     0.00000     0.00000     1.25520  0.0
    256    255    275    276   5     4.74884    -0.63178     1.67360  0.0
    256    255    275    282   5     0.00000     0.00000     1.25520  0.0
    256    255    275    283   5     0.00000     0.00000     1.25520  0.0
    263    255    275    276   5     0.00000     0.00000     1.25520  0.0
    263    255    275    282   5     0.00000     0.00000     1.25520  0.0
    263    255    275    283   5     0.00000     0.00000     1.25520  0.0
    255    256    257    258   5     4.74884    -0.63178     1.67360  0.0
    255    256    257    259   5     4.74884    -0.63178     1.67360  0.0
    255    256    257    260   5     4.74884    -0.63178     1.67360  0.0
    264    256    257    258   5     0.00000     0.00000     1.25520  0.0
    264    256    257    259   5     0.00000     0.00000     1.25520  0.0
    264    256    257    260   5     0.00000     0.00000     1.25520  0.0
    265    256    257    258   5     0.00000     0.00000     1.25520  0.0
    265    256    257    259   5     0.00000     0.00000     1.25520  0.0
    265    256    257    260   5     0.00000     0.00000     1.25520  0.0
    256    257    258    266   5     0.00000     0.00000     1.25520  0.0
    256    257    258    267   5     0.00000     0.00000     1.25520  0.0
    256    257    258    268   5     0.00000     0.00000     1.25520  0.0
    259    257    258    266   5     0.00000     0.00000     1.25520  0.0
    259    257    258    267   5     0.00000     0.00000     1.25520  0.0
    259    257    258    268   5     0.00000     0.00000     1.25520  0.0
    260    257    258    266   5     0.00000     0.00000     1.25520  0.0
    260    257    258    267   5     0.00000     0.00000     1.25520  0.0
    260    257    258    268   5     0.00000     0.00000     1.25520  0.0
    256    257    259    269   5     0.00000     0.00000     1.25520  0.0
    256    257    259    270   5     0.00000     0.00000     1.25520  0.0
    256    257    259    271   5     0.00000     0.00000     1.25520  0.0
    258    257    259    269   5     0.00000     0.00000     1.25520  0.0
    258    257    259    270   5     0.00000     0.00000     1.25520  0.0
    258    257    259    271   5     0.00000     0.00000     1.25520  0.0
    260    257    259    269   5     0.00000     0.00000     1.25520  0.0
    260    257    259    270   5     0.00000     0.00000     1.25520  0.0
    260    257    259    271   5     0.00000     0.00000     1.25520  0.0
    256    257    260    272   5     0.00000     0.00000     1.25520  0.0
    256    257    260    273   5     0.00000     0.00000     1.25520  0.0
    256    257    260    274   5     0.00000     0.00000     1.25520  0.0
    258    257    260    272   5     0.00000     0.00000     1.25520  0.0
    258    257    260    273   5     0.00000     0.00000     1.25520  0.0
    258    257    260    274   5     0.00000     0.00000     1.25520  0.0
    259    257    260    272   5     0.00000     0.00000     1.25520  0.0
    259    257    260    273   5     0.00000     0.00000     1.25520  0.0
    259    257    260    274   5     0.00000     0.00000     1.25520  0.0
    255    275    276    277   5     4.74884    -0.63178     1.67360  0.0
    255    275    276    284   5     0.00000     0.00000     1.25520  0.0
    255    275    276    296   5     4.74884    -0.63178     1.67360  0.0
    282    275    276    277   5     0.00000     0.00000     1.25520  0.0
    282    275    276    284   5     0.00000     0.00000     1.25520  0.0
    282    275    276    296   5     0.00000     0.00000     1.25520  0.0
    283    275    276    277   5     0.00000     0.00000     1.25520  0.0
    283    275    276    284   5     0.00000     0.00000     1.25520  0.0
    283    275    276    296   5     0.00000     0.00000     1.25520  0.0
    275    276    277    278   5     4.74884    -0.63178     1.67360  0.0
    275    276    277    285   5     0.00000     0.00000     1.25520  0.0
    275    276    277    286   5     0.00000     0.00000     1.25520  0.0
    284    276    277    278   5     0.00000     0.00000     1.25520  0.0
    284    276    277    285   5     0.00000     0.00000     1.25520  0.0
    284    276    277    286   5     0.00000     0.00000     1.25520  0.0
    296    276    277    278   5     4.74884    -0.63178     1.67360  0.0
    296    276    277    285   5     0.00000     0.00000     1.25520  0.0
    296    276    277    286   5     0.00000     0.00000     1.25520  0.0
    275    276    296    297   5     4.74884    -0.63178     1.67360  0.0
    275    276    296    303   5     0.00000     0.00000     1.25520  0.0
    275    276    296    304   5     0.00000     0.00000     1.25520  0.0
    277    276    296    297   5     4.74884    -0.63178     1.67360  0.0
    277    276    296    303   5     0.00000     0.00000     1.25520  0.0
    277    276    296    304   5     0.00000     0.00000     1.25520  0.0
    284    276    296    297   5     0.00000     0.00000     1.25520  0.0
    284    276    296    303   5     0.00000     0.00000     1.25520  0.0
    284    276    296    304   5     0.00000     0.00000     1.25520  0.0
    276    277    278    279   5     4.74884    -0.63178     1.67360  0.0
    276    277    278    280   5     4.74884    -0.63178     1.67360  0.0
    276    277    278    281   5     4.74884    -0.63178     1.67360  0.0
    285    277    278    279   5     0.00000     0.00000     1.25520  0.0
    285    277    278    280   5     0.00000     0.00000     1.25520  0.0
    285    277    278    281   5     0.00000     0.00000     1.25520  0.0
    286    277    278    279   5     0.00000     0.00000     1.25520  0.0
    286    277    278    280   5     0.00000     0.00000     1.25520  0.0
    286    277    278    281   5     0.00000     0.00000     1.25520  0.0
    277    278    279    287   5     0.00000     0.00000     1.25520  0.0
    277    278    279    288   5     0.00000     0.00000     1.25520  0.0
    277    278    279    289   5     0.00000     0.00000     1.25520  0.0
    280    278    279    287   5     0.00000     0.00000     1.25520  0.0
    280    278    279    288   5     0.00000     0.00000     1.25520  0.0
    280    278    279    289   5     0.00000     0.00000     1.25520  0.0
    281    278    279    287   5     0.00000     0.00000     1.25520  0.0
    281    278    279    288   5     0.00000     0.00000     1.25520  0.0
    281    278    279    289   5     0.00000     0.00000     1.25520  0.0
    277    278    280    290   5     0.00000     0.00000     1.25520  0.0
    277    278    280    291   5     0.00000     0.00000     1.25520  0.0
    277    278    280    292   5     0.00000     0.00000     1.25520  0.0
    279    278    280    290   5     0.00000     0.00000     1.25520  0.0
    279    278    280    291   5     0.00000     0.00000     1.25520  0.0
    279    278    280    292   5     0.00000     0.00000     1.25520  0.0
    281    278    280    290   5     0.00000     0.00000     1.25520  0.0
    281    278    280    291   5     0.00000     0.00000     1.25520  0.0
    281    278    280    292   5     0.00000     0.00000     1.25520  0.0
    277    278    281    293   5     0.00000     0.00000     1.25520  0.0
    277    278    281    294   5     0.00000     0.00000     1.25520  0.0
    277    278    281    295   5     0.00000     0.00000     1.25520  0.0
    279    278    281    293   5     0.00000     0.00000     1.25520  0.0
    279    278    281    294   5     0.00000     0.00000     1.25520  0.0
    279    278    281    295   5     0.00000     0.00000     1.25520  0.0
    280    278    281    293   5     0.00000     0.00000     1.25520  0.0
    280    278    281    294   5     0.00000     0.00000     1.25520  0.0
    280    278    281    295   5     0.00000     0.00000     1.25520  0.0
    276    296    297    298   5     4.74884    -0.63178     1.67360  0.0
    276    296    297    305   5     0.00000     0.00000     1.25520  0.0
    276    296    297    317   5     4.74884    -0.63178     1.67360  0.0
    303    296    297    298   5     0.00000     0.00000     1.25520  0.0
    303    296    297    305   5     0.00000     0.00000     1.25520  0.0
    303    296    297    317   5     0.00000     0.00000     1.25520  0.0
    304    296    297    298   5     0.00000     0.00000     1.25520  0.0
    304    296    297    305   5     0.00000     0.00000     1.25520  0.0
    304    296    297    317   5     0.00000     0.00000     1.25520  0.0
    296    297    298    299   5     4.74884    -0.63178     1.67360  0.0
    296    297    298    306   5     0.00000     0.00000     1.25520  0.0
    296    297    298    307   5     0.00000     0.00000     1.25520  0.0
    305    297    298    299   5     0.00000     0.00000     1.25520  0.0
    305    297    298    306   5     0.00000     0.00000     1.25520  0.0
    305    297    298    307   5     0.00000     0.00000     1.25520  0.0
    317    297    298    299   5     4.74884    -0.63178     1.67360  0.0
    317    297    298    306   5     0.00000     0.00000     1.25520  0.0
    317    297    298    307   5     0.00000     0.00000     1.25520  0.0
    296    297    317    318   5     4.74884    -0.63178     1.67360  0.0
    296    297    317    324   5     0.00000     0.00000     1.25520  0.0
    296    297    317    325   5     0.00000     0.00000     1.25520  0.0
    298    297    317    318   5     4.74884    -0.63178     1.67360  0.0
    298    297    317    324   5     0.00000     0.00000     1.25520  0.0
    298    297    317    325   5     0.00000     0.00000     1.25520  0.0
    305    297    317    318   5     0.00000     0.00000     1.25520  0.0
    305    297    317    324   5     0.00000     0.00000     1.25520  0.0
    305    297    317    325   5     0.00000     0.00000     1.25520  0.0
    297    298    299    300   5     4.74884    -0.63178     1.67360  0.0
    297    298    299    301   5     4.74884    -0.63178     1.67360  0.0
    297    298    299    302   5     4.74884    -0.63178     1.67360  0.0
    306    298    299    300   5     0.00000     0.00000     1.25520  0.0
    306    298    299    301   5     0.00000     0.00000     1.25520  0.0
    306    298    299    302   5     0.00000     0.00000     1.25520  0.0
    307    298    299    300   5     0.00000     0.00000     1.25520  0.0
    307    298    299    301   5     0.00000     0.00000     1.25520  0.0
    307    298    299    302   5     0.00000     0.00000     1.25520  0.0
    298    299    300    308   5     0.00000     0.00000     1.25520  0.0
    298    299    300    309   5     0.00000     0.00000     1.25520  0.0
    298    299    300    310   5     0.00000     0.00000     1.25520  0.0
    301    299    300    308   5     0.00000     0.00000     1.25520  0.0
    301    299    300    309   5     0.00000     0.00000     1.25520  0.0
    301    299    300    310   5     0.00000     0.00000     1.25520  0.0
    302    299    300    308   5     0.00000     0.00000     1.25520  0.0
    302    299    300    309   5     0.00000     0.00000     1.25520  0.0
    302    299    300    310   5     0.00000     0.00000     1.25520  0.0
    298    299    301    311   5     0.00000     0.00000     1.25520  0.0
    298    299    301    312   5     0.00000     0.00000     1.25520  0.0
    298    299    301    313   5     0.00000     0.00000     1.25520  0.0
    300    299    301    311   5     0.00000     0.00000     1.25520  0.0
    300    299    301    312   5     0.00000     0.00000     1.25520  0.0
    300    299    301    313   5     0.00000     0.00000     1.25520  0.0
    302    299    301    311   5     0.00000     0.00000     1.25520  0.0
    302    299    301    312   5     0.00000     0.00000     1.25520  0.0
    302    299    301    313   5     0.00000     0.00000     1.25520  0.0
    298    299    302    314   5     0.00000     0.00000     1.25520  0.0
    298    299    302    315   5     0.00000     0.00000     1.25520  0.0
    298    299    302    316   5     0.00000     0.00000     1.25520  0.0
    300    299    302    314   5     0.00000     0.00000     1.25520  0.0
    300    299    302    315   5     0.00000     0.00000     1.25520  0.0
    300    299    302    316   5     0.00000     0.00000     1.25520  0.0
    301    299    302    314   5     0.00000     0.00000     1.25520  0.0
    301    299    302    315   5     0.00000     0.00000     1.25520  0.0
    301    299    302    316   5     0.00000     0.00000     1.25520  0.0
    297    317    318    319   5     4.74884    -0.63178     1.67360  0.0
    297    317    318    326   5     0.00000     0.00000     1.25520  0.0
    297    317    318    338   5     4.74884    -0.63178     1.67360  0.0
    324    317    318    319   5     0.00000     0.00000     1.25520  0.0
    324    317    318    326   5     0.00000     0.00000     1.25520  0.0
    324    317    318    338   5     0.00000     0.00000     1.25520  0.0
    325    317    318    319   5     0.00000     0.00000     1.25520  0.0
    325    317    318    326   5     0.00000     0.00000     1.25520  0.0
    325    317    318    338   5     0.00000     0.00000     1.25520  0.0
    317    318    319    320   5     4.74884    -0.63178     1.67360  0.0
    317    318    319    327   5     0.00000     0.00000     1.25520  0.0
    317    318    319    328   5     0.00000     0.00000     1.25520  0.0
    326    318    319    320   5     0.00000     0.00000     1.25520  0.0
    326    318    319    327   5     0.00000     0.00000     1.25520  0.0
    326    318    319    328   5     0.00000     0.00000     1.25520  0.0
    338    318    319    320   5     4.74884    -0.63178     1.67360  0.0
    338    318    319    327   5     0.00000     0.00000     1.25520  0.0
    338    318    319    328   5     0.00000     0.00000     1.25520  0.0
    317    318    338    339   5     4.74884    -0.63178     1.67360  0.0
    317    318    338    345   5     0.00000     0.00000     1.25520  0.0
    317    318    338    346   5     0.00000     0.00000     1.25520  0.0
    319    318    338    339   5     4.74884    -0.63178     1.67360  0.0
    319    318    338    345   5     0.00000     0.00000     1.25520  0.0
    319    318    338    346   5     0.00000     0.00000     1.25520  0.0
    326    318    338    339   5     0.00000     0.00000     1.25520  0.0
    326    318    338    345   5     0.00000     0.00000     1.25520  0.0
    326    318    338    346   5     0.00000     0.00000     1.25520  0.0
    318    319    320    321   5     4.74884    -0.63178     1.67360  0.0
    318    319    320    322   5     4.74884    -0.63178     1.67360  0.0
    318    319    320    323   5     4.74884    -0.63178     1.67360  0.0
    327    319    320    321   5     0.00000     0.00000     1.25520  0.0
    327    319    320    322   5     0.00000     0.00000     1.25520  0.0
    327    319    320    323   5     0.00000     0.00000     1.25520  0.0
    328    319    320    321   5     0.00000     0.00000     1.25520  0.0
    328    319    320    322   5     0.00000     0.00000     1.25520  0.0
    328    319    320    323   5     0.00000     0.00000     1.25520  0.0
    319    320    321    329   5     0.00000     0.00000     1.25520  0.0
    319    320    321    330   5     0.00000     0.00000     1.25520  0.0
    319    320    321    331   5     0.00000     0.00000     1.25520  0.0
    322    320    321    329   5     0.00000     0.00000     1.25520  0.0
    322    320    321    330   5     0.00000     0.00000     1.25520  0.0
    322    320    321    331   5     0.00000     0.00000     1.25520  0.0
    323    320    321    329   5     0.00000     0.00000     1.25520  0.0
    323    320    321    330   5     0.00000     0.00000     1.25520  0.0
    323    320    321    331   5     0.00000     0.00000     1.25520  0.0
    319    320    322    332   5     0.00000     0.00000     1.25520  0.0
    319    320    322    333   5     0.00000     0.00000     1.25520  0.0
    319    320    322    334   5     0.00000     0.00000     1.25520  0.0
    321    320    322    332   5     0.00000     0.00000     1.25520  0.0
    321    320    322    333   5     0.00000     0.00000     1.25520  0.0
    321    320    322    334   5     0.00000     0.00000     1.25520  0.0
    323    320    322    332   5     0.00000     0.00000     1.25520  0.0
    323    320    322    333   5     0.00000     0.00000     1.25520  0.0
    323    320    322    334   5     0.00000     0.00000     1.25520  0.0
    319    320    323    335   5     0.00000     0.00000     1.25520  0.0
    319    320    323    336   5     0.00000     0.00000     1.25520  0.0
    319    320    323    337   5     0.00000     0.00000     1.25520  0.0
    321    320    323    335   5     0.00000     0.00000     1.25520  0.0
    321    320    323    336   5     0.00000     0.00000     1.25520  0.0
    321    320    323    337   5     0.00000     0.00000     1.25520  0.0
    322    320    323    335   5     0.00000     0.00000     1.25520  0.0
    322    320    323    336   5     0.00000     0.00000     1.25520  0.0
    322    320    323    337   5     0.00000     0.00000     1.25520  0.0
    318    338    339    340   5     4.74884    -0.63178     1.67360  0.0
    318    338    339    347   5     0.00000     0.00000     1.25520  0.0
    318    338    339    359   5     4.74884    -0.63178     1.67360  0.0
    345    338    339    340   5     0.00000     0.00000     1.25520  0.0
    345    338    339    347   5     0.00000     0.00000     1.25520  0.0
    345    338    339    359   5     0.00000     0.00000     1.25520  0.0
    346    338    339    340   5     0.00000     0.00000     1.25520  0.0
    346    338    339    347   5     0.00000     0.00000     1.25520  0.0
    346    338    339    359   5     0.00000     0.00000     1.25520  0.0
    338    339    340    341   5     4.74884    -0.63178     1.67360  0.0
    338    339    340    348   5     0.00000     0.00000     1.25520  0.0
    338    339    340    349   5     0.00000     0.00000     1.25520  0.0
    347    339    340    341   5     0.00000     0.00000     1.25520  0.0
    347    339    340    348   5     0.00000     0.00000     1.25520  0.0
    347    339    340    349   5     0.00000     0.00000     1.25520  0.0
    359    339    340    341   5     4.74884    -0.63178     1.67360  0.0
    359    339    340    348   5     0.00000     0.00000     1.25520  0.0
    359    339    340    349   5     0.00000     0.00000     1.25520  0.0
    338    339    359    360   5     4.74884    -0.63178     1.67360  0.0
    338    339    359    366   5     0.00000     0.00000     1.25520  0.0
    338    339    359    367   5     0.00000     0.00000     1.25520  0.0
    340    339    359    360   5     4.74884    -0.63178     1.67360  0.0
    340    339    359    366   5     0.00000     0.00000     1.25520  0.0
    340    339    359    367   5     0.00000     0.00000     1.25520  0.0
    347    339    359    360   5     0.00000     0.00000     1.25520  0.0
    347    339    359    366   5     0.00000     0.00000     1.25520  0.0
    347    339    359    367   5     0.00000     0.00000     1.25520  0.0
    339    340    341    342   5     4.74884    -0.63178     1.67360  0.0
    339    340    341    343   5     4.74884    -0.63178     1.67360  0.0
    339    340    341    344   5     4.74884    -0.63178     1.67360  0.0
    348    340    341    342   5     0.00000     0.00000     1.25520  0.0
    348    340    341    343   5     0.00000     0.00000     1.25520  0.0
    348    340    341    344   5     0.00000     0.00000     1.25520  0.0
    349    340    341    342   5     0.00000     0.00000     1.25520  0.0
    349    340    341    343   5     0.00000     0.00000     1.25520  0.0
    349    340    341    344   5     0.00000     0.00000     1.25520  0.0
    340    341    342    350   5     0.00000     0.00000     1.25520  0.0
    340    341    342    351   5     0.00000     0.00000     1.25520  0.0
    340    341    342    352   5     0.00000     0.00000     1.25520  0.0
    343    341    342    350   5     0.00000     0.00000     1.25520  0.0
    343    341    342    351   5     0.00000     0.00000     1.25520  0.0
    343    341    342    352   5     0.00000     0.00000     1.25520  0.0
    344    341    342    350   5     0.00000     0.00000     1.25520  0.0
    344    341    342    351   5     0.00000     0.00000     1.25520  0.0
    344    341    342    352   5     0.00000     0.00000     1.25520  0.0
    340    341    343    353   5     0.00000     0.00000     1.25520  0.0
    340    341    343    354   5     0.00000     0.00000     1.25520  0.0
    340    341    343    355   5     0.00000     0.00000     1.25520  0.0
    342    341    343    353   5     0.00000     0.00000     1.25520  0.0
    342    341    343    354   5     0.00000     0.00000     1.25520  0.0
    342    341    343    355   5     0.00000     0.00000     1.25520  0.0
    344    341    343    353   5     0.00000     0.00000     1.25520  0.0
    344    341    343    354   5     0.00000     0.00000     1.25520  0.0
    344    341    343    355   5     0.00000     0.00000     1.25520  0.0
    340    341    344    356   5     0.00000     0.00000     1.25520  0.0
    340    341    344    357   5     0.00000     0.00000     1.25520  0.0
    340    341    344    358   5     0.00000     0.00000     1.25520  0.0
    342    341    344    356   5     0.00000     0.00000     1.25520  0.0
    342    341    344    357   5     0.00000     0.00000     1.25520  0.0
    342    341    344    358   5     0.00000     0.00000     1.25520  0.0
    343    341    344    356   5     0.00000     0.00000     1.25520  0.0
    343    341    344    357   5     0.00000     0.00000     1.25520  0.0
    343    341    344    358   5     0.00000     0.00000     1.25520  0.0
    339    359    360    361   5     4.74884    -0.63178     1.67360  0.0
    339    359    360    368   5     0.00000     0.00000     1.25520  0.0
    339    359    360    380   5     4.74884    -0.63178     1.67360  0.0
    366    359    360    361   5     0.00000     0.00000     1.25520  0.0
    366    359    360    368   5     0.00000     0.00000     1.25520  0.0
    366    359    360    380   5     0.00000     0.00000     1.25520  0.0
    367    359    360    361   5     0.00000     0.00000     1.25520  0.0
    367    359    360    368   5     0.00000     0.00000     1.25520  0.0
    367    359    360    380   5     0.00000     0.00000     1.25520  0.0
    359    360    361    362   5     4.74884    -0.63178     1.67360  0.0
    359    360    361    369   5     0.00000     0.00000     1.25520  0.0
    359    360    361    370   5     0.00000     0.00000     1.25520  0.0
    368    360    361    362   5     0.00000     0.00000     1.25520  0.0
    368    360    361    369   5     0.00000     0.00000     1.25520  0.0
    368    360    361    370   5     0.00000     0.00000     1.25520  0.0
    380    360    361    362   5     4.74884    -0.63178     1.67360  0.0
    380    360    361    369   5     0.00000     0.00000     1.25520  0.0
    380    360    361    370   5     0.00000     0.00000     1.25520  0.0
    359    360    380    381   5     4.74884    -0.63178     1.67360  0.0
    359    360    380    387   5     0.00000     0.00000     1.25520  0.0
    359    360    380    388   5     0.00000     0.00000     1.25520  0.0
    361    360    380    381   5     4.74884    -0.63178     1.67360  0.0
    361    360    380    387   5     0.00000     0.00000     1.25520  0.0
    361    360    380    388   5     0.00000     0.00000     1.25520  0.0
    368    360    380    381   5     0.00000     0.00000     1.25520  0.0
    368    360    380    387   5     0.00000     0.00000     1.25520  0.0
    368    360    380    388   5     0.00000     0.00000     1.25520  0.0
    360    361    362    363   5     4.74884    -0.63178     1.67360  0.0
    360    361    362    364   5     4.74884    -0.63178     1.67360  0.0
    360    361    362    365   5     4.74884    -0.63178     1.67360  0.0
    369    361    362    363   5     0.00000     0.00000     1.25520  0.0
    369    361    362    364   5     0.00000     0.00000     1.25520  0.0
    369    361    362    365   5     0.00000     0.00000     1.25520  0.0
    370    361    362    363   5     0.00000     0.00000     1.25520  0.0
    370    361    362    364   5     0.00000     0.00000     1.25520  0.0
    370    361    362    365   5     0.00000     0.00000     1.25520  0.0
    361    362    363    371   5     0.00000     0.00000     1.25520  0.0
    361    362    363    372   5     0.00000     0.00000     1.25520  0.0
    361    362    363    373   5     0.00000     0.00000     1.25520  0.0
    364    362    363    371   5     0.00000     0.00000     1.25520  0.0
    364    362    363    372   5     0.00000     0.00000     1.25520  0.0
    364    362    363    373   5     0.00000     0.00000     1.25520  0.0
    365    362    363    371   5     0.00000     0.00000     1.25520  0.0
    365    362    363    372   5     0.00000     0.00000     1.25520  0.0
    365    362    363    373   5     0.00000     0.00000     1.25520  0.0
    361    362    364    374   5     0.00000     0.00000     1.25520  0.0
    361    362    364    375   5     0.00000     0.00000     1.25520  0.0
    361    362    364    376   5     0.00000     0.00000     1.25520  0.0
    363    362    364    374   5     0.00000     0.00000     1.25520  0.0
    363    362    364    375   5     0.00000     0.00000     1.25520  0.0
    363    362    364    376   5     0.00000     0.00000     1.25520  0.0
    365    362    364    374   5     0.00000     0.00000     1.25520  0.0
    365    362    364    375   5     0.00000     0.00000     1.25520  0.0
    365    362    364    376   5     0.00000     0.00000     1.25520  0.0
    361    362    365    377   5     0.00000     0.00000     1.25520  0.0
    361    362    365    378   5     0.00000     0.00000     1.25520  0.0
    361    362    365    379   5     0.00000     0.00000     1.25520  0.0
    363    362    365    377   5     0.00000     0.00000     1.25520  0.0
    363    362    365    378   5     0.00000     0.00000     1.25520  0.0
    363    362    365    379   5     0.00000     0.00000     1.25520  0.0
    364    362    365    377   5     0.00000     0.00000     1.25520  0.0
    364    362    365    378   5     0.00000     0.00000     1.25520  0.0
    364    362    365    379   5     0.00000     0.00000     1.25520  0.0
    360    380    381    382   5     4.74884    -0.63178     1.67360  0.0
    360    380    381    389   5     0.00000     0.00000     1.25520  0.0
    360    380    381    401   5     4.74884    -0.63178     1.67360  0.0
    387    380    381    382   5     0.00000     0.00000     1.25520  0.0
    387    380    381    389   5     0.00000     0.00000     1.25520  0.0
    387    380    381    401   5     0.00000     0.00000     1.25520  0.0
    388    380    381    382   5     0.00000     0.00000     1.25520  0.0
    388    380    381    389   5     0.00000     0.00000     1.25520  0.0
    388    380    381    401   5     0.00000     0.00000     1.25520  0.0
    380    381    382    383   5     4.74884    -0.63178     1.67360  0.0
    380    381    382    390   5     0.00000     0.00000     1.25520  0.0
    380    381    382    391   5     0.00000     0.00000     1.25520  0.0
    389    381    382    383   5     0.00000     0.00000     1.25520  0.0
    389    381    382    390   5     0.00000     0.00000     1.25520  0.0
    389    381    382    391   5     0.00000     0.00000     1.25520  0.0
    401    381    382    383   5     4.74884    -0.63178     1.67360  0.0
    401    381    382    390   5     0.00000     0.00000     1.25520  0.0
    401    381    382    391   5     0.00000     0.00000     1.25520  0.0
    380    381    401    402   5     4.74884    -0.63178     1.67360  0.0
    380    381    401    408   5     0.00000     0.00000     1.25520  0.0
    380    381    401    409   5     0.00000     0.00000     1.25520  0.0
    382    381    401    402   5     4.74884    -0.63178     1.67360  0.0
    382    381    401    408   5     0.00000     0.00000     1.25520  0.0
    382    381    401    409   5     0.00000     0.00000     1.25520  0.0
    389    381    401    402   5     0.00000     0.00000     1.25520  0.0
    389    381    401    408   5     0.00000     0.00000     1.25520  0.0
    389    381    401    409   5     0.00000     0.00000     1.25520  0.0
    381    382    383    384   5     4.74884    -0.63178     1.67360  0.0
    381    382    383    385   5     4.74884    -0.63178     1.67360  0.0
    381    382    383    386   5     4.74884    -0.63178     1.67360  0.0
    390    382    383    384   5     0.00000     0.00000     1.25520  0.0
    390    382    383    385   5     0.00000     0.00000     1.25520  0.0
    390    382    383    386   5     0.00000     0.00000     1.25520  0.0
    391    382    383    384   5     0.00000     0.00000     1.25520  0.0
    391    382    383    385   5     0.00000     0.00000     1.25520  0.0
    391    382    383    386   5     0.00000     0.00000     1.25520  0.0
    382    383    384    392   5     0.00000     0.00000     1.25520  0.0
    382    383    384    393   5     0.00000     0.00000     1.25520  0.0
    382    383    384    394   5     0.00000     0.00000     1.25520  0.0
    385    383    384    392   5     0.00000     0.00000     1.25520  0.0
    385    383    384    393   5     0.00000     0.00000     1.25520  0.0
    385    383    384    394   5     0.00000     0.00000     1.25520  0.0
    386    383    384    392   5     0.00000     0.00000     1.25520  0.0
    386    383    384    393   5     0.00000     0.00000     1.25520  0.0
    386    383    384    394   5     0.00000     0.00000     1.25520  0.0
    382    383    385    395   5     0.00000     0.00000     1.25520  0.0
    382    383    385    396   5     0.00000     0.00000     1.25520  0.0
    382    383    385    397   5     0.00000     0.00000     1.25520  0.0
    384    383    385    395   5     0.00000     0.00000     1.25520  0.0
    384    383    385    396   5     0.00000     0.00000     1.25520  0.0
    384    383    385    397   5     0.00000     0.00000     1.25520  0.0
    386    383    385    395   5     0.00000     0.00000     1.25520  0.0
    386    383    385    396   5     0.00000     0.00000     1.25520  0.0
    386    383    385    397   5     0.00000     0.00000     1.25520  0.0
    382    383    386    398   5     0.00000     0.00000     1.25520  0.0
    382    383    386    399   5     0.00000     0.00000     1.25520  0.0
    382    383    386    400   5     0.00000     0.00000     1.25520  0.0
    384    383    386    398   5     0.00000     0.00000     1.25520  0.0
    384    383    386    399   5     0.00000     0.00000     1.25520  0.0
    384    383    386    400   5     0.00000     0.00000     1.25520  0.0
    385    383    386    398   5     0.00000     0.00000     1.25520  0.0
    385    383    386    399   5     0.00000     0.00000     1.25520  0.0
    385    383    386    400   5     0.00000     0.00000     1.25520  0.0
    381    401    402    403   5     4.74884    -0.63178     1.67360  0.0
    381    401    402    410   5     0.00000     0.00000     1.25520  0.0
    381    401    402    422   5     0.00000     0.00000     1.25520  0.0
    408    401    402    403   5     0.00000     0.00000     1.25520  0.0
    408    401    402    410   5     0.00000     0.00000     1.25520  0.0
    408    401    402    422   5     0.00000     0.00000     1.25520  0.0
    409    401    402    403   5     0.00000     0.00000     1.25520  0.0
    409    401    402    410   5     0.00000     0.00000     1.25520  0.0
    409    401    402    422   5     0.00000     0.00000     1.25520  0.0
    401    402    403    404   5     4.74884    -0.63178     1.67360  0.0
    401    402    403    411   5     0.00000     0.00000     1.25520  0.0
    401    402    403    412   5     0.00000     0.00000     1.25520  0.0
    410    402    403    404   5     0.00000     0.00000     1.25520  0.0
    410    402    403    411   5     0.00000     0.00000     1.25520  0.0
    410    402    403    412   5     0.00000     0.00000     1.25520  0.0
    422    402    403    404   5     0.00000     0.00000     1.25520  0.0
    422    402    403    411   5     0.00000     0.00000     1.25520  0.0
    422    402    403    412   5     0.00000     0.00000     1.25520  0.0
    402    403    404    405   5     4.74884    -0.63178     1.67360  0.0
    402    403    404    406   5     4.74884    -0.63178     1.67360  0.0
    402    403    404    407   5     4.74884    -0.63178     1.67360  0.0
    411    403    404    405   5     0.00000     0.00000     1.25520  0.0
    411    403    404    406   5     0.00000     0.00000     1.25520  0.0
    411    403    404    407   5     0.00000     0.00000     1.25520  0.0
    412    403    404    405   5     0.00000     0.00000     1.25520  0.0
    412    403    404    406   5     0.00000     0.00000     1.25520  0.0
    412    403    404    407   5     0.00000     0.00000     1.25520  0.0
    403    404    405    413   5     0.00000     0.00000     1.25520  0.0
    403    404    405    414   5     0.00000     0.00000     1.25520  0.0
    403    404    405    415   5     0.00000     0.00000     1.25520  0.0
    406    404    405    413   5     0.00000     0.00000     1.25520  0.0
    406    404    405    414   5     0.00000     0.00000     1.25520  0.0
    406    404    405    415   5     0.00000     0.00000     1.25520  0.0
    407    404    405    413   5     0.00000     0.00000     1.25520  0.0
    407    404    405    414   5     0.00000     0.00000     1.25520  0.0
    407    404    405    415   5     0.00000     0.00000     1.25520  0.0
    403    404    406    416   5     0.00000     0.00000     1.25520  0.0
    403    404    406    417   5     0.00000     0.00000     1.25520  0.0
    403    404    406    418   5     0.00000     0.00000     1.25520  0.0
    405    404    406    416   5     0.00000     0.00000     1.25520  0.0
    405    404    406    417   5     0.00000     0.00000     1.25520  0.0
    405    404    406    418   5     0.00000     0.00000     1.25520  0.0
    407    404    406    416   5     0.00000     0.00000     1.25520  0.0
    407    404    406    417   5     0.00000     0.00000     1.25520  0.0
    407    404    406    418   5     0.00000     0.00000     1.25520  0.0
    403    404    407    419   5     0.00000     0.00000     1.25520  0.0
    403    404    407    420   5     0.00000     0.00000     1.25520  0.0
    403    404    407    421   5     0.00000     0.00000     1.25520  0.0
    405    404    407    419   5     0.00000     0.00000     1.25520  0.0
    405    404    407    420   5     0.00000     0.00000     1.25520  0.0
    405    404    407    421   5     0.00000     0.00000     1.25520  0.0
    406    404    407    419   5     0.00000     0.00000     1.25520  0.0
    406    404    407    420   5     0.00000     0.00000     1.25520  0.0
    406    404    407    421   5     0.00000     0.00000     1.25520  0.0
